LAMMPS (7 Dec 2015)
#----------- Initialize Simulation ------------ restart01
#processors	2 2 2
units		metal
boundary	p p p     ## periodic boundary condition  on x y z axis ##
atom_style atomic
#atom_modify map array sort 0 0.0

read_data	POSCAR_1x1x1.lammps
  triclinic box = (0 0 0) to (15.4718 13.3989 26.8434) with tilt (-7.7358 0 0)
  2 by 2 by 7 MPI processor grid
  reading atoms ...
  319 atoms

#----------- Define Potential -----------------
pair_style meam
pair_coeff * * MgAlZn.library.meam Mg Al Zn MgAlZn.parameter.meam Mg Al Zn 	#1=Mg 2=Al 3=Zn	#atoms/mass

#----------- Neighbor List --------------------
neighbor 2.0 bin
neigh_modify delay 10 check yes

#--------------  Run a simulation (minimization) ---------------------------------------
minimize       1.0e-4   1.0e-6   100   1000          #結構優化的條件
WARNING: Resetting reneighboring criteria during minimization (../min.cpp:168)
Neighbor list info ...
  2 neighbor list requests
  update every 1 steps, delay 0 steps, check yes
  max neighbors/atom: 2000, page size: 100000
  master list distance cutoff = 8
  ghost atom cutoff = 8
  binsize = 4 -> bins = 6 4 7
Memory usage per processor = 8.65568 Mbytes
Step Temp E_pair E_mol TotEng Press 
       0            0   -436.41068            0   -436.41068    285.75351 
      13            0   -458.66593            0   -458.66593   -17574.413 
Loop time of 0.0224654 on 28 procs for 13 steps with 319 atoms

79.1% CPU use with 28 MPI tasks x no OpenMP threads

Minimization stats:
  Stopping criterion = energy tolerance
  Energy initial, next-to-last, final = 
        -436.410682132     -458.623084866     -458.665926543
  Force two-norm initial, final = 22.1363 0.777394
  Force max component initial, final = 2.83478 0.142658
  Final line search alpha, max atom move = 0.357149 0.05095
  Iterations, force evaluations = 13 24

MPI task timing breakdown:
Section |  min time  |  avg time  |  max time  |%varavg| %total
---------------------------------------------------------------
Pair    | 0.018167   | 0.019405   | 0.020287   |   0.4 | 86.38
Neigh   | 0          | 0          | 0          |   0.0 |  0.00
Comm    | 0.0013404  | 0.0022056  | 0.003428   |   1.1 |  9.82
Output  | 0          | 0          | 0          |   0.0 |  0.00
Modify  | 0          | 0          | 0          |   0.0 |  0.00
Other   |            | 0.0008546  |            |       |  3.80

Nlocal:    11.3929 ave 16 max 6 min
Histogram: 1 2 2 3 1 4 5 4 2 4
Nghost:    646 ave 684 max 584 min
Histogram: 4 0 1 1 1 4 1 7 6 3
Neighs:    715.857 ave 1026 max 364 min
Histogram: 1 2 3 3 2 6 5 2 1 3
FullNghs:  1431.71 ave 2042 max 751 min
Histogram: 3 2 2 2 3 6 4 1 3 2

Total # of neighbors = 40088
Ave neighs/atom = 125.668
Neighbor list builds = 0
Dangerous builds = 0
velocity all  create 600.0 4928459 #rot yes dist gaussian

#--------------  Run a simulation (Relaxation)  ----------------------------------------
fix  1  all  nvt   temp  600.0  600.0  100				#damping constant
#fix  2  all  npt   temp  393.0  393.0  50 iso 0.0 0.0 1000.0
fix  2  all deform 1 x final 0 15.4765 y final 0 13.4031 z final 0 26.8084 xy final -7.73815 units lattice
#fix  3  all  npt   temp  393.0  393.0  50 z 0.0 0.0 1000.0

#variable b equal 1
#fix 2 all efield  0.0  0.0  v_b
#compute pot all pe/atom


#----------- Output --------------------------
thermo	 500
timestep  0.001		#1.0 fs
thermo_style	custom step time temp ke pe etotal press pxx pyy pzz lx ly lz vol

dump 1 all custom 10000 dump.eq id type x y z
dump_modify 1 sort  id

run        1000000	#1000 ps
Neighbor list info ...
  2 neighbor list requests
  update every 1 steps, delay 10 steps, check yes
  max neighbors/atom: 2000, page size: 100000
  master list distance cutoff = 8
  ghost atom cutoff = 8
  binsize = 4 -> bins = 6 4 7
Memory usage per processor = 7.56224 Mbytes
Step Time Temp KinEng PotEng TotEng Press Pxx Pyy Pzz Lx Ly Lz Volume 
      13            0          600    24.662836   -458.66593   -434.00309   -12840.562   -14072.642   -8987.3573   -15461.686      15.4718      13.3989      26.8434    5564.7737 
     500        0.487    322.23937    13.245561   -447.24447   -433.99891   -4445.6463    -10662.83   -822.99761   -1851.1116    15.471802    13.398902    26.843383    5564.7719 
    1000        0.987     315.2821    12.959584   -446.95832   -433.99874    -5194.771   -6341.6715   -4182.7489   -5059.8925    15.471805    13.398904    26.843365      5564.77 
    1500        1.487    296.32313    12.180281   -446.17798    -433.9977   -5299.7284   -8601.0515   -3140.2223   -4157.9115    15.471807    13.398906    26.843348    5564.7681 
    2000        1.987    317.16428    13.036951   -447.03384   -433.99689    -5333.884   -8011.3139    -3366.488   -4623.8502    15.471809    13.398908     26.84333    5564.7662 
    2500        2.487    321.61852    13.220041   -447.21553   -433.99549   -5888.4101   -6007.4399   -5506.3084   -6151.4821    15.471812     13.39891    26.843313    5564.7642 
    3000        2.987    318.45098     13.08984   -447.08409   -433.99425   -5715.9129   -8202.7578   -2540.0594   -6404.9216    15.471814    13.398913    26.843295    5564.7623 
    3500        3.487    330.79536    13.597253   -447.58992   -433.99266   -6671.7047   -7839.4849    -4145.579   -8030.0501    15.471816    13.398915    26.843278    5564.7604 
    4000        3.987     324.4989    13.338438   -447.32834   -433.98991   -7448.0736   -9807.1143   -4183.4117   -8353.6946    15.471819    13.398917     26.84326    5564.7585 
    4500        4.487    334.18211    13.736464   -447.72354   -433.98707   -6247.5126   -6755.5285   -5486.3208   -6500.6886    15.471821    13.398919    26.843243    5564.7566 
    5000        4.987    313.70865    12.894908   -446.87892   -433.98401   -6116.2446   -7306.2067    -3879.902   -7162.6251    15.471823    13.398921    26.843225    5564.7547 
    5500        5.487    339.58562    13.958574   -447.93997   -433.98139   -6828.9475   -7832.2672   -4803.2097   -7851.3656    15.471826    13.398923    26.843208    5564.7528 
    6000        5.987    340.05543    13.977885   -447.95574   -433.97786   -6808.2829   -8346.9588   -5342.1341   -6735.7558    15.471828    13.398925     26.84319    5564.7509 
    6500        6.487    309.11109    12.705927   -446.67941   -433.97348   -6335.6893   -9034.2334   -2655.8053   -7317.0292     15.47183    13.398927    26.843173     5564.749 
    7000        6.987    328.43768    13.500341   -447.47064    -433.9703    -6509.767   -8025.9725    -3450.154   -8053.1744    15.471833    13.398929    26.843155    5564.7471 
    7500        7.487    308.17752    12.667553   -446.63246    -433.9649   -5831.5978     -10011.7   -5560.2454   -1922.8476    15.471835    13.398931    26.843138    5564.7451 
    8000        7.987    314.75263    12.937821   -446.89831   -433.96049   -5121.9833    -7694.795   -1957.7164   -5713.4387    15.471838    13.398934     26.84312    5564.7432 
    8500        8.487    338.63774    13.919611   -447.87526   -433.95565   -5657.3882   -6779.4565   -5325.3375   -4867.3708     15.47184    13.398936    26.843103    5564.7413 
    9000        8.987    315.95012    12.987043   -446.93696   -433.94992   -5429.8442   -8720.7787   -5611.9727   -1956.7811    15.471842    13.398938    26.843085    5564.7394 
    9500        9.487    307.88046    12.655342    -446.5996   -433.94426   -6323.6596    -10506.11   -4445.7535   -4019.1152    15.471845     13.39894    26.843068    5564.7375 
   10000        9.987    350.14699    14.392696   -448.33207   -433.93937   -7014.7551   -8618.1841   -7225.4874   -5200.5938    15.471847    13.398942     26.84305    5564.7356 
   10500       10.487    310.93749    12.781001   -446.71309   -433.93209    -6354.494   -10058.541   -3992.0751   -5012.8657    15.471849    13.398944    26.843033    5564.7337 
   11000       10.987    325.82688    13.393025    -447.3188   -433.92578   -6444.1961   -9019.3943   -5018.9156   -5294.2783    15.471852    13.398946    26.843015    5564.7318 
   11500       11.487    345.86889    14.216846   -448.13594   -433.91909   -6886.9573   -9248.3611   -6386.4941   -5026.0167    15.471854    13.398948    26.842998    5564.7299 
   12000       11.987    311.99576      12.8245   -446.73577   -433.91127    -6663.325    -9188.908   -4784.8907   -6016.1762    15.471856     13.39895     26.84298    5564.7279 
   12500       12.487    318.93675    13.109808   -447.01331    -433.9035    -5377.231   -8359.6995   -4194.0331   -3577.9603    15.471859    13.398952    26.842963     5564.726 
   13000       12.987    329.43067    13.541157   -447.43678   -433.89562   -6015.7149   -6964.6604   -6361.2045   -4721.2798    15.471861    13.398955    26.842945    5564.7241 
   13500       13.487    330.18647    13.572224   -447.45977   -433.88754   -6951.1936   -9330.7414   -8493.4569   -3029.3825    15.471863    13.398957    26.842928    5564.7222 
   14000       13.987    328.92146    13.520227   -447.39947   -433.87924   -6491.0442   -8885.9951   -4775.8707   -5811.2668    15.471866    13.398959     26.84291    5564.7203 
   14500       14.487    326.10764    13.404565   -447.27517   -433.87061    -6987.608   -9370.5615   -6843.2834   -4748.9791    15.471868    13.398961    26.842893    5564.7184 
   15000       14.987    300.65733    12.358437   -446.21976   -433.86132   -5008.1779   -8951.8251   -3214.7162   -2857.9926     15.47187    13.398963    26.842875    5564.7165 
   15500       15.487    332.75175    13.677669   -447.53031   -433.85264    -5737.094   -6480.3568   -4558.6544   -6172.2709    15.471873    13.398965    26.842858    5564.7146 
   16000       15.987    319.59816    13.136995   -446.97978   -433.84278   -5476.2809   -6972.9643   -5788.1584   -3667.7201    15.471875    13.398967     26.84284    5564.7127 
   16500       16.487    320.38602     13.16938   -447.00207   -433.83269   -6834.7216   -8565.2309    -6363.734   -5575.1998    15.471877    13.398969    26.842823    5564.7108 
   17000       16.987    320.63336    13.179547   -447.00153   -433.82198   -6420.6351   -10214.189   -4469.5956   -4578.1209     15.47188    13.398971    26.842805    5564.7088 
   17500       17.487    327.52614    13.462872   -447.27462   -433.81175   -5800.4699   -7630.0335   -2640.7137   -7130.6626    15.471882    13.398973    26.842788    5564.7069 
   18000       17.987    318.74278    13.101835   -446.90264    -433.8008   -6924.3158   -7925.6597   -6942.1932   -5905.0945    15.471885    13.398976     26.84277     5564.705 
   18500       18.487    334.18058    13.736401   -447.52628   -433.78988    -5145.766   -8266.1591   -3533.5716   -3637.5673    15.471887    13.398978    26.842753    5564.7031 
   19000       18.987     341.0945    14.020596   -447.79896   -433.77836    -5150.912   -9239.5875   -4478.3752   -1734.7732    15.471889     13.39898    26.842735    5564.7012 
   19500       19.487    319.92993    13.150632   -446.91682   -433.76618   -6271.4456   -4653.3532   -6158.3503   -8002.6333    15.471892    13.398982    26.842718    5564.6993 
   20000       19.987    332.02961    13.647986   -447.40257   -433.75458   -6580.0219   -7868.4404   -5844.2762    -6027.349    15.471894    13.398984      26.8427    5564.6974 
   20500       20.487    313.05929    12.868216   -446.60999   -433.74177   -4672.8686    -5648.905   -2708.9787    -5660.722    15.471896    13.398986    26.842683    5564.6955 
   21000       20.987    322.45048    13.254239   -446.98309   -433.72885   -4991.7325   -6406.5319   -3461.8531   -5106.8124    15.471899    13.398988    26.842665    5564.6936 
   21500       21.487    326.77499    13.431996   -447.14822   -433.71622   -6868.3778   -8436.6731   -5721.7485   -6446.7118    15.471901     13.39899    26.842648    5564.6916 
   22000       21.987    339.58348    13.958486   -447.66152   -433.70303   -6891.6423   -7957.9881   -7539.2425   -5177.6962    15.471903    13.398992     26.84263    5564.6897 
   22500       22.487    336.98834    13.851813   -447.54186   -433.69005   -5673.2727   -6833.9631   -7058.7249   -3127.1302    15.471906    13.398994    26.842613    5564.6878 
   23000       22.987    321.78911    13.227053   -446.90298   -433.67592   -5582.8417    -7356.059   -6243.9835   -3148.4824    15.471908    13.398997    26.842595    5564.6859 
   23500       23.487    334.85719    13.764213   -447.42662   -433.66241   -6140.9696   -6334.4794   -4586.4081   -7502.0211     15.47191    13.398999    26.842578     5564.684 
   24000       23.987    320.65566    13.180463    -446.8285   -433.64804   -6095.8479   -9094.8548   -5091.1228    -4101.566    15.471913    13.399001     26.84256    5564.6821 
   24500       24.487     327.0815    13.444595   -447.07818   -433.63358   -5066.7232    -6754.152   -4508.3866   -3937.6311    15.471915    13.399003    26.842543    5564.6802 
   25000       24.987     331.3558     13.62029   -447.23905   -433.61876   -7206.0361   -9455.3358   -8857.9987   -3304.7739    15.471917    13.399005    26.842525    5564.6783 
   25500       25.487    341.24245    14.026677    -447.6306   -433.60392   -6042.4653   -9297.1102   -4381.5696   -4448.7161     15.47192    13.399007    26.842508    5564.6764 
   26000       25.987    334.93566    13.767439   -447.35589   -433.58845   -5927.5863   -8241.0633   -4206.5909   -5335.1046    15.471922    13.399009     26.84249    5564.6745 
   26500       26.487     331.7644    13.637085   -447.20973   -433.57264   -5984.0669   -10134.979   -4505.6141   -3311.6071    15.471924    13.399011    26.842473    5564.6725 
   27000       26.987    333.46687    13.707065   -447.26406   -433.55699   -5892.8647   -10118.078   -5394.0101   -2166.5057    15.471927    13.399013    26.842455    5564.6706 
   27500       27.487    335.48516    13.790025   -447.33075   -433.54073   -5596.0571   -8599.7299   -5671.7434   -2516.6979    15.471929    13.399015    26.842438    5564.6687 
   28000       27.987     327.4761    13.460816   -446.98536   -433.52455   -4554.8083   -8031.5053   -2945.4299   -2687.4899    15.471932    13.399018     26.84242    5564.6668 
   28500       28.487    320.69365    13.182025   -446.69006   -433.50804   -5693.8127   -7275.3429   -6070.2517   -3735.8435    15.471934     13.39902    26.842403    5564.6649 
   29000       28.987    309.94326    12.740133   -446.23109   -433.49096   -6077.1715   -7628.6411   -2021.0909   -8581.7824    15.471936    13.399022    26.842385     5564.663 
   29500       29.487    330.71465    13.593935   -447.06824    -433.4743   -4697.8054   -8478.9889   -2621.1818   -2993.2457    15.471939    13.399024    26.842368    5564.6611 
   30000       29.987    328.64388    13.508817   -446.96598   -433.45716   -6807.6665   -7164.2528   -7058.2289   -6200.5177    15.471941    13.399026     26.84235    5564.6592 
   30500       30.487    330.08027    13.567859   -447.00827   -433.44041   -5319.8234   -9557.7447   -2477.6926   -3924.0328    15.471943    13.399028    26.842333    5564.6573 
   31000       30.987     330.4843    13.584467   -447.00682   -433.42235   -5932.5218   -7975.6334    -2433.846   -7388.0861    15.471946     13.39903    26.842315    5564.6553 
   31500       31.487    336.01297    13.811721   -447.21681   -433.40509   -6072.0233   -8996.4719   -3982.0724   -5237.5257    15.471948    13.399032    26.842298    5564.6534 
   32000       31.987    335.84915    13.804987   -447.19186   -433.38688    -6586.996   -10365.392   -2363.4045   -7032.1914     15.47195    13.399034     26.84228    5564.6515 
   32500       32.487    371.64112    15.276207   -448.64565   -433.36944   -7180.4562   -8913.5251   -5587.4067   -7040.4368    15.471953    13.399036    26.842263    5564.6496 
   33000       32.987    331.53813    13.627784     -446.978   -433.35022   -4889.5539   -9420.9029   -2801.7287     -2446.03    15.471955    13.399039    26.842245    5564.6477 
   33500       33.487    344.96262    14.179594   -447.51195   -433.33236     -5297.31   -8368.1426   -6806.8658   -716.92141    15.471957    13.399041    26.842228    5564.6458 
   34000       33.987    334.33026    13.742554   -447.05646    -433.3139   -6270.3806   -8442.2886   -2965.3155   -7403.5378     15.47196    13.399043     26.84221    5564.6439 
   34500       34.487    339.93092    13.972767    -447.2678   -433.29503   -5432.6054   -6871.3682   -3483.4208   -5943.0273    15.471962    13.399045    26.842193     5564.642 
   35000       34.987     331.3781    13.621206    -446.8976   -433.27639   -5266.9872   -9978.2824   -3090.7292   -2731.9499    15.471964    13.399047    26.842175    5564.6401 
   35500       35.487    343.25568    14.109431    -447.3683   -433.25887   -6299.3553   -7703.7666   -5856.4778   -5337.8214    15.471967    13.399049    26.842158    5564.6382 
   36000       35.987    335.62361    13.795717   -447.03515   -433.23944   -6242.4468   -8522.2573   -9951.6193   -253.46383    15.471969    13.399051     26.84214    5564.6362 
   36500       36.487    343.32178    14.112148   -447.33258   -433.22043   -5482.7049   -7511.1174   -6070.8723   -2866.1249    15.471971    13.399053    26.842123    5564.6343 
   37000       36.987    334.12091    13.733948    -446.9355   -433.20155    -5245.536   -6056.4087   -6890.1804   -2790.0189    15.471974    13.399055    26.842105    5564.6324 
   37500       37.487    324.95399    13.357145    -446.5392   -433.18206   -6982.2893    -8810.508   -6870.5456   -5265.8142    15.471976    13.399057    26.842088    5564.6305 
   38000       37.987    347.31901    14.276453   -447.43966   -433.16321   -5738.9762   -9348.3324   -3033.1733   -4835.4229    15.471979     13.39906     26.84207    5564.6286 
   38500       38.487    330.29315    13.576609   -446.72079   -433.14418   -5322.5258   -7543.3547   -4094.7217    -4329.501    15.471981    13.399062    26.842053    5564.6267 
   39000       38.987    345.06544     14.18382   -447.30819   -433.12437   -6096.6424    -6704.234   -3692.3759   -7893.3172    15.471983    13.399064    26.842035    5564.6248 
   39500       39.487    312.36259    12.839579   -445.94422   -433.10464   -4882.6401   -7153.2044   -3945.9138   -3548.8022    15.471986    13.399066    26.842018    5564.6229 
   40000       39.987    322.07295     13.23872   -446.32383   -433.08511   -5794.5867   -8020.8935   -4876.1764   -4486.6904    15.471988    13.399068       26.842     5564.621 
   40500       40.487    340.00573    13.975842    -447.0421   -433.06626   -6561.8955   -9101.4635    -7750.588    -2833.635     15.47199     13.39907    26.841983     5564.619 
   41000       40.987    330.15745    13.571032   -446.61784    -433.0468   -5221.7978   -7122.3193   -3723.8364   -4819.2377    15.471993    13.399072    26.841965    5564.6171 
   41500       41.487    330.51057    13.585547   -446.61277   -433.02722   -4315.9447   -7395.7418   -2724.1563   -2827.9362    15.471995    13.399074    26.841948    5564.6152 
   42000       41.987    342.71512    14.087211   -447.09529   -433.00808   -5929.9997   -7336.5189   -5011.7343    -5441.746    15.471997    13.399076     26.84193    5564.6133 
   42500       42.487    325.03799    13.360597   -446.34929   -432.98869   -6389.4135   -10909.887   -3245.8803   -5012.4729       15.472    13.399078    26.841913    5564.6114 
   43000       42.987    354.71914    14.580633   -447.55037   -432.96974   -6182.5673   -8622.1573   -6179.5681   -3745.9764    15.472002    13.399081    26.841895    5564.6095 
   43500       43.487    323.95197    13.315957   -446.26582   -432.94986   -4747.7876   -5085.1819   -7228.4751    -1929.706    15.472004    13.399083    26.841878    5564.6076 
   44000       43.987    333.47137    13.707249   -446.63783   -432.93058   -5999.7314   -7769.8558   -6167.7499   -4061.5883    15.472007    13.399085     26.84186    5564.6057 
   44500       44.487    350.54453    14.409037   -447.32078   -432.91175   -5862.2554   -7700.4527   -5647.1011   -4239.2124    15.472009    13.399087    26.841843    5564.6038 
   45000       44.987     320.1085    13.157972    -446.0496   -432.89162   -4912.6155   -9378.9559   -5241.8169   -117.07356    15.472011    13.399089    26.841825    5564.6019 
   45500       45.487    344.85358    14.175112   -447.04863   -432.87352   -5597.9617   -9044.5904   -3308.7862   -4440.5085    15.472014    13.399091    26.841808    5564.5999 
   46000       45.987     335.8614    13.805491   -446.65931   -432.85382   -5434.7858    -7483.066    -4568.381   -4252.9106    15.472016    13.399093     26.84179     5564.598 
   46500       46.487    339.90229     13.97159   -446.80647   -432.83488   -6687.7921   -8090.8067   -5339.4579   -6633.1117    15.472018    13.399095    26.841773    5564.5961 
   47000       46.987    331.48975    13.625795   -446.44142   -432.81562   -5385.7087   -8726.8602   -3937.7154   -3492.5504    15.472021    13.399097    26.841755    5564.5942 
   47500       47.487    320.42025    13.170787   -445.96818    -432.7974    -4857.633   -8298.8304   -1813.0018   -4461.0668    15.472023    13.399099    26.841738    5564.5923 
   48000       47.987    345.30952    14.193853   -446.97256    -432.7787   -5723.6907   -9113.7811   -3687.0096   -4370.2814    15.472026    13.399102     26.84172    5564.5904 
   48500       48.487    336.15148    13.817414    -446.5774   -432.75998    -5616.862   -9737.2624   -2326.8192   -4786.5045    15.472028    13.399104    26.841703    5564.5885 
   49000       48.987    361.55348    14.861557   -447.60328   -432.74173   -5413.2058    -9683.146   -2036.6603   -4519.8112     15.47203    13.399106    26.841685    5564.5866 
   49500       49.487    346.68982     14.25059   -446.97396   -432.72337    -5863.782   -8223.1012   -5874.5491   -3493.6957    15.472033    13.399108    26.841668    5564.5847 
   50000       49.987    327.90035    13.478254   -446.18245   -432.70419   -5440.2743    -6567.145   -7804.0423   -1949.6356    15.472035     13.39911     26.84165    5564.5827 
   50500       50.487    340.37624    13.991072   -446.67755   -432.68647   -6273.7027   -9219.2477   -3653.7734   -5948.0868    15.472037    13.399112    26.841633    5564.5808 
   51000       50.987    331.50505    13.626424   -446.29426   -432.66783   -3861.0708   -2360.3441   -2493.9846   -6728.8836     15.47204    13.399114    26.841615    5564.5789 
   51500       51.487    321.69217    13.223068    -445.8725   -432.64943   -4630.4047   -6642.6277   -5216.6533   -2031.9331    15.472042    13.399116    26.841598     5564.577 
   52000       51.987    363.18667    14.928689   -447.56089    -432.6322   -5223.7885   -6532.0681   -3715.0388   -5424.2585    15.472044    13.399118     26.84158    5564.5751 
   52500       52.487    337.75849     13.88347   -446.49768   -432.61421   -4786.2379   -8428.7037   -3394.4612   -2535.5488    15.472047     13.39912    26.841563    5564.5732 
   53000       52.987    352.47289    14.488302   -447.08459   -432.59628   -5075.5704    -7214.725   -6160.5838   -1851.4025    15.472049    13.399123    26.841545    5564.5713 
   53500       53.487    338.71021     13.92259   -446.50095   -432.57836   -4443.1356   -9032.2983   -2322.4141   -1974.6944    15.472051    13.399125    26.841528    5564.5694 
   54000       53.987    354.99733    14.592068   -447.15374   -432.56167   -5050.5598   -7474.9209   -4938.0716    -2738.687    15.472054    13.399127     26.84151    5564.5675 
   54500       54.487    343.10411      14.1032   -446.64681   -432.54361   -5184.6702   -7812.5777   -4929.9529   -2811.4801    15.472056    13.399129    26.841493    5564.5655 
   55000       54.987    330.74398    13.595141   -446.12091   -432.52577    -4182.649   -7818.8393   -2463.9044   -2265.2033    15.472058    13.399131    26.841475    5564.5636 
   55500       55.487    338.35538    13.908005   -446.41661    -432.5086   -5428.2418   -11083.854   -2540.1153   -2660.7563    15.472061    13.399133    26.841458    5564.5617 
   56000       55.987     342.7952    14.090503   -446.58191   -432.49141   -5047.5886    -6528.394    -3338.427   -5275.9447    15.472063    13.399135     26.84144    5564.5598 
   56500       56.487    348.51965    14.325805   -446.80077   -432.47497   -6401.9528   -10129.615   -6118.2118   -2958.0313    15.472065    13.399137    26.841423    5564.5579 
   57000       56.987    334.22875    13.738381   -446.19585   -432.45747   -5809.8656   -7982.5089   -4827.9714   -4619.1164    15.472068    13.399139    26.841405     5564.556 
   57500       57.487    332.06711    13.649528   -446.09081   -432.44129   -5898.3704   -8561.6746   -5416.5368   -3716.8998     15.47207    13.399141    26.841388    5564.5541 
   58000       57.987    344.30839    14.152702   -446.57682   -432.42412   -5223.8143   -6935.7356   -3604.0646   -5131.6426    15.472073    13.399144     26.84137    5564.5522 
   58500       58.487    337.85929    13.887613   -446.29507   -432.40746     -5256.94   -8121.5678   -4762.1753   -2887.0768    15.472075    13.399146    26.841353    5564.5503 
   59000       58.987    350.88617     14.42308   -446.81374   -432.39066    -4955.333   -8730.8283   -5424.7125   -710.45824    15.472077    13.399148    26.841335    5564.5484 
   59500       59.487     369.9983    15.208679   -447.58324   -432.37456   -6655.9489   -6506.0087   -8224.1662   -5237.6717     15.47208     13.39915    26.841318    5564.5464 
   60000       59.987    352.14455    14.474805   -446.83242   -432.35761   -6010.3215   -8806.8114   -4080.2522   -5143.9009    15.472082    13.399152      26.8413    5564.5445 
   60500       60.487     343.7351    14.129137   -446.47062   -432.34148    -5618.665   -10170.124   -3539.7881   -3146.0832    15.472084    13.399154    26.841283    5564.5426 
   61000       60.987    342.90424    14.094985   -446.41956   -432.32458    -4729.405   -5904.3526   -4225.3022   -4058.5601    15.472087    13.399156    26.841265    5564.5407 
   61500       61.487    337.39904    13.868695   -446.17716   -432.30847   -4089.8495   -8202.9019    -996.7853   -3069.8612    15.472089    13.399158    26.841248    5564.5388 
   62000       61.987    339.29519    13.946636   -446.23869   -432.29206   -6044.2284   -8517.3393   -4736.0715   -4879.2745    15.472091     13.39916     26.84123    5564.5369 
   62500       62.487    349.20739    14.354074   -446.63025   -432.27617   -5348.2711   -8137.9594   -5925.5913   -1981.2625    15.472094    13.399162    26.841213     5564.535 
   63000       62.987    348.18616    14.312097   -446.57167   -432.25957   -4832.6558   -8765.9383   -4197.4397   -1534.5895    15.472096    13.399165    26.841195    5564.5331 
   63500       63.487    357.78885    14.706813   -446.95108   -432.24427   -6340.7591    -10615.54   -3446.5416   -4960.1953    15.472098    13.399167    26.841178    5564.5312 
   64000       63.987     351.9746     14.46782   -446.69558   -432.22776   -6156.4636   -7597.5052   -5336.8768   -5535.0087    15.472101    13.399169     26.84116    5564.5292 
   64500       64.487    333.79008     13.72035   -445.93165    -432.2113   -4002.2805   -4428.5634   -4201.0944   -3377.1837    15.472103    13.399171    26.841143    5564.5273 
   65000       64.987    375.10462    15.418573   -447.61425   -432.19567   -5043.4849    -6424.677    -6192.128   -2513.6497    15.472105    13.399173    26.841125    5564.5254 
   65500       65.487    333.86318    13.723354   -445.90233   -432.17897   -4343.6166   -6917.2652   -3494.1046     -2619.48    15.472108    13.399175    26.841108    5564.5235 
   66000       65.987    339.67556    13.962271   -446.12558   -432.16331   -5547.0714   -7782.0887   -4310.0403   -4549.0852     15.47211    13.399177     26.84109    5564.5216 
   66500       66.487    352.56962    14.492278    -446.6405   -432.14822   -5128.4979   -8659.5751   -2136.4696    -4589.449    15.472112    13.399179    26.841073    5564.5197 
   67000       66.987    352.80002    14.501748   -446.63342   -432.13167   -4994.4327   -7948.8275   -3205.7514   -3828.7192    15.472115    13.399181    26.841055    5564.5178 
   67500       67.487    360.29518    14.809835   -446.92536   -432.11552    -5346.503   -8273.2332   -2678.7201   -5087.5557    15.472117    13.399183    26.841038    5564.5159 
   68000       67.987    345.20905    14.189723   -446.28935   -432.09963    -4831.794   -6570.1193   -5759.5271   -2165.7356     15.47212    13.399186     26.84102     5564.514 
   68500       68.487    348.52521    14.326033   -446.41034   -432.08431   -6150.1331   -6775.2913   -4637.2207   -7037.8874    15.472122    13.399188    26.841003     5564.512 
   69000       68.987    341.19823     14.02486   -446.09257   -432.06771   -5491.7908   -4553.6727   -6266.7453   -5654.9543    15.472124     13.39919    26.840985    5564.5101 
   69500       69.487    334.68007    13.756932   -445.80905   -432.05212   -3950.4834   -7663.8301   -2325.6209   -1861.9992    15.472127    13.399192    26.840968    5564.5082 
   70000       69.987    344.31779    14.153088     -446.189   -432.03592    -4399.914   -5939.2013   -3366.7108   -3893.8299    15.472129    13.399194     26.84095    5564.5063 
   70500       70.487    342.12548    14.062974   -446.08296   -432.01999   -5033.5563   -6741.2914   -6312.7898   -2046.5876    15.472131    13.399196    26.840933    5564.5044 
   71000       70.987    327.68675    13.469474   -445.47332   -432.00384   -5105.1492   -7184.5323      -3070.1   -5060.8154    15.472134    13.399198    26.840915    5564.5025 
   71500       71.487    351.08602    14.431295   -446.41957   -431.98827   -5023.1253   -8912.2436   -3865.8479   -2291.2844    15.472136      13.3992    26.840898    5564.5006 
   72000       71.987    338.09137    13.897153   -445.86913   -431.97197   -4383.8287   -9161.5285   -4090.9863    101.02865    15.472138    13.399202     26.84088    5564.4987 
   72500       72.487    347.04018    14.264991   -446.22137   -431.95638   -5155.5129   -9598.0528   -2043.5244   -3824.9614    15.472141    13.399204    26.840863    5564.4968 
   73000       72.987    350.72517    14.416462   -446.35618   -431.93972    -5463.768   -6881.2603   -4230.0485    -5279.995    15.472143    13.399207    26.840845    5564.4949 
   73500       73.487    338.11443    13.898101   -445.82195   -431.92385   -4810.6292   -7250.2625   -5511.6866   -1669.9387    15.472145    13.399209    26.840828    5564.4929 
   74000       73.987    347.83932     14.29784   -446.20572   -431.90788   -4969.9775    -10632.65   -3059.2849   -1217.9977    15.472148    13.399211     26.84081     5564.491 
   74500       74.487    351.35833    14.442488   -446.33474   -431.89225   -5263.0278   -7737.5129   -3764.7908   -4286.7797     15.47215    13.399213    26.840793    5564.4891 
   75000       74.987    357.34408     14.68853   -446.56458   -431.87605   -6194.3813   -7520.0301   -6358.1535   -4704.9602    15.472152    13.399215    26.840775    5564.4872 
   75500       75.487    336.60343    13.835992   -445.69527   -431.85928   -4987.0407   -5755.1814   -4850.5684   -4355.3723    15.472155    13.399217    26.840758    5564.4853 
   76000       75.987    345.70143    14.209962   -446.05341   -431.84345   -5558.6117   -9069.5536   -3558.7257   -4047.5558    15.472157    13.399219     26.84074    5564.4834 
   76500       76.487    366.48943    15.064448   -446.89142   -431.82697   -4808.9287   -8057.1343   -5061.5695   -1308.0822    15.472159    13.399221    26.840723    5564.4815 
   77000       76.987    355.26549    14.603091   -446.41438   -431.81129   -3706.3713   -5608.5175   -2195.7615   -3314.8349    15.472162    13.399223    26.840705    5564.4796 
   77500       77.487    323.29752    13.289056    -445.0831   -431.79404   -3863.9381   -6559.3852   -2873.8083   -2158.6209    15.472164    13.399225    26.840688    5564.4777 
   78000       77.987    366.63958    15.070619   -446.84908   -431.77846   -5293.0142   -9159.9132   -3102.6877   -3616.4417    15.472167    13.399228     26.84067    5564.4757 
   78500       78.487    363.64994    14.947731   -446.70961   -431.76188   -5514.2573   -9029.4935   -1828.7788   -5684.4996    15.472169     13.39923    26.840653    5564.4738 
   79000       78.987    328.69269    13.510823   -445.25519   -431.74436   -5750.0225   -6109.3523   -4589.4202    -6551.295    15.472171    13.399232    26.840635    5564.4719 
   79500       79.487    357.16095    14.681003   -446.40933   -431.72833   -4882.9045   -9805.8107   -2584.7752   -2258.1275    15.472174    13.399234    26.840618      5564.47 
   80000       79.987    354.52914    14.572823   -446.28446   -431.71164    -5485.343   -9500.1705   -1733.7069   -5222.1515    15.472176    13.399236      26.8406    5564.4681 
   80500       80.487    350.81325    14.420083   -446.11453   -431.69444   -5920.6437   -7724.2422   -6799.1633   -3238.5257    15.472178    13.399238    26.840583    5564.4662 
   81000       80.987    363.42844    14.938627   -446.61658   -431.67796   -5122.1103   -8003.1873   -2488.8029   -4874.3406    15.472181     13.39924    26.840565    5564.4643 
   81500       81.487    343.37755     14.11444   -445.77561   -431.66117   -5389.9328   -8167.6881    -1960.892   -6041.2182    15.472183    13.399242    26.840548    5564.4624 
   82000       81.987    339.32822    13.947993   -445.59226   -431.64426   -3107.5236   -6276.4544    -1151.197   -1894.9192    15.472185    13.399244     26.84053    5564.4605 
   82500       82.487    332.50176    13.667394   -445.29465   -431.62726   -4281.8335   -8022.6582   -1590.5554   -3232.2869    15.472188    13.399246    26.840513    5564.4585 
   83000       82.987    339.66785    13.961954   -445.57201   -431.61005   -4467.2865   -4563.0024   -5369.6078   -3469.2492     15.47219    13.399249    26.840495    5564.4566 
   83500       83.487    350.88962    14.423222   -446.01605   -431.59282   -4397.0084   -6351.3907   -3799.5257   -3040.1089    15.472192    13.399251    26.840478    5564.4547 
   84000       83.987    366.67359    15.072018   -446.64783   -431.57581   -5814.3389   -9928.9919   -4274.9431   -3239.0818    15.472195    13.399253     26.84046    5564.4528 
   84500       84.487     378.8278    15.571613   -447.13082   -431.55921   -5693.1646   -7363.9409   -4150.0084   -5565.5446    15.472197    13.399255    26.840443    5564.4509 
   85000       84.987    378.16326    15.544297   -447.08643   -431.54213   -5410.9184   -8662.5123   -2915.4796   -4654.7634    15.472199    13.399257    26.840425     5564.449 
   85500       85.487    340.37316    13.990945    -445.5143   -431.52335   -4454.3753   -6982.5534   -4637.1283   -1743.4442    15.472202    13.399259    26.840408    5564.4471 
   86000       85.987    361.92642    14.876886    -446.3836   -431.50671   -6315.5662   -7821.9839   -7467.5864   -3657.1283    15.472204    13.399261     26.84039    5564.4452 
   86500       86.487    351.38253    14.443483     -445.933   -431.48952   -4654.2388   -6062.5588    -2877.939   -5022.2186    15.472206    13.399263    26.840373    5564.4433 
   87000       86.987    343.07876    14.102159   -445.57318   -431.47102    -5048.075   -7305.7411    -4198.129   -3640.3549    15.472209    13.399265    26.840355    5564.4414 
   87500       87.487    353.27226     14.52116   -445.97417   -431.45301   -4987.7126   -6567.5242   -1654.2763   -6741.3373    15.472211    13.399267    26.840338    5564.4394 
   88000       87.987     347.4397    14.281414   -445.71681    -431.4354   -4164.0367   -7902.6286   -3468.5747   -1120.9066    15.472214     13.39927     26.84032    5564.4375 
   88500       88.487    358.28762    14.727314   -446.14438   -431.41706   -3996.0705   -6625.3892   -2363.6711   -2999.1512    15.472216    13.399272    26.840303    5564.4356 
   89000       88.987    357.12789    14.679644   -446.07891   -431.39927   -4736.6814   -6336.3748    -6080.308   -1793.3616    15.472218    13.399274    26.840285    5564.4337 
   89500       89.487    351.51801    14.449052   -445.82957   -431.38052   -4284.2485   -9036.3674   -1559.4323   -2256.9458    15.472221    13.399276    26.840268    5564.4318 
   90000       89.987     353.9695    14.549819   -445.91232    -431.3625   -4950.1642   -7718.4085   -1442.7772    -5689.307    15.472223    13.399278     26.84025    5564.4299 
   90500       90.487    361.35799    14.853521   -446.19836   -431.34484   -5017.6823   -4859.9271   -4496.4845   -5696.6351    15.472225     13.39928    26.840233     5564.428 
   91000       90.987    353.20454    14.518376   -445.84468    -431.3263   -4061.7653   -6430.0115   -4756.8222   -998.46212    15.472228    13.399282    26.840215    5564.4261 
   91500       91.487     341.6578     14.04375   -445.35092   -431.30717   -3953.5303    -3632.639   -3967.5417   -4260.4103     15.47223    13.399284    26.840198    5564.4242 
   92000       91.987    365.18798    15.010952   -446.30024   -431.28929   -4586.6412    -6713.914   -2563.5706   -4482.4391    15.472232    13.399286     26.84018    5564.4222 
   92500       92.487    346.01563    14.222878    -445.4936   -431.27072   -6068.6892   -8255.3745   -5512.3392   -4438.3539    15.472235    13.399288    26.840163    5564.4203 
   93000       92.987    348.55366    14.327203   -445.57823   -431.25103   -4600.9231   -9413.4388    -3522.111   -867.21944    15.472237    13.399291    26.840145    5564.4184 
   93500       93.487    380.76341    15.651176    -446.8837   -431.23253   -4968.1989   -4758.5624   -6577.3244     -3568.71    15.472239    13.399293    26.840128    5564.4165 
   94000       93.987    333.99183    13.728643   -444.94141   -431.21276    -3509.091   -7916.1839   -1529.6814   -1081.4076    15.472242    13.399295     26.84011    5564.4146 
   94500       94.487    344.78359    14.172235   -445.36657   -431.19434   -3119.8776   -4543.4232   -3268.1207   -1548.0889    15.472244    13.399297    26.840093    5564.4127 
   95000       94.987    345.36767    14.196243   -445.37149   -431.17525   -4227.9616   -8856.0562   -2481.8113   -1346.0173    15.472246    13.399299    26.840075    5564.4108 
   95500       95.487    378.11528    15.542325   -446.69867   -431.15635   -5894.5727   -7417.2548   -3677.0081   -6589.4552    15.472249    13.399301    26.840058    5564.4089 
   96000       95.987    340.07034    13.978498   -445.11431   -431.13581   -3023.9822   -4389.7173   -2389.3844   -2292.8449    15.472251    13.399303     26.84004     5564.407 
   96500       96.487    374.66686    15.400578   -446.51806   -431.11748   -3967.0228   -6641.1224   -3063.1649    -2196.781    15.472253    13.399305    26.840023     5564.405 
   97000       96.987    366.04025    15.045984   -446.14372   -431.09774   -5348.6878   -7188.6907   -4394.9785   -4462.3941    15.472256    13.399307    26.840005    5564.4031 
   97500       97.487    361.12311    14.843867   -445.92212   -431.07825   -5780.9138   -9635.4534   -5896.2566   -1811.0313    15.472258    13.399309    26.839988    5564.4012 
   98000       97.987    361.57976    14.862637   -445.92125   -431.05861   -4321.0099   -8020.8301   -5605.7588    663.55914    15.472261    13.399312     26.83997    5564.3993 
   98500       98.487    350.97775    14.426844   -445.46542   -431.03857   -4778.1898   -7920.9534   -1383.0005   -5030.6156    15.472263    13.399314    26.839953    5564.3974 
   99000       98.987    353.88711    14.546433   -445.56532   -431.01889   -4915.2333   -6276.7132   -3160.4294   -5308.5573    15.472265    13.399316    26.839935    5564.3955 
   99500       99.487    355.32552    14.605558    -445.6045   -430.99895   -5009.4188   -4545.4713   -4075.5647   -6407.2204    15.472268    13.399318    26.839918    5564.3936 
  100000       99.987    358.65481    14.742408   -445.72164   -430.97924    -4333.313   -6562.4842    -5032.572   -1404.8827     15.47227     13.39932      26.8399    5564.3917 
  100500      100.487    352.14916    14.474995   -445.43491   -430.95991    -4662.851   -4912.7145   -5745.9861   -3329.8524    15.472272    13.399322    26.839883    5564.3898 
  101000      100.987    352.86401    14.504378   -445.44415   -430.93977   -5538.7721   -7322.6496   -5061.8439   -4231.8228    15.472275    13.399324    26.839865    5564.3878 
  101500      101.487    348.75675    14.335551   -445.25507   -430.91952   -5030.9944   -9135.5784   -2838.3484   -3119.0562    15.472277    13.399326    26.839848    5564.3859 
  102000      101.987    364.49396    14.982424   -445.88196   -430.89954   -5696.7256   -7447.6903   -2893.2579   -6749.2285    15.472279    13.399328     26.83983     5564.384 
  102500      102.487     365.0624     15.00579   -445.88451   -430.87872   -5034.3445   -6679.7248   -4110.6685   -4312.6403    15.472282     13.39933    26.839813    5564.3821 
  103000      102.987    372.80555     15.32407   -446.18322   -430.85915   -5143.1751   -4516.8586   -4544.7308   -6367.9357    15.472284    13.399333    26.839795    5564.3802 
  103500      103.487    351.39429    14.443966   -445.28167    -430.8377   -4487.3637   -7631.8307   -519.17974   -5311.0807    15.472286    13.399335    26.839778    5564.3783 
  104000      103.987    366.41757    15.061494   -445.87898   -430.81749   -5398.5685   -7625.0312   -3256.5083    -5314.166    15.472289    13.399337     26.83976    5564.3764 
  104500      104.487    346.67633    14.250036   -445.04618   -430.79614   -4263.7739   -7261.6613   -1733.1671   -3796.4931    15.472291    13.399339    26.839743    5564.3745 
  105000      104.987    355.81016    14.625479   -445.40106   -430.77558   -4410.5298   -7232.8111   -667.16533   -5331.6128    15.472293    13.399341    26.839725    5564.3726 
  105500      105.487    341.68775    14.044982   -444.79966   -430.75467   -4130.8583   -7805.9414   -1812.1703   -2774.4631    15.472296    13.399343    26.839708    5564.3707 
  106000      105.987    375.63995    15.440577   -446.17474   -430.73416    -3973.815   -7618.0728   -2037.0096   -2266.3625    15.472298    13.399345     26.83969    5564.3687 
  106500      106.487    379.18475    15.586285   -446.29973   -430.71344   -5836.1608   -6398.9931    -5893.056   -5216.4332      15.4723    13.399347    26.839673    5564.3668 
  107000      106.987    351.80801    14.460972   -445.15327    -430.6923   -4296.8669   -8130.3191   -1724.1534   -3036.1283    15.472303    13.399349    26.839655    5564.3649 
  107500      107.487    357.59086    14.698675   -445.36955   -430.67088   -4255.1791   -6288.6026   -1240.1897   -5236.7451    15.472305    13.399351    26.839638     5564.363 
  108000      107.987    355.49535    14.612539   -445.26224    -430.6497   -4341.8801   -7969.2861   -2278.6859   -2777.6683    15.472308    13.399354     26.83962    5564.3611 
  108500      108.487    358.10298    14.719725   -445.34829   -430.62857   -3996.4822   -6614.0328   -2376.3162   -2999.0976     15.47231    13.399356    26.839603    5564.3592 
  109000      108.987    366.80276    15.077327   -445.68372   -430.60639   -4245.3603   -7487.8978   -2170.4585   -3077.7246    15.472312    13.399358    26.839585    5564.3573 
  109500      109.487    358.61733    14.740867   -445.32566   -430.58479   -6211.8995   -9410.4154   -6296.8472   -2928.4359    15.472315     13.39936    26.839568    5564.3554 
  110000      109.987    378.37657    15.553065   -446.11661   -430.56354   -4167.6117   -10274.281   -4524.6011    2296.0471    15.472317    13.399362     26.83955    5564.3535 
  110500      110.487    362.29255    14.891936   -445.43344   -430.54151   -3162.3809   -5304.3069   -1802.1838   -2380.6519    15.472319    13.399364    26.839533    5564.3515 
  111000      110.987    385.10713    15.829723   -446.34988   -430.52016   -5863.9834   -8024.2425   -4142.8124   -5424.8953    15.472322    13.399366    26.839515    5564.3496 
  111500      111.487    371.84946     15.28477    -445.7833   -430.49853   -3953.3882   -6563.6158   -3119.2216   -2177.3271    15.472324    13.399368    26.839498    5564.3477 
  112000      111.987    363.09746    14.925022   -445.40199   -430.47696    -3702.616   -6890.2874   -4804.8525    587.29188    15.472326     13.39937     26.83948    5564.3458 
  112500      112.487    378.28976    15.549497   -446.00595   -430.45645   -4722.4122   -7150.0595   -3475.9747   -3541.2025    15.472329    13.399372    26.839463    5564.3439 
  113000      112.987    367.37872    15.101002   -445.53512   -430.43412   -3754.8955   -8394.2272   -453.64392   -2416.8154    15.472331    13.399375    26.839445     5564.342 
  113500      113.487    371.88603    15.286273   -445.69863   -430.41236   -3241.2024   -5913.9463    -3371.216   -438.44483    15.472333    13.399377    26.839428    5564.3401 
  114000      113.987    372.66638    15.318349   -445.70821   -430.38986   -4293.1577   -7881.3106   -4307.0797   -691.08281    15.472336    13.399379     26.83941    5564.3382 
  114500      114.487    366.98247    15.084714    -445.4529   -430.36819   -3975.7726   -7647.1845   -3352.3844   -927.74891    15.472338    13.399381    26.839393    5564.3363 
  115000      114.987    364.12229    14.967147   -445.31346   -430.34631   -4671.3305    -7597.602   -5080.8586   -1335.5309     15.47234    13.399383    26.839375    5564.3343 
  115500      115.487    383.32558    15.756493   -446.08073   -430.32424    -4475.571   -4298.3769   -3656.6136   -5471.7224    15.472343    13.399385    26.839358    5564.3324 
  116000      115.987    366.38029    15.059962   -445.36196     -430.302   -4186.5943   -6628.8151   -1938.6867   -3992.2811    15.472345    13.399387     26.83934    5564.3305 
  116500      116.487    383.12196    15.748123   -446.02777   -430.27964   -4104.4775   -5476.5673   -6052.6272   -784.23812    15.472347    13.399389    26.839323    5564.3286 
  117000      116.987    376.22548    15.464645   -445.72241   -430.25777   -5102.7137   -11791.664   -1619.2648   -1897.2118     15.47235    13.399391    26.839305    5564.3267 
  117500      117.487    341.30516    14.029255   -444.26404   -430.23478   -3009.4332    -6992.974    1114.8778   -3150.2033    15.472352    13.399393    26.839288    5564.3248 
  118000      117.987    367.42891    15.103065   -445.31606     -430.213   -4322.4359   -5833.5835   -7256.5764    122.85218    15.472355    13.399396     26.83927    5564.3229 
  118500      118.487    360.78654    14.830032   -445.02025   -430.19022   -3843.2708    -6659.859   -3935.5728   -934.38043    15.472357    13.399398    26.839253     5564.321 
  119000      118.987    380.19626    15.627863   -445.79619   -430.16833   -5052.6797   -6999.4502   -6574.1648   -1584.4243    15.472359      13.3994    26.839235    5564.3191 
  119500      119.487    379.50271    15.599355   -445.74478   -430.14543   -4314.6173   -6609.8061   -3962.1439   -2371.9017    15.472362    13.399402    26.839218    5564.3171 
  120000      119.987    374.14295    15.379043   -445.50161   -430.12256   -5012.9005   -7386.7162   -3945.9119   -3706.0735    15.472364    13.399404      26.8392    5564.3152 
  120500      120.487    386.19775    15.874553   -445.97548   -430.10093   -4400.8844    -8969.092   -2103.9779   -2129.5832    15.472366    13.399406    26.839183    5564.3133 
  121000      120.987    374.91354    15.410719   -445.48925   -430.07854   -3769.1046   -6608.0098   -1105.2371   -3594.0669    15.472369    13.399408    26.839165    5564.3114 
  121500      121.487    379.42261    15.596062   -445.65149   -430.05543   -4272.9017    -9212.974   -2621.9377   -983.79351    15.472371     13.39941    26.839148    5564.3095 
  122000      121.987    383.16161    15.749753    -445.7828   -430.03304   -4501.7423   -9892.7103   -4121.9692    509.45264    15.472373    13.399412     26.83913    5564.3076 
  122500      122.487     377.4824    15.516311   -445.52676   -430.01045   -4397.3446   -8244.8242   -1470.1572   -3477.0524    15.472376    13.399414    26.839113    5564.3057 
  123000      122.987    369.73558     15.19788   -445.18549   -429.98762   -4784.5882   -7159.4185   -5148.2947   -2046.0514    15.472378    13.399417    26.839095    5564.3038 
  123500      123.487    358.03515    14.716937   -444.68099   -429.96406   -4510.5504   -6048.0379   -3281.1212   -4202.4921     15.47238    13.399419    26.839078    5564.3019 
  124000      123.987    381.82658    15.694877   -445.63663   -429.94175   -4192.7615   -10108.321   -1819.2615   -650.70173    15.472383    13.399421     26.83906    5564.2999 
  124500      124.487    379.48367    15.598572   -445.51708   -429.91851   -4125.8726    -4872.128   -4227.7734   -3277.7163    15.472385    13.399423    26.839043     5564.298 
  125000      124.987    391.47553    16.091495   -445.98702   -429.89552   -4007.8033   -7627.5775    -336.9937   -4058.8387    15.472387    13.399425    26.839025    5564.2961 
  125500      125.487      363.924    14.958996   -444.83106   -429.87207   -4545.6797   -5216.9612   -6748.4551   -1671.6228     15.47239    13.399427    26.839008    5564.2942 
  126000      125.987    360.79479    14.830371   -444.67908   -429.84871    -4113.692   -5675.1084   -4007.5721   -2658.3955    15.472392    13.399429     26.83899    5564.2923 
  126500      126.487    373.47807    15.351714   -445.17788   -429.82616   -4296.1544   -6524.2038   -1825.3197   -4538.9395    15.472394    13.399431    26.838973    5564.2904 
  127000      126.987    369.72098     15.19728    -444.9998   -429.80252   -4782.7224   -8128.8958   -5675.8269   -543.44457    15.472397    13.399433    26.838955    5564.2885 
  127500      127.487    384.35552    15.798828   -445.57845   -429.77962    -3230.916   -4755.0217   -5595.3608     657.6344    15.472399    13.399435    26.838938    5564.2866 
  128000      127.987    383.08915    15.746775    -445.5037   -429.75692   -4516.5992   -7108.2466   -4647.3532   -1794.1978    15.472402    13.399438     26.83892    5564.2847 
  128500      128.487     388.6131    15.973835   -445.70763   -429.73379   -4242.2269   -6648.4585   -1953.5479   -4124.6745    15.472404     13.39944    26.838903    5564.2827 
  129000      128.987    399.67973    16.428726   -446.13913   -429.71041   -5367.0511   -8198.5081    -4967.887   -2934.7582    15.472406    13.399442    26.838885    5564.2808 
  129500      129.487    379.48208    15.598507    -445.2861   -429.68759    -3579.417   -7412.0496   -1728.8262   -1597.3753    15.472409    13.399444    26.838868    5564.2789 
  130000      129.987    377.96874    15.536302   -445.20074   -429.66444   -3837.5041   -8559.6752   -3332.2986    379.46162    15.472411    13.399446     26.83885     5564.277 
  130500      130.487    378.59899    15.562208   -445.20333   -429.64112    -5121.968   -7386.2867   -3205.1063   -4774.5108    15.472413    13.399448    26.838833    5564.2751 
  131000      130.987    363.12224     14.92604   -444.54333   -429.61729   -4804.0718   -6750.2887    -3226.186   -4435.7408    15.472416     13.39945    26.838815    5564.2732 
  131500      131.487    406.86488    16.724069   -446.31848   -429.59441   -5207.7896   -6711.4056   -2898.7536   -6013.2096    15.472418    13.399452    26.838798    5564.2713 
  132000      131.987    380.34665    15.634045   -445.20475   -429.57071   -3969.0308   -5240.0391   -5181.5984   -1485.4548     15.47242    13.399454     26.83878    5564.2694 
  132500      132.487    397.42534     16.33606   -445.88346    -429.5474   -4450.4075   -8081.3761   -2622.2055   -2647.6408    15.472423    13.399456    26.838763    5564.2675 
  133000      132.987      392.123    16.118108   -445.64289   -429.52478    -4275.319   -5339.1272   -3685.5793   -3801.2503    15.472425    13.399459    26.838745    5564.2655 
  133500      133.487    352.74152    14.499344   -443.99984    -429.5005   -3466.5919   -7036.3418   -4201.0346    837.60053    15.472427    13.399461    26.838728    5564.2636 
  134000      133.987      391.415    16.089006   -445.56666   -429.47765   -2050.9842   -4063.5105   -874.31009    -1215.132     15.47243    13.399463     26.83871    5564.2617 
  134500      134.487    372.64414    15.317435   -444.77116   -429.45372   -3655.9559   -5941.8916    -2589.883   -2436.0933    15.472432    13.399465    26.838693    5564.2598 
  135000      134.987    362.95481    14.919158   -444.34896    -429.4298   -3886.1616   -5880.0278   -5274.8539   -503.60297    15.472434    13.399467    26.838675    5564.2579 
  135500      135.487    362.61439    14.905165   -444.31165   -429.40648   -3786.2559   -6144.2226   -4211.8312   -1002.7138    15.472437    13.399469    26.838658     5564.256 
  136000      135.987    382.81014    15.735306   -445.11828   -429.38297    -4242.705   -6181.9298   -3946.8101   -2599.3752    15.472439    13.399471     26.83864    5564.2541 
  136500      136.487    381.41994    15.678162    -445.0374   -429.35924   -3924.8226   -7912.2211   -3223.8591   -638.38743    15.472441    13.399473    26.838623    5564.2522 
  137000      136.987    392.81608    16.146597   -445.48257   -429.33598   -4325.4229   -7180.7756   -2532.1856   -3263.3074    15.472444    13.399475    26.838605    5564.2503 
  137500      137.487    392.83258    16.147276   -445.45922   -429.31194   -4343.6733   -6837.2668   -4536.5785   -1657.1747    15.472446    13.399477    26.838588    5564.2484 
  138000      137.987    379.52117    15.600114    -444.8882   -429.28809   -2694.1586   -5385.4321   -409.72203   -2287.3216    15.472449     13.39948     26.83857    5564.2464 
  138500      138.487    375.89312    15.450984   -444.71553   -429.26454    -4354.895   -9009.4413   -1731.4302   -2323.8136    15.472451    13.399482    26.838553    5564.2445 
  139000      138.987    381.24546     15.67099   -444.91152   -429.24053   -4674.8359   -6578.9923   -2801.2768   -4644.2386    15.472453    13.399484    26.838535    5564.2426 
  139500      139.487     369.5067    15.188472   -444.40457    -429.2161   -2484.6351   -6173.2593   -3054.3141    1773.6682    15.472456    13.399486    26.838518    5564.2407 
  140000      139.987    400.93249     16.48022    -445.6719   -429.19168   -4603.6516   -7654.3856   -3779.1193   -2377.4499    15.472458    13.399488      26.8385    5564.2388 
  140500      140.487    375.06781     15.41706   -444.58461   -429.16755   -3763.8704   -6235.4259   -1813.1072   -3243.0781     15.47246     13.39949    26.838483    5564.2369 
  141000      140.987    409.23245    16.821388   -445.96535   -429.14396   -5183.8035   -5843.5354   -2727.9675   -6979.9077    15.472463    13.399492    26.838465     5564.235 
  141500      141.487    385.77996     15.85738   -444.97681   -429.11943   -4444.8955   -7619.7649   -3227.7247   -2487.1969    15.472465    13.399494    26.838448    5564.2331 
  142000      141.987    386.60567     15.89132    -444.9863   -429.09498   -2724.3265   -6166.2398   -698.03725   -1308.7024    15.472467    13.399496     26.83843    5564.2312 
  142500      142.487    383.84095    15.777677   -444.84866   -429.07098   -3253.9202    -3658.969   -673.47019   -5429.3213     15.47247    13.399498    26.838413    5564.2292 
  143000      142.987     372.8403    15.325499   -444.37241   -429.04691   -3663.8992   -7791.5586    -4393.099    1192.9599    15.472472    13.399501    26.838395    5564.2273 
  143500      143.487    382.93227    15.740326   -444.76353    -429.0232   -3637.3065   -7624.9035   -2520.7574   -766.25866    15.472474    13.399503    26.838378    5564.2254 
  144000      143.987    369.74685    15.198343   -444.19728   -428.99893   -3314.8462   -7156.5458   -2234.8132   -553.17962    15.472477    13.399505     26.83836    5564.2235 
  144500      144.487     395.0585    16.238771   -445.21374   -428.97497   -3668.7453   -5445.0433   -2927.1306   -2634.0619    15.472479    13.399507    26.838343    5564.2216 
  145000      144.987    377.21577    15.505351    -444.4565   -428.95115   -3389.4316   -7828.6456   -1143.9473   -1195.7019    15.472481    13.399509    26.838325    5564.2197 
  145500      145.487    389.83373    16.024009   -444.95133   -428.92733   -2277.1965   -3374.7339   -3831.6413    374.78564    15.472484    13.399511    26.838308    5564.2178 
  146000      145.987    390.92719    16.068955   -444.97207   -428.90312   -3955.9521   -9838.1788   -1305.6779   -723.99961    15.472486    13.399513     26.83829    5564.2159 
  146500      146.487    384.87018    15.819983   -444.69859    -428.8786   -3583.0421   -6954.0211   -1435.2489   -2359.8562    15.472488    13.399515    26.838273     5564.214 
  147000      146.987    395.87781    16.272449   -445.12718   -428.85473   -4968.7669    -7441.324   -1996.1905   -5468.7862    15.472491    13.399517    26.838255     5564.212 
  147500      147.487    396.28907    16.289354   -445.11957   -428.83022   -4558.1672   -9149.7991   -2679.1447   -1845.5576    15.472493    13.399519    26.838238    5564.2101 
  148000      147.987    389.02945    15.990949   -444.79651   -428.80556   -3542.7199   -8814.8208   -28.653369   -1784.6855    15.472496    13.399522     26.83822    5564.2082 
  148500      148.487    402.50316    16.544782    -445.3259   -428.78112   -4883.4012   -6761.6797   -3289.6922   -4598.8318    15.472498    13.399524    26.838203    5564.2063 
  149000      148.987    403.43483    16.583078   -445.33998    -428.7569    -4382.537   -9534.8976   -2123.5304   -1489.1829      15.4725    13.399526    26.838185    5564.2044 
  149500      149.487    359.52746    14.778278    -443.5102   -428.73192   -1984.6279   -6094.8634    -152.4937    293.47342    15.472503    13.399528    26.838168    5564.2025 
  150000      149.987    399.64794    16.427419   -445.13601   -428.70859   -3069.9732   -7323.1288   -1536.2139   -350.57684    15.472505     13.39953     26.83815    5564.2006 
  150500      150.487    403.05417    16.567431    -445.2515   -428.68407    -3241.112   -6050.8731   -2392.8474   -1279.6153    15.472507    13.399532    26.838133    5564.1987 
  151000      150.987    394.29847    16.207531   -444.86605   -428.65852   -3896.0512   -6185.8575   -1974.4683   -3527.8278     15.47251    13.399534    26.838115    5564.1968 
  151500      151.487    412.40903     16.95196   -445.58666   -428.63469   -4186.4935   -8491.7228   -1370.5872   -2697.1705    15.472512    13.399536    26.838098    5564.1948 
  152000      151.987    390.39032    16.046887   -444.65749    -428.6106   -3124.0979   -4273.4899   -2035.7588   -3063.0448    15.472514    13.399538     26.83808    5564.1929 
  152500      152.487    364.00909    14.962494   -443.54817   -428.58568   -2894.9594   -6266.4643    894.50296   -3312.9167    15.472517     13.39954    26.838063     5564.191 
  153000      152.987    375.48552     15.43423   -443.99509   -428.56086   -3065.1209   -6168.6082   -1448.0065   -1578.7481    15.472519    13.399543    26.838045    5564.1891 
  153500      153.487    414.87008    17.053121    -445.5902   -428.53707   -4682.3233   -5612.5754   -5105.1486   -3329.2458    15.472521    13.399545    26.838028    5564.1872 
  154000      153.987    414.41828     17.03455   -445.54771   -428.51316   -4899.9219   -5965.8718   -2798.1886   -5935.7052    15.472524    13.399547     26.83801    5564.1853 
  154500      154.487    379.62881    15.604538   -444.09171   -428.48717   -3661.9065   -7420.9795   -2724.2263   -840.51369    15.472526    13.399549    26.837993    5564.1834 
  155000      154.987    395.10696    16.240763   -444.70413   -428.46336   -3889.7937   -5779.1458   -3498.3026   -2391.9327    15.472528    13.399551    26.837975    5564.1815 
  155500      155.487    387.35555    15.922144    -444.3606   -428.43846    -3873.125   -5791.4699   -3791.8339   -2036.0711    15.472531    13.399553    26.837958    5564.1796 
  156000      155.987    396.28677    16.289259   -444.70333   -428.41407   -3149.5434   -5275.5872   -1165.6261   -3007.4169    15.472533    13.399555     26.83794    5564.1776 
  156500      156.487    404.78096     16.63841   -445.02817   -428.38976   -3724.5518   -7511.0767   -179.13189   -3483.4468    15.472535    13.399557    26.837923    5564.1757 
  157000      156.987     388.5805    15.972495   -444.33729    -428.3648   -3282.1108   -4489.6035   -2033.6486   -3323.0803    15.472538    13.399559    26.837905    5564.1738 
  157500      157.487    404.18446    16.613891   -444.95416   -428.34027   -4388.8734   -9984.0314   -135.47867   -3047.1101     15.47254    13.399561    26.837888    5564.1719 
  158000      157.987    374.84649    15.407962   -443.72313   -428.31517   -2981.0472   -7155.1654   -1217.9678   -570.00857    15.472543    13.399564     26.83787      5564.17 
  158500      158.487     387.9482    15.946504   -444.23716   -428.29066   -2719.3039   -4573.0426   -2778.5815   -806.28748    15.472545    13.399566    26.837853    5564.1681 
  159000      158.987    401.85904    16.518306    -444.7843     -428.266   -4490.0482   -8619.1107   -2127.2095   -2723.8243    15.472547    13.399568    26.837835    5564.1662 
  159500      159.487    372.19704    15.299057   -443.54011   -428.24106     -3592.44   -5303.2567   -2679.4973   -2794.5659     15.47255     13.39957    26.837818    5564.1643 
  160000      159.987     399.2869    16.412579   -444.62936   -428.21678   -4245.4455    -6300.028   -3026.1363   -3410.1722    15.472552    13.399572      26.8378    5564.1624 
  160500      160.487    420.62682     17.28975   -445.48122   -428.19147   -3021.8643   -4026.3372   -1661.3339   -3377.9219    15.472554    13.399574    26.837783    5564.1604 
  161000      160.987    402.15562    16.530496   -444.69711   -428.16662   -3193.2538   -4429.1781   -2239.5721   -2911.0113    15.472557    13.399576    26.837765    5564.1585 
  161500      161.487    409.77097    16.843524   -444.98562    -428.1421   -3105.9395   -5249.4731   -951.75879   -3116.5866    15.472559    13.399578    26.837748    5564.1566 
  162000      161.987    392.91523    16.150673   -444.26767     -428.117   -3486.6259   -4451.8655   -3747.3546   -2260.6577    15.472561     13.39958     26.83773    5564.1547 
  162500      162.487    428.75257    17.623757   -445.71588   -428.09212   -4085.5502   -4293.4636   -5886.2251   -2076.9619    15.472564    13.399582    26.837713    5564.1528 
  163000      162.987      390.608    16.055835   -444.12275   -428.06692   -4333.5895   -6486.3762   -2743.7177   -3770.6746    15.472566    13.399585    26.837695    5564.1509 
  163500      163.487    385.14469    15.831267   -443.87336   -428.04209   -2966.4578   -5942.0108   -2126.6408   -830.72189    15.472568    13.399587    26.837678     5564.149 
  164000      163.987    406.12713    16.693745   -444.71127   -428.01752   -3846.2591   -6119.6352   -4559.9793    -859.1629    15.472571    13.399589     26.83766    5564.1471 
  164500      164.487     381.2251    15.670153   -443.66207   -427.99191   -3029.6044   -8309.9998    1754.1011   -2532.9145    15.472573    13.399591    26.837643    5564.1452 
  165000      164.987    400.08242    16.445278   -444.41254   -427.96726   -3413.1714   -6868.7061    1058.4066   -4429.2147    15.472575    13.399593    26.837625    5564.1432 
  165500      165.487    395.48371     16.25625   -444.19918   -427.94293   -2801.6749    -6216.643   -3051.4059    863.02416    15.472578    13.399595    26.837608    5564.1413 
  166000      165.987    394.67231    16.222897   -444.13969   -427.91679   -2468.9117   -1234.3006   -1903.7292   -4268.7054     15.47258    13.399597     26.83759    5564.1394 
  166500      166.487    377.38344    15.512243   -443.40321   -427.89096   -2916.6288   -6034.7968   -750.34281   -1964.7468    15.472582    13.399599    26.837573    5564.1375 
  167000      166.987    397.28232    16.330181   -444.19631   -427.86613   -3144.6052   -4806.5148    -2497.412   -2129.8888    15.472585    13.399601    26.837555    5564.1356 
  167500      167.487    393.08174    16.157517   -443.99862    -427.8411    -2889.199   -6499.6468   -22.900276   -2145.0499    15.472587    13.399603    26.837538    5564.1337 
  168000      167.987    406.79435     16.72117   -444.53624   -427.81507   -3952.1398   -9389.1487   -1138.6551   -1328.6157     15.47259    13.399606     26.83752    5564.1318 
  168500      168.487    397.21892    16.327575   -444.11689   -427.78932   -3171.3624   -4753.3155   -1572.8929   -3187.8787    15.472592    13.399608    26.837503    5564.1299 
  169000      168.987    405.59009    16.671669   -444.43662   -427.76495     -3894.96   -7904.2532   -19.168244   -3761.4586    15.472594     13.39961    26.837485     5564.128 
  169500      169.487    397.98225    16.358951   -444.09793   -427.73898   -3525.7521   -5142.0566   -3152.1276   -2283.0722    15.472597    13.399612    26.837468     5564.126 
  170000      169.987    404.66084    16.633473   -444.34738    -427.7139   -3091.2152   -7609.8596    193.78369   -1857.5698    15.472599    13.399614     26.83745    5564.1241 
  170500      170.487    374.35118    15.387603   -443.07591   -427.68831   -2194.6561   -6506.4465    1231.9513   -1309.4732    15.472601    13.399616    26.837433    5564.1222 
  171000      170.987    379.33034     15.59227   -443.25631   -427.66404   -2753.4739   -4606.7767   -2935.3297   -718.31542    15.472604    13.399618    26.837415    5564.1203 
  171500      171.487    396.18063    16.284896   -443.92418   -427.63928   -3402.6419   -6022.4975    1626.0966   -5811.5248    15.472606     13.39962    26.837398    5564.1184 
  172000      171.987      419.836    17.257244   -444.87244   -427.61519   -4539.7948   -8270.7695   -573.66219   -4774.9527    15.472608    13.399622     26.83738    5564.1165 
  172500      172.487    403.29768    16.577441   -444.16708   -427.58964   -2695.7937    -3694.736    -3261.126    -1131.519    15.472611    13.399624    26.837363    5564.1146 
  173000      172.987    385.60851    15.850332   -443.41353    -427.5632   -2061.5078    -4516.948   -1799.3923      131.817    15.472613    13.399627    26.837345    5564.1127 
  173500      173.487    404.41872    16.623521   -444.16171   -427.53819   -2869.5433   -3591.3397   -4665.2972   -351.99282    15.472615    13.399629    26.837328    5564.1108 
  174000      173.987    402.34539    16.538297   -444.05113   -427.51283   -3662.9501     -5369.86   -1212.1885   -4406.8018    15.472618    13.399631     26.83731    5564.1088 
  174500      174.487    395.04556     16.23824    -443.7237   -427.48546   -2991.5184   -4634.4165   -1955.7242   -2384.4145     15.47262    13.399633    26.837293    5564.1069 
  175000      174.987    405.91805     16.68515   -444.14733   -427.46218   -2068.6251   -2074.4199   -2186.4032   -1945.0523    15.472622    13.399635    26.837275     5564.105 
  175500      175.487    394.23769    16.205032   -443.64094   -427.43591   -2325.8288   -4373.0978   -3830.9001    1226.5115    15.472625    13.399637    26.837258    5564.1031 
  176000      175.987    403.26372    16.576045   -443.98694    -427.4109    -2584.393   -6278.1817   -2672.7269    1197.7294    15.472627    13.399639     26.83724    5564.1012 
  176500      176.487    395.92232    16.274278   -443.65927   -427.38499   -3444.8344   -4372.1923   -865.32134   -5096.9894    15.472629    13.399641    26.837223    5564.0993 
  177000      176.987    418.72167     17.21144   -444.57148   -427.36004    -3084.505   -3745.1292    -2606.394   -2901.9918    15.472632    13.399643    26.837205    5564.0974 
  177500      177.487    413.08301    16.979664   -444.31387   -427.33421   -3170.7568   -6644.2236   -2124.5305   -743.51618    15.472634    13.399645    26.837188    5564.0955 
  178000      177.987    421.11575    17.309848   -444.61747   -427.30762   -2877.1986   -6853.0413   -1076.8351   -701.71948    15.472637    13.399648     26.83717    5564.0936 
  178500      178.487     424.3565    17.443058   -444.72601   -427.28295   -3416.3122   -5927.7992   -2972.4272   -1348.7102    15.472639     13.39965    26.837153    5564.0916 
  179000      178.987    413.84388    17.010939   -444.26833    -427.2574   -3822.4928   -7665.2025   -93.186983    -3709.089    15.472641    13.399652    26.837135    5564.0897 
  179500      179.487      405.827    16.681408   -443.91253   -427.23112   -2343.1656   -3930.7851   -2454.5439   -644.16768    15.472644    13.399654    26.837118    5564.0878 
  180000      179.987    411.76017    16.925289   -444.13141   -427.20612   -3013.6256   -7296.1365   -1174.1535   -570.58681    15.472646    13.399656      26.8371    5564.0859 
  180500      180.487    404.60706    16.631262   -443.81134   -427.18007   -3049.1708   -6680.5066   -1595.6357   -871.36996    15.472648    13.399658    26.837083     5564.084 
  181000      180.987    429.75215    17.664845   -444.81876   -427.15392   -3469.3886   -4959.5047    -1708.863   -3739.7981    15.472651     13.39966    26.837065    5564.0821 
  181500      181.487    419.13722    17.228521   -444.35611   -427.12759   -3198.4426   -6850.2318   -789.66223   -1955.4337    15.472653    13.399662    26.837048    5564.0802 
  182000      181.987    406.05213    16.690661   -443.79241   -427.10174    -2296.249    -7372.872   -2255.9154    2740.0403    15.472655    13.399664     26.83703    5564.0783 
  182500      182.487    419.20254    17.231205   -444.30681    -427.0756   -2320.6079   -5705.8165   -752.57123     -503.436    15.472658    13.399666    26.837013    5564.0764 
  183000      182.987    416.90445    17.136743   -444.18588   -427.04914   -2290.4495   -5623.1169    1193.0933    -2441.325     15.47266    13.399669    26.836995    5564.0744 
  183500      183.487     402.2686     16.53514   -443.55752   -427.02238   -2842.5806   -7138.4008   -2519.7467    1130.4056    15.472662    13.399671    26.836978    5564.0725 
  184000      183.987    421.94077     17.34376   -444.34028   -426.99652   -2016.9187   -6438.1193   -1085.6604    1473.0236    15.472665    13.399673     26.83696    5564.0706 
  184500      184.487    411.86651     16.92966   -443.90067   -426.97101   -1649.3879   -3917.5714    406.00585   -1436.5981    15.472667    13.399675    26.836943    5564.0687 
  185000      184.987    421.71958    17.334668    -444.2803   -426.94563   -3492.3595   -5000.8326   -3224.7861   -2251.4598    15.472669    13.399677    26.836925    5564.0668 
  185500      185.487     407.4497    16.748108   -443.66815   -426.92004   -3355.6114   -5399.1684   -4449.4785   -218.18742    15.472672    13.399679    26.836908    5564.0649 
  186000      185.987    391.87156    16.107773   -443.00074   -426.89296   -1507.5111   -6297.3446    -822.8921    2597.7035    15.472674    13.399681     26.83689     5564.063 
  186500      186.487     386.9001    15.903423   -442.77116   -426.86774   -2369.8583   -6752.6479    404.60265   -761.52961    15.472676    13.399683    26.836873    5564.0611 
  187000      186.987     398.2377    16.369452   -443.20919   -426.83974   -1723.2244   -5119.8117   -1479.0468    1429.1853    15.472679    13.399685    26.836855    5564.0592 
  187500      187.487    410.10361    16.857197   -443.67094   -426.81374   -2834.7939   -5869.6209   -2406.1513   -228.60965    15.472681    13.399687    26.836838    5564.0572 
  188000      187.987    422.27801    17.357622   -444.14587   -426.78825   -3712.9639   -7939.0253   -323.95958   -2875.9067    15.472684     13.39969     26.83682    5564.0553 
  188500      188.487    405.36997    16.662622   -443.42399   -426.76137    -1992.969   -7919.8885   -1781.7783    3722.7598    15.472686    13.399692    26.836803    5564.0534 
  189000      188.987    420.77676    17.295913   -444.03109   -426.73518   -2808.0844   -2176.3534   -3914.6925   -2333.2073    15.472688    13.399694    26.836785    5564.0515 
  189500      189.487    445.87041    18.327381    -445.0372   -426.70982    -3137.569   -7341.6092   -180.66185   -1890.4358    15.472691    13.399696    26.836768    5564.0496 
  190000      189.987     430.3256    17.688416   -444.37088   -426.68247    -3230.896   -5615.9021   -2129.1431   -1947.6427    15.472693    13.399698     26.83675    5564.0477 
  190500      190.487    395.60734    16.261332   -442.91738   -426.65605   -2401.2168   -7017.2458   -4109.6546    3923.2499    15.472695      13.3997    26.836733    5564.0458 
  191000      190.987    399.89671    16.437645   -443.06717   -426.62953   -2419.9999    -4248.465   -1227.8529   -1783.6817    15.472698    13.399702    26.836715    5564.0439 
  191500      191.487    414.58081     17.04123   -443.64517   -426.60394   -2889.8214   -6970.6084   -1111.6555   -587.20048      15.4727    13.399704    26.836698     5564.042 
  192000      191.987    439.53557    18.066989   -444.64601   -426.57902   -3119.1874   -5211.1385     -998.893   -3147.5306    15.472702    13.399706     26.83668      5564.04 
  192500      192.487    431.26971    17.727223   -444.27905   -426.55183   -2790.6317   -3660.6792   -2858.7315   -1852.4843    15.472705    13.399708    26.836663    5564.0381 
  193000      192.987    416.40925    17.116388   -443.64131   -426.52493   -2633.8118   -6292.5254   -3371.0058    1762.0957    15.472707    13.399711    26.836645    5564.0362 
  193500      193.487    425.62955    17.495386   -443.99465   -426.49926   -2118.2157    -4775.897   -2925.9344    1347.1844    15.472709    13.399713    26.836628    5564.0343 
  194000      193.987    420.32989    17.277545   -443.75107   -426.47353   -1474.4382   -5894.0524   -2191.8425    3662.5803    15.472712    13.399715     26.83661    5564.0324 
  194500      194.487    426.03119    17.511895   -443.95833   -426.44643   -2954.2614   -6151.9118   -2684.1885   -26.684074    15.472714    13.399717    26.836593    5564.0305 
  195000      194.987    414.45838    17.036198   -443.45612   -426.41992   -2261.9727    -6034.007   -3543.5334    2791.6225    15.472716    13.399719    26.836575    5564.0286 
  195500      195.487    417.66347    17.167943   -443.56059   -426.39265   -2407.1846   -3373.5401   -1158.4002   -2689.6136    15.472719    13.399721    26.836558    5564.0267 
  196000      195.987     422.4377    17.364186   -443.73036   -426.36618   -3129.2877   -7214.9679    -462.5923   -1710.3029    15.472721    13.399723     26.83654    5564.0248 
  196500      196.487    410.26928    16.864006   -443.20327   -426.33926   -2175.1557   -6141.5807   -2170.2307    1786.3444    15.472723    13.399725    26.836523    5564.0228 
  197000      196.987     407.8632    16.765105   -443.07699   -426.31188   -982.93324   -4400.4405   -1807.7277    3259.3685    15.472726    13.399727    26.836505    5564.0209 
  197500      197.487    429.19568    17.641971   -443.92843   -426.28646   -3203.1925   -5821.9138    -2342.268   -1445.3956    15.472728    13.399729    26.836488     5564.019 
  198000      197.987    408.94206    16.809451   -443.06954   -426.26009   -1827.4449   -8501.6817    1477.5928    1541.7541    15.472731    13.399732     26.83647    5564.0171 
  198500      198.487    424.57803    17.452164   -443.68484   -426.23267   -2493.2802   -5203.8113    522.53131   -2798.5605    15.472733    13.399734    26.836453    5564.0152 
  199000      198.987    430.49415    17.695344   -443.90176   -426.20641   -3848.0361    -5699.353   -3164.2822   -2680.4732    15.472735    13.399736    26.836435    5564.0133 
  199500      199.487    428.19559    17.600863   -443.78086      -426.18   -2667.3294   -3650.0549   -2962.0392   -1389.8942    15.472738    13.399738    26.836418    5564.0114 
  200000      199.987    424.10977    17.432916   -443.58591   -426.15299   -2214.5404   -7265.7987   -664.00086    1286.1783     15.47274     13.39974      26.8364    5564.0095 
  200500      200.487    426.60613    17.535528   -443.66393    -426.1284   -3427.1306   -4858.1947   -2658.9439   -2764.2532    15.472742    13.399742    26.836383    5564.0076 
  201000      200.987    430.82886    17.709102   -443.81026   -426.10116   -2885.9556   -4492.3837   -606.24939   -3559.2338    15.472745    13.399744    26.836365    5564.0056 
  201500      201.487    432.06548    17.759933    -443.8341   -426.07416   -2873.4665   -5346.7161   -1125.8094    -2147.874    15.472747    13.399746    26.836348    5564.0037 
  202000      201.987     442.9995    18.209373   -444.25752   -426.04815    -1833.444    -3379.884    -849.6065   -1270.8416    15.472749    13.399748     26.83633    5564.0018 
  202500      202.487    429.78991    17.666396   -443.68725   -426.02086   -2752.0464   -4639.0903   -2299.8873   -1317.1615    15.472752     13.39975    26.836313    5563.9999 
  203000      202.987    446.86394     18.36822   -444.36159   -425.99337   -2497.6796   -6184.8313   -5370.3758    4062.1683    15.472754    13.399753    26.836295     5563.998 
  203500      203.487    435.60791    17.905544   -443.87246   -425.96691   -1585.5314   -5355.9482   -1336.3329    1935.6868    15.472756    13.399755    26.836278    5563.9961 
  204000      203.987    425.49768    17.489966   -443.42983   -425.93987   -1642.4239   -2739.6804   -1090.8294   -1096.7619    15.472759    13.399757     26.83626    5563.9942 
  204500      204.487    430.00448    17.675216   -443.58793   -425.91271   -1360.7115   -7310.5098   -1080.7594    4309.1347    15.472761    13.399759    26.836243    5563.9923 
  205000      204.987    417.85752    17.175919   -443.06192     -425.886   -2501.2369   -5021.9677   -2912.7083     430.9652    15.472763    13.399761    26.836225    5563.9903 
  205500      205.487    418.93245    17.220104   -443.07987   -425.85977   -2605.6275   -6163.0669    1293.4015   -2947.2172    15.472766    13.399763    26.836208    5563.9884 
  206000      205.987    429.38736     17.64985   -443.48253   -425.83268   -2392.8045   -5358.6146   -437.70555   -1382.0934    15.472768    13.399765     26.83619    5563.9865 
  206500      206.487    426.68764    17.538879   -443.34525   -425.80637   -2833.2231   -6376.6562   -3365.4112    1242.3981     15.47277    13.399767    26.836173    5563.9846 
  207000      206.987    450.20705    18.505638   -444.28491   -425.77927   -2535.2754   -5256.6558   -47.976021   -2301.1944    15.472773    13.399769    26.836155    5563.9827 
  207500      207.487    439.02458    18.045985   -443.79854   -425.75255   -1744.3737   -4430.9999    1448.4085   -2250.5295    15.472775    13.399771    26.836138    5563.9808 
  208000      207.987    426.50907    17.531538   -443.25661   -425.72507   -3949.9938   -3341.8414   -5051.6332   -3456.5069    15.472778    13.399774     26.83612    5563.9789 
  208500      208.487    451.23873    18.548044   -444.24597   -425.69793   -2799.9243   -3716.2078   -2496.4558   -2187.1095     15.47278    13.399776    26.836103     5563.977 
  209000      208.987    434.33327     17.85315   -443.52381   -425.67066    -2502.808   -5667.0741   -701.27018   -1140.0797    15.472782    13.399778    26.836085    5563.9751 
  209500      209.487    420.75557    17.295042   -442.93836   -425.64331   -1217.0087   -1559.3341   -3779.7284    1688.0366    15.472785     13.39978    26.836068    5563.9731 
  210000      209.987     441.9149    18.164791   -443.78149    -425.6167   -3044.0693   -9169.6525    2365.2803   -2327.8358    15.472787    13.399782     26.83605    5563.9712 
  210500      210.487    431.23502    17.725797    -443.3146    -425.5888   -3213.4994   -8343.4742   -271.51988   -1025.5042    15.472789    13.399784    26.836033    5563.9693 
  211000      210.987    439.32254    18.058233   -443.62102   -425.56278   -1605.7615   -3128.4037    704.34836   -2393.2292    15.472792    13.399786    26.836015    5563.9674 
  211500      211.487    435.13611    17.886151   -443.42127   -425.53512   -1396.9267   -4748.5434    1448.6812   -890.91778    15.472794    13.399788    26.835998    5563.9655 
  212000      211.987    425.44793    17.487921   -442.99524   -425.50732   -1515.1302   -4059.5837   -435.35706   -50.450003    15.472796     13.39979     26.83598    5563.9636 
[...]
  948500      948.487    561.12771    23.065001   -437.53291   -414.46791    4558.7413   -1081.2776    4830.4878    9927.0136    15.476258    13.402884    26.810203    5561.1461 
  949000      948.987    572.26152    23.522653   -437.98718   -414.46452     642.7326   -4668.0853    1932.1153    4664.1678     15.47626    13.402886    26.810185    5561.1442 
  949500      949.487    552.05924    22.692244   -437.15396   -414.46172    2666.4258   -3877.8041    3473.9338    8403.1478    15.476263    13.402888    26.810168    5561.1423 
  950000      949.987    560.48619    23.038631   -437.49787   -414.45924     2623.022   -4390.3675    2199.0063    10060.427    15.476265     13.40289     26.81015    5561.1404 
  950500      950.487    537.79097    22.105751   -436.56154   -414.45579     3394.446   -821.32339    2585.9284    8418.7328    15.476267    13.402892    26.810133    5561.1385 
  951000      950.987    545.77212    22.433814   -436.88673   -414.45292     1996.957     2585.386     2390.902     1014.583     15.47627    13.402894    26.810115    5561.1366 
  951500      951.487    558.86904    22.972159    -437.4216   -414.44944    4208.0876   -804.95807    3193.2275    10235.993    15.476272    13.402896    26.810098    5561.1346 
  952000      951.987    608.59699    25.016212   -439.46245   -414.44623      2396.75   -2644.7938    3327.2137    6507.8299    15.476274    13.402898     26.81008    5561.1327 
  952500      952.487    587.07447    24.131535   -438.57396   -414.44242    2766.2301   -4368.6652    2828.1103    9839.2453    15.476277      13.4029    26.810063    5561.1308 
  953000      952.987    616.37012    25.335725   -439.77308   -414.43736    2460.7458    -4192.274    4391.6017    7182.9096    15.476279    13.402903    26.810045    5561.1289 
  953500      953.487    581.60442     23.90669   -438.33898   -414.43229    1786.8141   -1918.6119    5964.6839    1314.3703    15.476281    13.402905    26.810028     5561.127 
  954000      953.987    543.30558    22.332427   -436.75802   -414.42559    3007.2924   -1247.5352    1785.9415     8483.471    15.476284    13.402907     26.81001    5561.1251 
  954500      954.487     579.6312    23.825582   -438.24935   -414.42377    3750.0231    1046.9998   -169.31399    10372.384    15.476286    13.402909    26.809993    5561.1232 
  955000      954.987    566.93241    23.303601   -437.72199   -414.41839    2538.3173    3.7356829    3200.5163    4410.6998    15.476288    13.402911    26.809975    5561.1212 
  955500      955.487     607.3648    24.965564    -439.3808   -414.41523     2889.625   -2534.3769     1844.214    9359.0378    15.476291    13.402913    26.809958    5561.1193 
  956000      955.987    574.35158    23.608564   -438.01892   -414.41035    4197.0895   -1996.4499    3267.0004    11320.718    15.476293    13.402915     26.80994    5561.1174 
  956500      956.487     568.9905    23.388199   -437.79557   -414.40737    2811.7925   -3326.8324    3867.7026    7894.5072    15.476295    13.402917    26.809923    5561.1155 
  957000      956.987    606.59105    24.933759   -439.33762   -414.40386    2440.3634   -2586.3152      115.002    9792.4033    15.476298    13.402919    26.809905    5561.1136 
  957500      957.487    536.02883    22.033318   -436.43097   -414.39765    4244.4738    2182.2844    6393.9558    4157.1813      15.4763    13.402921    26.809888    5561.1117 
  958000      957.987    575.81776    23.668831   -438.06204   -414.39321    3927.6899    -779.3767    3526.2562    9036.1902    15.476303    13.402924     26.80987    5561.1098 
  958500      958.487    549.97454    22.606553   -436.99462   -414.38807    3016.3026     413.7608    1950.5631    6684.5841    15.476305    13.402926    26.809853    5561.1078 
  959000      958.987    593.57576    24.398769   -438.78538   -414.38661    1494.7585   -2949.9879    2203.9023    5230.3611    15.476307    13.402928    26.809835    5561.1059 
  959500      959.487    580.52561    23.862346   -438.24287   -414.38052    3812.7831   -1704.8498    4095.3161     9047.883     15.47631     13.40293    26.809818     5561.104 
  960000      959.987    545.52939    22.423836    -436.7994   -414.37556    4806.1104   -4055.3996    3535.3709     14938.36    15.476312    13.402932      26.8098    5561.1021 
  960500      960.487    575.23685    23.644953   -438.01507   -414.37012    3545.3557     172.5495    2110.8248    8352.6927    15.476314    13.402934    26.809783    5561.1002 
  961000      960.987    552.39965    22.706236   -437.07246   -414.36622    3329.4496   -2005.2046    1275.2894    10718.264    15.476317    13.402936    26.809765    5561.0983 
  961500      961.487    603.56846    24.809516   -439.16981   -414.36029    2163.4618   -580.84553    1518.0322    5553.1988    15.476319    13.402938    26.809748    5561.0964 
  962000      961.987    551.51171    22.669738   -437.02355   -414.35382    2595.1632   -5051.4983    4237.1411    8599.8466    15.476321     13.40294     26.80973    5561.0944 
  962500      962.487    568.18288    23.355002   -437.70503   -414.35003    3853.6376   -1439.9895    3059.8683    9941.0339    15.476324    13.402942    26.809713    5561.0925 
  963000      962.987    574.65529    23.621048   -437.96576   -414.34471    4580.1337       271.38    2029.1092    11439.912    15.476326    13.402945    26.809695    5561.0906 
  963500      963.487    605.42383    24.885781   -439.22617   -414.34039    1656.4674   -3915.8791     2608.865    6276.4164    15.476328    13.402947    26.809678    5561.0887 
  964000      963.987    537.67756    22.101089   -436.43441   -414.33332    2974.3767    -3809.939    1232.1964    11500.873    15.476331    13.402949     26.80966    5561.0868 
  964500      964.487    555.91711    22.850821   -437.17898   -414.32816    2412.8958   -6426.1463    947.59061    12717.243    15.476333    13.402951    26.809643    5561.0849 
  965000      964.987    550.09856    22.611651   -436.93486   -414.32321    5074.3865    1514.9086    4294.8303    9413.4206    15.476335    13.402953    26.809625     5561.083 
  965500      965.487    540.47765    22.216186   -436.53006   -414.31388    4389.4221     396.6819    4943.7979    7827.7865    15.476338    13.402955    26.809608     5561.081 
  966000      965.987     569.8441    23.423286   -437.73381   -414.31052    4550.4649    3463.1885    4739.8142     5448.392     15.47634    13.402957     26.80959    5561.0791 
  966500      966.487    547.74986    22.515108     -436.819   -414.30389    4735.7656    1715.6051     2477.845    10013.847    15.476342    13.402959    26.809573    5561.0772 
  967000      966.987    536.63511    22.058239   -436.35508   -414.29684    3917.5795    1302.8549    4805.1388    5644.7449    15.476345    13.402961    26.809555    5561.0753 
  967500      967.487    577.95555    23.756705   -438.04977   -414.29307    3558.5248    450.79184    4437.1872    5787.5953    15.476347    13.402963    26.809538    5561.0734 
  968000      967.987    575.17086    23.642241   -437.92982   -414.28758    3069.3656    813.34693    3038.3858     5356.364     15.47635    13.402966     26.80952    5561.0715 
  968500      968.487    578.90622    23.795782   -438.07763   -414.28185    2442.6774   -2215.0936     2578.479    6964.6467    15.476352    13.402968    26.809503    5561.0696 
  969000      968.987    567.21215      23.3151   -437.59233   -414.27723    2427.8719   -1870.5808    219.89867    8934.2979    15.476354     13.40297    26.809485    5561.0676 
  969500      969.487    594.59638    24.440721   -438.71437   -414.27365    3269.9909   -1719.4277    3401.2948    8128.1054    15.476357    13.402972    26.809468    5561.0657 
  970000      969.987    569.54448     23.41097   -437.67771   -414.26674    3403.0313   -2875.4307    6345.3035     6739.221    15.476359    13.402974     26.80945    5561.0638 
  970500      970.487    575.82732    23.669224   -437.92909   -414.25987    2111.3275   -414.01267    866.14945    5881.8457    15.476361    13.402976    26.809433    5561.0619 
  971000      970.987    570.11143    23.434274   -437.68889   -414.25461    2894.5425   -1693.7013    5460.2794    4917.0493    15.476364    13.402978    26.809415      5561.06 
  971500      971.487    571.83855    23.505267   -437.75332   -414.24805    2586.5096    1756.5183    3421.2742    2581.7362    15.476366     13.40298    26.809398    5561.0581 
  972000      971.987    580.90803    23.878066   -438.12023   -414.24217    2780.9992   -2497.3717    2617.6837    8222.6858    15.476368    13.402982     26.80938    5561.0562 
  972500      972.487    564.74779    23.213803   -437.44892   -414.23512    2319.9497   -4556.0191    5824.3001    5691.5681    15.476371    13.402984    26.809363    5561.0542 
  973000      972.987     557.6029    22.920114   -437.14969   -414.22958    4063.8538   -949.62532    1897.9405    11243.246    15.476373    13.402987    26.809345    5561.0523 
  973500      973.487    549.14037    22.572265   -436.79422   -414.22196    2932.1089   -4621.6444    6643.9647    6774.0063    15.476375    13.402989    26.809328    5561.0504 
  974000      973.987     562.7404     23.13129   -437.34836   -414.21707    4862.3751    1601.0191    1245.2882    11740.818    15.476378    13.402991     26.80931    5561.0485 
  974500      974.487    594.07958    24.419478   -438.63056   -414.21108    2430.8299   -4273.1381    1740.7895    9824.8384     15.47638    13.402993    26.809293    5561.0466 
  975000      974.987    590.45564    24.270517     -438.476   -414.20549    4179.7219    1190.9403    4169.4558    7178.7697    15.476382    13.402995    26.809275    5561.0447 
  975500      975.487     565.1313    23.229567   -437.42753   -414.19796    3448.5788   -2310.5634    4547.6448     8108.655    15.476385    13.402997    26.809258    5561.0428 
  976000      975.987    575.71097    23.664442   -437.85672   -414.19227    3167.5146   -1246.4086     4673.156    6075.7963    15.476387    13.402999     26.80924    5561.0408 
  976500      976.487    590.58939    24.276015   -438.46138   -414.18536     2768.229     231.9932    2611.1136    5461.5801    15.476389    13.403001    26.809223    5561.0389 
  977000      976.987    576.31489    23.689266   -437.86744   -414.17818    2277.6971    -2599.804     552.4952    8880.4002    15.476392    13.403003    26.809205     5561.037 
  977500      977.487    572.11889     23.51679    -437.6883   -414.17151    3583.4372   -1805.5536    5113.5377    7442.3276    15.476394    13.403005    26.809188    5561.0351 
  978000      977.987    563.92812    23.180111    -437.3448   -414.16469    3439.5828   -995.82765    3358.3154    7956.2606    15.476397    13.403008     26.80917    5561.0332 
  978500      978.487    564.36321    23.197995   -437.35462   -414.15663    3386.7002   -1884.6747    6211.4918    5833.2835    15.476399     13.40301    26.809153    5561.0313 
  979000      978.987    574.34245    23.608189   -437.75834   -414.15015    3637.2562   -1159.0648    3200.9445     8869.889    15.476401    13.403012    26.809135    5561.0294 
  979500      979.487     575.9822     23.67559   -437.81718   -414.14159    3248.6351   -1562.5582    532.16459    10776.299    15.476404    13.403014    26.809118    5561.0274 
  980000      979.987    589.40907    24.227499   -438.36354   -414.13604    2807.1384   -3844.7237    2083.1558    10182.983    15.476406    13.403016      26.8091    5561.0255 
  980500      980.487    571.84889    23.505692   -437.63374   -414.12804    3526.3478     596.5335    3279.3504    6703.1595    15.476408    13.403018    26.809083    5561.0236 
  981000      980.987    603.09625    24.790106   -438.91076   -414.12065    2913.9701   -4975.5252    4259.3358    9458.0997    15.476411     13.40302    26.809065    5561.0217 
  981500      981.487    553.55522    22.753736   -436.86578   -414.11205     3435.334   -4176.6797    4575.0404    9907.6412    15.476413    13.403022    26.809048    5561.0198 
  982000      981.987    628.03318    25.815132   -439.92027   -414.10513    2800.5589   -3167.7503    2325.9098    9243.5174    15.476415    13.403024     26.80903    5561.0179 
  982500      982.487    559.07473    22.980614   -437.07708   -414.09646    3897.4093   -4401.1426    5040.3742    11052.996    15.476418    13.403026    26.809013     5561.016 
  983000      982.987     559.5891    23.001757      -437.09   -414.08824     3349.751    1827.3811    3542.4035    4679.4685     15.47642    13.403029    26.808995     5561.014 
  983500      983.487    555.09501    22.817029    -436.8976   -414.08057    3422.7538   -2375.1317    2897.1067    9746.2865    15.476422    13.403031    26.808978    5561.0121 
  984000      983.987     582.4468    23.941316    -438.0132   -414.07189     3347.229   -2320.6285    2372.2744     9990.041    15.476425    13.403033     26.80896    5561.0102 
  984500      984.487    561.77971    23.091801   -437.15411   -414.06231    2822.9514   -5420.4764    3366.9876    10522.343    15.476427    13.403035    26.808943    5561.0083 
  985000      984.987    565.52859    23.245898   -437.30017   -414.05428    2915.9335    777.65194     228.7022    7741.4464    15.476429    13.403037    26.808925    5561.0064 
  985500      985.487     579.2889    23.811512   -437.86018   -414.04867    1490.8019   -5341.5944    2212.9293    7601.0707    15.476432    13.403039    26.808908    5561.0045 
  986000      985.987    551.09626    22.652661   -436.69144   -414.03878    3573.9174   -503.60853    3876.1839    7349.1768    15.476434    13.403041     26.80889    5561.0026 
  986500      986.487    543.39941    22.336284   -436.36904   -414.03276    4435.8739    706.13018    7842.7825    4758.7091    15.476436    13.403043    26.808873    5561.0006 
  987000      986.987    590.63713    24.277977   -438.30491   -414.02693    1186.9653    -4353.699     4745.206     3169.389    15.476439    13.403045    26.808855    5560.9987 
  987500      987.487    580.74633    23.871419   -437.89172   -414.02031    3131.6647   -3012.5488    6230.2458    6177.2972    15.476441    13.403047    26.808838    5560.9968 
  988000      987.987    561.95513    23.099012   -437.11134   -414.01233    3700.8065   -2158.4518    5665.0654    7595.8058    15.476444     13.40305     26.80882    5560.9949 
  988500      988.487    544.54397    22.383331   -436.38753    -414.0042    4362.6648   -523.54162    6118.3672    7493.1689    15.476446    13.403052    26.808803     5560.993 
  989000      988.987    577.72126    23.747074   -437.74183   -413.99475    2179.5263   -5121.7297    3056.2029    8604.1056    15.476448    13.403054    26.808785    5560.9911 
  989500      989.487    589.30696    24.223301   -438.21068   -413.98738    2865.9649   -2766.7935    1280.2248    10084.463    15.476451    13.403056    26.808768    5560.9892 
  990000      989.987    587.43354    24.146295   -438.12514   -413.97885    3106.3426   -1418.2564    4398.0816    6339.2026    15.476453    13.403058     26.80875    5560.9872 
  990500      990.487    576.75423    23.707325   -437.67722   -413.96989     3008.294   -4081.6431    6454.1265    6652.3986    15.476455     13.40306    26.808733    5560.9853 
  991000      990.987    558.27217    22.947625   -436.90788   -413.96025    2000.4135   -723.86106    1565.4458    5159.6556    15.476458    13.403062    26.808715    5560.9834 
  991500      991.487    562.36741    23.115958   -437.06591   -413.94995    3049.4375   -996.44333    1928.7093    8216.0465     15.47646    13.403064    26.808698    5560.9815 
  992000      991.987    580.79858    23.873567   -437.81556     -413.942    4066.0152   -1114.8699    4239.8252    9073.0904    15.476462    13.403066     26.80868    5560.9796 
  992500      992.487    562.11274     23.10549   -437.03865   -413.93316    4610.4244    2608.5024    1564.4317    9658.3389    15.476465    13.403068    26.808663    5560.9777 
  993000      992.987    568.24131    23.357404   -437.28194   -413.92454    3981.0278   -279.08922    4225.2772    7996.8954    15.476467    13.403071    26.808645    5560.9758 
  993500      993.487    592.16258    24.340681   -438.25741   -413.91673    3520.6653    5.3935342   -482.49491    11039.097    15.476469    13.403073    26.808628    5560.9738 
  994000      993.987     578.4677    23.777756   -437.68549   -413.90773    1678.4962   -4001.2358    3746.1411    5290.5835    15.476472    13.403075     26.80861    5560.9719 
  994500      994.487    549.89471    22.603272   -436.50275   -413.89948    4286.2728    3689.0488    2802.3784    6367.3912    15.476474    13.403077    26.808593      5560.97 
  995000      994.987    557.22322    22.904508   -436.79548   -413.89097    5282.9811     1247.886    4591.9403    10009.117    15.476476    13.403079    26.808575    5560.9681 
  995500      995.487    615.78295    25.311589    -439.1944   -413.88281     2599.456   -2042.3277    1022.4025    8818.2932    15.476479    13.403081    26.808558    5560.9662 
  996000      995.987    605.50376    24.889066   -438.76144   -413.87238    2250.6915   -762.56145    448.14945    7066.4865    15.476481    13.403083     26.80854    5560.9643 
  996500      996.487    569.82406    23.422462   -437.28395   -413.86149    4047.9295   -338.73637    4369.6722    8112.8527    15.476483    13.403085    26.808523    5560.9624 
  997000      996.987    544.64195    22.387358   -436.23793   -413.85057    2811.0949      -2499.4    4139.6213    6793.0635    15.476486    13.403087    26.808505    5560.9604 
  997500      997.487    581.76759    23.913397   -437.75504   -413.84165    4125.7631    1788.6245    5392.2026    5196.4621    15.476488    13.403089    26.808488    5560.9585 
  998000      997.987    589.11796    24.215532    -438.0486   -413.83307    2406.2069    565.14358   -921.32431    7574.8013    15.476491    13.403092     26.80847    5560.9566 
  998500      998.487    590.72768      24.2817   -438.10504   -413.82334    3666.9298    51.076404    3837.9349    7111.7782    15.476493    13.403094    26.808453    5560.9547 
  999000      998.987    564.14515    23.189032   -437.00232   -413.81329    3225.9291    1981.6344    5211.1775    2484.9754    15.476495    13.403096    26.808435    5560.9528 
  999500      999.487    574.81923    23.627787   -437.43137   -413.80359    3641.8973   -805.22123    1652.7175    10078.196    15.476498    13.403098    26.808418    5560.9509 
 1000000      999.987    572.50117    23.532504   -437.32762   -413.79511    3149.6434   -1452.7908    2833.9238    8067.7972      15.4765      13.4031      26.8084     5560.949 
 1000013         1000    524.26915     21.54994   -435.34221   -413.79227     4289.296   -1694.9517    4800.4236    9762.4161      15.4765      13.4031      26.8084    5560.9489 
Loop time of 914.6 on 28 procs for 1000000 steps with 319 atoms

Performance: 94.467 ns/day, 0.254 hours/ns, 1093.374 timesteps/s
87.3% CPU use with 28 MPI tasks x no OpenMP threads

MPI task timing breakdown:
Section |  min time  |  avg time  |  max time  |%varavg| %total
---------------------------------------------------------------
Pair    | 744.49     | 793.89     | 826.77     |  78.5 | 86.80
Neigh   | 0.011975   | 0.01926    | 0.025484   |   2.4 |  0.00
Comm    | 77.221     | 108.62     | 156.57     | 205.1 | 11.88
Output  | 0.099891   | 0.1024     | 0.12594    |   1.4 |  0.01
Modify  | 4.7941     | 6.8409     | 9.6201     |  53.8 |  0.75
Other   |            | 5.126      |            |       |  0.56

Nlocal:    11.3929 ave 15 max 6 min
Histogram: 1 1 4 1 3 4 4 3 1 6
Nghost:    646.714 ave 679 max 593 min
Histogram: 3 1 0 2 1 1 6 5 7 2
Neighs:    714.786 ave 998 max 384 min
Histogram: 2 4 0 2 5 3 3 3 2 4
FullNghs:  1429.57 ave 1921 max 763 min
Histogram: 2 2 2 1 4 3 4 3 1 6

Total # of neighbors = 40028
Ave neighs/atom = 125.48
Neighbor list builds = 286
Dangerous builds = 0

write_restart   POSCAR_1x1x1.rest

#unfix    1
#undump   1
Total wall time: 0:15:14
