LAMMPS (7 Dec 2015)
#----------- Initialize Simulation ------------ restart01
#processors	2 2 2
units		metal
boundary	p p p     ## periodic boundary condition  on x y z axis ##
atom_style atomic
#atom_modify map array sort 0 0.0

read_data	POSCAR_1x1x1.lammps
  triclinic box = (0 0 0) to (15.3148 13.263 27.998) with tilt (-7.6573 0 0)
  2 by 2 by 7 MPI processor grid
  reading atoms ...
  319 atoms

#----------- Define Potential -----------------
pair_style meam
pair_coeff * * MgAlZn.library.meam Mg Al Zn MgAlZn.parameter.meam Mg Al Zn 	#1=Mg 2=Al 3=Zn	#atoms/mass

#----------- Neighbor List --------------------
neighbor 2.0 bin
neigh_modify delay 10 check yes

#--------------  Run a simulation (minimization) ---------------------------------------
minimize       1.0e-4   1.0e-6   100   1000          #結構優化的條件
WARNING: Resetting reneighboring criteria during minimization (../min.cpp:168)
Neighbor list info ...
  2 neighbor list requests
  update every 1 steps, delay 0 steps, check yes
  max neighbors/atom: 2000, page size: 100000
  master list distance cutoff = 8
  ghost atom cutoff = 8
  binsize = 4 -> bins = 6 4 7
Memory usage per processor = 8.65527 Mbytes
Step Temp E_pair E_mol TotEng Press 
       0            0    -432.2684            0    -432.2684   -5914.5788 
      13            0   -454.30292            0   -454.30292    -22688.81 
Loop time of 0.0204 on 28 procs for 13 steps with 319 atoms

85.1% CPU use with 28 MPI tasks x no OpenMP threads

Minimization stats:
  Stopping criterion = energy tolerance
  Energy initial, next-to-last, final = 
        -432.268401109     -454.271065544     -454.302922087
  Force two-norm initial, final = 19.3724 0.724716
  Force max component initial, final = 2.45683 0.163591
  Final line search alpha, max atom move = 0.296143 0.0484463
  Iterations, force evaluations = 13 22

MPI task timing breakdown:
Section |  min time  |  avg time  |  max time  |%varavg| %total
---------------------------------------------------------------
Pair    | 0.016297   | 0.017395   | 0.018287   |   0.4 | 85.27
Neigh   | 0          | 0          | 0          |   0.0 |  0.00
Comm    | 0.0012567  | 0.0021002  | 0.0031739  |   1.0 | 10.30
Output  | 0          | 0          | 0          |   0.0 |  0.00
Modify  | 0          | 0          | 0          |   0.0 |  0.00
Other   |            | 0.0009049  |            |       |  4.44

Nlocal:    11.3929 ave 17 max 5 min
Histogram: 1 1 1 4 3 8 6 0 2 2
Nghost:    650.214 ave 695 max 595 min
Histogram: 3 3 2 0 4 4 0 3 4 5
Neighs:    699.286 ave 1066 max 285 min
Histogram: 1 0 2 4 5 6 5 1 2 2
FullNghs:  1398.57 ave 2142 max 603 min
Histogram: 1 1 1 4 6 5 6 1 2 1

Total # of neighbors = 39160
Ave neighs/atom = 122.759
Neighbor list builds = 0
Dangerous builds = 0
velocity all  create 600.0 4928459 #rot yes dist gaussian

#--------------  Run a simulation (Relaxation)  ----------------------------------------
fix  1  all  nvt   temp  600.0  600.0  100				#damping constant
#fix  2  all  npt   temp  393.0  393.0  50 iso 0.0 0.0 1000.0
fix  2  all deform 1 x final 0 15.3195 y final 0 13.2671 z final 0 27.963 xy final -7.65965 units lattice
#fix  3  all  npt   temp  393.0  393.0  50 z 0.0 0.0 1000.0

#variable b equal 1
#fix 2 all efield  0.0  0.0  v_b
#compute pot all pe/atom


#----------- Output --------------------------
thermo	 500
timestep  0.001		#1.0 fs
thermo_style	custom step time temp ke pe etotal press pxx pyy pzz lx ly lz vol

dump 1 all custom 10000 dump.eq id type x y z
dump_modify 1 sort  id

run        1000000	#1000 ps
Neighbor list info ...
  2 neighbor list requests
  update every 1 steps, delay 10 steps, check yes
  max neighbors/atom: 2000, page size: 100000
  master list distance cutoff = 8
  ghost atom cutoff = 8
  binsize = 4 -> bins = 6 4 7
Memory usage per processor = 7.56441 Mbytes
Step Time Temp KinEng PotEng TotEng Press Pxx Pyy Pzz Lx Ly Lz Volume 
      13            0          600    24.662836   -454.30292   -429.64009   -18056.667    -4913.077   -11556.246   -37700.678      15.3148       13.263       27.998    5686.9591 
     500        0.487    324.59865    13.342538   -442.97861   -429.63607    -10192.24    2530.5737   -2181.7056   -30925.589    15.314802    13.263002    27.997983    5686.9574 
    1000        0.987    301.73952     12.40292    -442.0386   -429.63568   -11452.242    1744.3144   -4145.9013    -31955.14    15.314805    13.263004    27.997965    5686.9556 
    1500        1.487    318.54081    13.093533   -442.72833    -429.6348   -12257.998    1033.3748   -2303.1163   -35504.251    15.314807    13.263006    27.997948    5686.9538 
    2000        1.987    322.64568    13.262262   -442.89637   -429.63411   -11387.068   -653.03748    -2333.527   -31174.639    15.314809    13.263008     27.99793     5686.952 
    2500        2.487    317.87703    13.066248   -442.69892   -429.63267   -10258.475    906.63677   -2767.1529   -28914.908    15.314812     13.26301    27.997913    5686.9502 
    3000        2.987    311.67506    12.811318   -442.44272    -429.6314   -11621.084    979.98621   -3656.2535   -32186.986    15.314814    13.263012    27.997895    5686.9484 
    3500        3.487    315.54431    12.970363    -442.5998   -429.62943   -11806.006    1301.1004   -1960.2963   -34758.822    15.314816    13.263014    27.997878    5686.9466 
    4000        3.987    321.17946    13.201994   -442.82939    -429.6274     -11778.2    626.78808    -3096.745   -32864.644    15.314819    13.263016     27.99786    5686.9448 
    4500        4.487    313.71176    12.895036   -442.51976   -429.62473   -11706.838    3013.4221   -4753.6832   -33380.252    15.314821    13.263018    27.997843     5686.943 
    5000        4.987     325.8845    13.395393   -443.01714   -429.62174   -11608.446    2372.3575   -3704.3053   -33493.391    15.314823     13.26302    27.997825    5686.9412 
    5500        5.487    324.96192    13.357471   -442.97656   -429.61909   -11993.598    1225.5906   -2613.7779   -34592.607    15.314826    13.263022    27.997808    5686.9394 
    6000        5.987    316.93744    13.027627   -442.64283    -429.6152    -11234.12    1130.6922   -4492.0748   -30340.977    15.314828    13.263025     27.99779    5686.9376 
    6500        6.487    317.08964    13.033883   -442.64546   -429.61158   -12154.237    938.70601   -3756.2136   -33645.205     15.31483    13.263027    27.997773    5686.9358 
    7000        6.987    308.52395    12.681793   -442.28911   -429.60732   -11674.203     854.7683   -2135.4401   -33741.938    15.314833    13.263029    27.997755     5686.934 
    7500        7.487     293.2011    12.051951   -441.65453   -429.60258   -10162.204    2928.9921   -2783.1575   -30632.447    15.314835    13.263031    27.997738    5686.9321 
    8000        7.987    322.64185    13.262105   -442.86046   -429.59836   -11607.034    564.78119   -3390.2276   -31995.655    15.314838    13.263033     27.99772    5686.9303 
    8500        8.487    315.29918    12.960287   -442.55319   -429.59291   -12153.938    3535.1071   -2780.5745   -37216.347     15.31484    13.263035    27.997703    5686.9285 
    9000        8.987    313.49144     12.88598   -442.47387   -429.58789   -11725.111    3341.0333   -5224.2732   -33292.094    15.314842    13.263037    27.997685    5686.9267 
    9500        9.487    330.47933    13.584262   -443.16697    -429.5827   -11651.877    1509.9874   -8075.4377   -28390.181    15.314845    13.263039    27.997668    5686.9249 
   10000        9.987    313.46434    12.884866   -442.46138   -429.57651   -11593.896    1322.7528   -4376.0754   -31728.366    15.314847    13.263041     27.99765    5686.9231 
   10500       10.487    315.94143    12.986686   -442.55673   -429.57005   -11035.642    1521.5432   -1573.0327   -33055.437    15.314849    13.263043    27.997633    5686.9213 
   11000       10.987    314.28469    12.918586   -442.48188    -429.5633   -11503.565    3158.1207   -5767.9327   -31900.884    15.314852    13.263045    27.997615    5686.9195 
   11500       11.487    289.53633    11.901312   -441.45723   -429.55592   -10105.138    3314.4085    -2522.961   -31106.862    15.314854    13.263047    27.997598    5686.9177 
   12000       11.987     329.5388    13.545602   -443.09517   -429.54957   -12001.705    4108.4183   -5137.2796   -34976.254    15.314856    13.263049     27.99758    5686.9159 
   12500       12.487    309.12656    12.706563   -442.24861   -429.54205   -11902.825    2280.8738   -4745.5389   -33243.809    15.314859    13.263051    27.997563    5686.9141 
   13000       12.987    307.35326    12.633672   -442.16814   -429.53447   -11087.759    2329.0812   -5469.2321   -30123.125    15.314861    13.263053    27.997545    5686.9123 
   13500       13.487    314.13911    12.912602   -442.43936   -429.52675   -11280.479    568.96578   -4068.7142   -30341.689    15.314863    13.263055    27.997528    5686.9105 
   14000       13.987    333.25159    13.698215   -443.21661   -429.51839   -11955.029    1391.9261   -4768.5172   -32488.496    15.314866    13.263057     27.99751    5686.9087 
   14500       14.487    319.99004    13.153103   -442.66274   -429.50964   -11619.729    1802.0398   -2915.3869   -33745.839    15.314868    13.263059    27.997493    5686.9069 
   15000       14.987    304.15178    12.502076   -442.00243   -429.50035   -11431.878    1618.6343   -3396.7105   -32517.558     15.31487    13.263061    27.997475    5686.9051 
   15500       15.487    328.15934      13.4889   -442.98028   -429.49138    -11146.17    1298.2393   -2547.3483   -32189.401    15.314873    13.263063    27.997458    5686.9033 
   16000       15.987     301.3441    12.386667   -441.86837   -429.48171   -11263.562    500.47459   -2710.1549   -31581.006    15.314875    13.263066     27.99744    5686.9015 
   16500       16.487    304.51409    12.516968   -441.98846   -429.47149   -10756.845    2456.9774   -2522.1387   -32205.375    15.314877    13.263068    27.997423    5686.8997 
   17000       16.987     328.2467    13.492491   -442.95422   -429.46173   -12137.925    381.35142   -4541.5323   -32253.595     15.31488     13.26307    27.997405    5686.8979 
   17500       17.487    336.62168    13.836742    -443.2881   -429.45135   -11931.448    2709.2453   -4190.5999   -34312.988    15.314882    13.263072    27.997388    5686.8961 
   18000       17.987    310.04577    12.744346   -442.18491   -429.44056   -10549.838    3208.5192   -3055.7939    -31802.24    15.314885    13.263074     27.99737    5686.8943 
   18500       18.487    322.26525    13.246625   -442.67615   -429.42953   -10774.419    3194.5608   -1623.5037   -33894.315    15.314887    13.263076    27.997353    5686.8925 
   19000       18.987    310.12301    12.747521   -442.16496   -429.41744    -10788.58    1969.4433   -4392.4735   -29942.711    15.314889    13.263078    27.997335    5686.8907 
   19500       19.487    322.19801    13.243861   -442.64963   -429.40577   -11112.815    2123.8017   -3412.4148   -32049.832    15.314892     13.26308    27.997318    5686.8889 
   20000       19.987    320.87297    13.189396   -442.58383   -429.39443   -11522.621    650.39896   -2960.5659   -32257.697    15.314894    13.263082      27.9973    5686.8871 
   20500       20.487    323.54304    13.299148   -442.68137   -429.38223   -11695.385    1762.9286    -2223.056   -34626.029    15.314896    13.263084    27.997283    5686.8853 
   21000       20.987    317.80239     13.06318   -442.43249   -429.36931   -11124.982    2063.0054   -1411.3983   -34026.554    15.314899    13.263086    27.997265    5686.8835 
   21500       21.487    301.97778    12.412714   -441.76869   -429.35597   -9975.2409    4051.0962   -3572.4723   -30404.347    15.314901    13.263088    27.997248    5686.8817 
   22000       21.987     341.1582    14.023214   -443.36648   -429.34327   -11932.041    2185.0376   -4424.8859   -33556.276    15.314903     13.26309     27.99723    5686.8799 
   22500       22.487    312.56847    12.848041   -442.17757   -429.32953   -11680.542     2492.065   -2888.1515    -34645.54    15.314906    13.263092    27.997213    5686.8781 
   23000       22.987    310.34272    12.756552   -442.07222   -429.31567   -12095.772    37.791881    -2937.628   -33387.479    15.314908    13.263094    27.997195    5686.8763 
   23500       23.487    338.68558    13.921578   -443.22349   -429.30191   -11279.701    2243.1533   -5099.3723   -30982.884     15.31491    13.263096    27.997178    5686.8745 
   24000       23.987    304.43397    12.513675   -441.80099   -429.28732   -11693.599    2973.5524   -5580.1284   -32474.222    15.314913    13.263098     27.99716    5686.8726 
   24500       24.487    319.43814    13.130417   -442.40339   -429.27297   -11076.914    1624.5803   -3157.9192   -31697.402    15.314915      13.2631    27.997143    5686.8708 
   25000       24.987    329.51853    13.544769   -442.80308   -429.25831   -11389.155    1929.8165   -3981.2718    -32116.01    15.314917    13.263102    27.997125     5686.869 
   25500       25.487    343.23225    14.108468   -443.35163   -429.24316   -11803.471    1874.3412   -3982.5654   -33302.187     15.31492    13.263104    27.997108    5686.8672 
   26000       25.987    316.23608    12.998798   -442.22617   -429.22738   -9862.8612    3147.4347   -842.28961   -31893.729    15.314922    13.263107     27.99709    5686.8654 
   26500       26.487    316.91944    13.026887   -442.23888   -429.21199   -11680.358    670.22836   -4365.4067   -31345.894    15.314924    13.263109    27.997073    5686.8636 
   27000       26.987    329.84639    13.558246   -442.75455   -429.19631    -10762.38     1747.349   -2219.9896     -31814.5    15.314927    13.263111    27.997055    5686.8618 
   27500       27.487     319.1288    13.117702   -442.29763   -429.17993   -10474.986    4007.6134   -3043.1766   -32389.395    15.314929    13.263113    27.997038      5686.86 
   28000       27.987    322.78541    13.268006   -442.43186   -429.16385   -10559.698    1757.4062   -1895.0618   -31541.439    15.314932    13.263115     27.99702    5686.8582 
   28500       28.487    327.05893    13.443668   -442.59119   -429.14752    -11930.84    2007.3678   -3395.5516   -34404.336    15.314934    13.263117    27.997003    5686.8564 
   29000       28.987    325.10688    13.363429   -442.49386   -429.13043     -11939.2    3690.2152   -4188.1995   -35319.617    15.314936    13.263119    27.996985    5686.8546 
   29500       29.487    312.09169    12.828443   -441.94216   -429.11372   -10690.149    3325.8384   -2173.6554   -33222.631    15.314939    13.263121    27.996968    5686.8528 
   30000       29.987    316.98394    13.029538   -442.12649   -429.09695   -10915.944    3124.8878   -2513.3958   -33359.323    15.314941    13.263123     27.99695     5686.851 
   30500       30.487    314.03603    12.908365   -441.98808   -429.07971   -10784.601     2225.508   -4165.3541   -30413.956    15.314943    13.263125    27.996933    5686.8492 
   31000       30.987     332.0701    13.649651    -442.7121   -429.06245   -11653.036    1458.7434    -3812.106   -32605.745    15.314946    13.263127    27.996915    5686.8474 
   31500       31.487    337.31441    13.865217   -442.91018   -429.04496   -11616.757    4176.6632   -2313.8684   -36713.066    15.314948    13.263129    27.996898    5686.8456 
   32000       31.987    320.35125     13.16795   -442.19497   -429.02702   -11594.661     1778.751   -4234.3359   -32328.399     15.31495    13.263131     27.99688    5686.8438 
   32500       32.487    332.41593    13.663866   -442.67316    -429.0093   -11133.466    176.01659   -2347.5322   -31228.883    15.314953    13.263133    27.996863     5686.842 
   33000       32.987    321.74844    13.225381    -442.2164   -428.99102   -11016.212      792.578   -3012.7271   -30828.486    15.314955    13.263135    27.996845    5686.8402 
   33500       33.487    314.83285    12.941118   -441.91399   -428.97288    -11900.89    836.88649    -3821.445   -32718.112    15.314957    13.263137    27.996828    5686.8384 
   34000       33.987    328.97216     13.52231   -442.47713   -428.95482   -12373.317    1845.9777   -3551.8723   -35414.057     15.31496    13.263139     27.99681    5686.8366 
   34500       34.487    320.18208    13.160997   -442.09695   -428.93595   -10348.372     109.4921   -2545.2167   -28609.392    15.314962    13.263141    27.996793    5686.8348 
   35000       34.987    350.78982     14.41912   -443.33712     -428.918   -11583.162    3915.1297   -3657.0835   -35007.533    15.314964    13.263143    27.996775     5686.833 
   35500       35.487    339.87751    13.970572   -442.87017    -428.8996   -10508.558    3199.0852   -4795.7801   -29928.979    15.314967    13.263145    27.996758    5686.8312 
   36000       35.987    336.47487    13.830707   -442.71169   -428.88098   -11523.812    2715.2688   -2256.1517   -35030.552    15.314969    13.263148     27.99674    5686.8294 
   36500       36.487    308.16383     12.66699   -441.52891   -428.86192   -10660.967    1941.4099   -2486.7771   -31437.533    15.314971     13.26315    27.996723    5686.8276 
   37000       36.987    335.95644    13.809397   -442.65309    -428.8437   -11073.419    2620.8659   -4816.1989   -31024.925    15.314974    13.263152    27.996705    5686.8258 
   37500       37.487     325.3957    13.375301   -442.19985   -428.82455   -11251.945    1852.2292   -3397.1966   -32210.868    15.314976    13.263154    27.996688     5686.824 
   38000       37.987    319.92879    13.150585   -441.95644   -428.80585   -11380.052     3107.707    -3249.334   -33998.528    15.314979    13.263156     27.99667    5686.8222 
   38500       38.487    326.35241    13.414626    -442.2009   -428.78628   -11008.875     2708.839   -4177.9425    -31557.52    15.314981    13.263158    27.996653    5686.8204 
   39000       38.987     327.8978    13.478149   -442.24534   -428.76719   -9808.7647    3857.2471   -3312.0915    -29971.45    15.314983     13.26316    27.996635    5686.8186 
   39500       39.487    324.33319    13.331627   -442.07992   -428.74829   -11085.794    2573.4728   -4943.2749   -30887.581    15.314986    13.263162    27.996618    5686.8168 
   40000       39.987    310.80006    12.775351    -441.5047   -428.72935   -9344.3366    3248.3889   -1162.9824   -30118.416    15.314988    13.263164      27.9966     5686.815 
   40500       40.487    339.13924    13.940225    -442.6506   -428.71038   -10205.513    3507.4243   -4072.3698   -30051.595     15.31499    13.263166    27.996583    5686.8131 
   41000       40.987    314.32209    12.920123   -441.61094   -428.69082   -10509.388    2451.6184    -1143.129   -32836.653    15.314993    13.263168    27.996565    5686.8113 
   41500       41.487     345.5127    14.202205   -442.87419   -428.67198   -12031.824    1684.6597   -2658.5875   -35121.545    15.314995     13.26317    27.996548    5686.8095 
   42000       41.987    336.71463    13.840563   -442.49339   -428.65283   -11101.202    2631.1559   -1317.3802   -34617.383    15.314997    13.263172     27.99653    5686.8077 
   42500       42.487    345.38402    14.196915   -442.83056   -428.63365   -12196.561    3167.2986   -2833.1492   -36923.833       15.315    13.263174    27.996513    5686.8059 
   43000       42.987    340.44868     13.99405   -442.60884   -428.61479   -11449.188    3568.7026   -4623.3541   -33292.912    15.315002    13.263176    27.996495    5686.8041 
   43500       43.487    324.02439    13.318934   -441.91425   -428.59531   -11202.491     1111.483   -2815.7054   -31903.252    15.315004    13.263178    27.996478    5686.8023 
   44000       43.987    323.87223    13.312679   -441.88933   -428.57665   -11001.294    3212.3725   -2417.1328   -33799.121    15.315007     13.26318     27.99646    5686.8005 
   44500       44.487    327.19232    13.449151   -442.00713   -428.55798   -11107.979    3534.5608   -3310.4508   -33548.046    15.315009    13.263182    27.996443    5686.7987 
   45000       44.987    319.17204    13.119479   -441.65827   -428.53879   -10352.189    6603.4511    -4312.276   -33347.743    15.315011    13.263184    27.996425    5686.7969 
   45500       45.487    336.64026    13.837506   -442.35777   -428.52027   -11208.879    1778.0764   -2113.8296   -33290.884    15.315014    13.263186    27.996408    5686.7951 
   46000       45.987    330.33835    13.578468   -442.07986    -428.5014     -10429.6    1283.4441     -178.515   -32393.729    15.315016    13.263189     27.99639    5686.7933 
   46500       46.487    318.48162      13.0911   -441.57384   -428.48274   -10472.988    201.92465    297.11533   -31918.003    15.315018    13.263191    27.996373    5686.7915 
   47000       46.987    325.74499    13.389658   -441.85408   -428.46442   -11208.084    591.43915   -2802.6626   -31413.028    15.315021    13.263193    27.996355    5686.7897 
   47500       47.487     327.3737    13.456606   -441.90283   -428.44622   -11320.976    1780.8636   -1435.5721   -34308.219    15.315023    13.263195    27.996338    5686.7879 
   48000       47.987    337.96168    13.891822   -442.31961   -428.42779   -10878.285    1787.1414   -2081.6763   -32340.321    15.315026    13.263197     27.99632    5686.7861 
   48500       48.487    327.81887    13.474905   -441.88453   -428.40962   -10277.898     3033.828   -3053.8307    -30813.69    15.315028    13.263199    27.996303    5686.7843 
   49000       48.987    353.52109    14.531387   -442.92288   -428.39149   -10870.612    2861.6895   -3568.0266   -31905.499     15.31503    13.263201    27.996285    5686.7825 
   49500       49.487    347.02218    14.264252   -442.63739   -428.37314   -11147.704    3265.9875   -3506.5679   -33202.533    15.315033    13.263203    27.996268    5686.7807 
   50000       49.987    321.77373    13.226421   -441.58119   -428.35477   -10106.453    3622.0899   -3025.9865   -30915.461    15.315035    13.263205     27.99625    5686.7789 
   50500       50.487    331.68479    13.633813    -441.9707   -428.33689   -9772.6922    3462.8323   -1796.9191    -30983.99    15.315037    13.263207    27.996233    5686.7771 
   51000       50.987    339.63202    13.960481   -442.27958    -428.3191   -10873.215    4867.6263   -5346.5071   -32140.766     15.31504    13.263209    27.996215    5686.7753 
   51500       51.487    324.95791    13.357306   -441.65836   -428.30105    -10478.56    3390.9583   -1057.3025   -33769.335    15.315042    13.263211    27.996198    5686.7735 
   52000       51.987    339.82244    13.968308   -442.25218   -428.28387   -10867.771    3733.5508   -2542.0242   -33794.841    15.315044    13.263213     27.99618    5686.7717 
   52500       52.487    330.11702     13.56937   -441.83583   -428.26646   -10384.206    2249.2984   -2617.2948    -30784.62    15.315047    13.263215    27.996163    5686.7699 
   53000       52.987    327.03867    13.442835   -441.69137   -428.24853   -11634.217    73.581952    -4792.047   -30184.187    15.315049    13.263217    27.996145    5686.7681 
   53500       53.487    327.38938    13.457251   -441.68861   -428.23136   -10729.207     1710.909   -2691.8735   -31206.656    15.315051    13.263219    27.996128    5686.7663 
   54000       53.987    327.77231    13.472991   -441.68773   -428.21474   -10197.844    2473.5199   -3560.7277   -29506.324    15.315054    13.263221     27.99611    5686.7645 
   54500       54.487    318.13793    13.076973   -441.27386   -428.19689   -9996.5797    3243.9654    -2336.494    -30897.21    15.315056    13.263223    27.996093    5686.7627 
   55000       54.987    312.06734    12.827443   -441.00731   -428.17987   -9414.9319    3947.1101   -1199.5998   -30992.306    15.315058    13.263225    27.996075    5686.7609 
   55500       55.487    325.73692    13.389327   -441.55209   -428.16276   -11575.669   -669.68381   -3047.1631   -31010.159    15.315061    13.263227    27.996058    5686.7591 
   56000       55.987    333.44579    13.706198   -441.85246   -428.14626   -9718.7457     3342.672   -2671.5176   -29827.392    15.315063     13.26323     27.99604    5686.7573 
   56500       56.487    338.96949    13.933248   -442.06268   -428.12943   -11782.779    2153.3361   -2836.9953   -34664.679    15.315065    13.263232    27.996023    5686.7554 
   57000       56.987    320.13078    13.158888   -441.27136   -428.11247    -9789.965    659.84511    408.84254   -30438.583    15.315068    13.263234    27.996005    5686.7536 
   57500       57.487    330.69871     13.59328   -441.68926   -428.09598   -10374.059    4204.2906   -1966.5621   -33359.906     15.31507    13.263236    27.995988    5686.7518 
   58000       57.987    339.71793    13.964013   -442.04371    -428.0797   -10433.703     4361.557   -616.26691   -35046.401    15.315073    13.263238     27.99597      5686.75 
   58500       58.487    341.04827    14.018696   -442.08194   -428.06324   -10543.625    3051.5286   -903.29785   -33779.105    15.315075     13.26324    27.995953    5686.7482 
   59000       58.987     318.3683    13.086442   -441.13282   -428.04638    -10795.19    3065.4357   -3145.0802   -32305.925    15.315077    13.263242    27.995935    5686.7464 
   59500       59.487    348.70623    14.333474   -442.36386   -428.03039   -10388.321    2509.5443   -1774.1829   -31900.325     15.31508    13.263244    27.995918    5686.7446 
   60000       59.987    338.11999     13.89833    -441.9123   -428.01397    -10604.54    2989.5659   -2332.5907   -32470.596    15.315082    13.263246      27.9959    5686.7428 
   60500       60.487     349.8453    14.380295   -442.37847   -427.99818   -10815.927     2193.429   -4105.3854   -30535.824    15.315084    13.263248    27.995883     5686.741 
   61000       60.987    329.86226    13.558898   -441.54063   -427.98173   -10314.677    1857.4452   -2824.7703   -29976.706    15.315087     13.26325    27.995865    5686.7392 
   61500       61.487    329.09819    13.527491   -441.49287   -427.96538    -10694.72    3240.9875   -2272.7085   -33052.438    15.315089    13.263252    27.995848    5686.7374 
   62000       61.987    341.48269    14.036553   -441.98658   -427.95002   -11647.679    2705.9828   -2319.7427   -35329.276    15.315091    13.263254     27.99583    5686.7356 
   62500       62.487    327.61115    13.466366   -441.39977   -427.93341   -9874.2186    4011.7438   -3415.4097    -30218.99    15.315094    13.263256    27.995813    5686.7338 
   63000       62.987    338.98892    13.934047   -441.85199   -427.91794   -10714.045    1569.5201   -2096.7605   -31614.893    15.315096    13.263258    27.995795     5686.732 
   63500       63.487    328.96675    13.522088   -441.42385   -427.90176   -12162.235    1053.3711   -3808.4595   -33731.617    15.315098     13.26326    27.995778    5686.7302 
   64000       63.987    341.44865    14.035153   -441.92133   -427.88618   -10655.924    3654.3358   -1156.5738   -34465.533    15.315101    13.263262     27.99576    5686.7284 
   64500       64.487    343.70539    14.127916   -441.99868   -427.87077   -10861.289    1384.5999   -3497.7137   -30470.753    15.315103    13.263264    27.995743    5686.7266 
   65000       64.987    333.05688    13.690212    -441.5451   -427.85489   -9720.5108     3543.628   -1959.6546   -30745.506    15.315105    13.263266    27.995725    5686.7248 
   65500       65.487    346.33469    14.235993   -442.07544   -427.83945     -11004.8    3210.9226   -3333.5585   -32891.763    15.315108    13.263268    27.995708     5686.723 
   66000       65.987    334.15488    13.735345   -441.55884    -427.8235   -9392.8041    2859.8635   -461.75346   -30576.522     15.31511    13.263271     27.99569    5686.7212 
   66500       66.487    335.44538     13.78839   -441.59637   -427.80798   -10328.718    2449.6462   -1157.3791   -32278.421    15.315112    13.263273    27.995673    5686.7194 
   67000       66.987     341.1547     14.02307    -441.8156   -427.79253   -10179.667    3628.1927   -2626.5831    -31540.61    15.315115    13.263275    27.995655    5686.7176 
   67500       67.487    329.19546    13.531489   -441.30794   -427.77645   -10772.352    2496.6771    -1311.139   -33502.595    15.315117    13.263277    27.995638    5686.7158 
   68000       67.987    340.14113    13.981408   -441.74286   -427.76146   -9307.4781    5116.9644   -2902.0946   -30137.304     15.31512    13.263279     27.99562     5686.714 
   68500       68.487    321.97768    13.234804   -440.97984   -427.74504   -8763.9305    5930.8348   -3057.6417   -29164.985    15.315122    13.263281    27.995603    5686.7122 
   69000       68.987      313.313    12.878645   -440.60782   -427.72917   -9540.2833    4435.4833   -2668.6985   -30387.635    15.315124    13.263283    27.995585    5686.7104 
   69500       69.487    326.93202    13.438451   -441.15218   -427.71373   -10313.905    2577.9751   -3701.5633   -29818.128    15.315127    13.263285    27.995568    5686.7086 
   70000       69.987    359.51919    14.777938   -442.47646   -427.69853   -10527.233    3707.4781   -3899.7126   -31389.464    15.315129    13.263287     27.99555    5686.7068 
   70500       70.487    344.88915    14.176574    -441.8594   -427.68283   -10021.992    3805.9484   -3124.5975   -30747.327    15.315131    13.263289    27.995533     5686.705 
   71000       70.987    339.92167    13.972387   -441.63869    -427.6663   -9880.3828    1240.1139   -2705.0796   -28176.183    15.315134    13.263291    27.995515    5686.7032 
   71500       71.487    353.70161    14.538808   -442.18954   -427.65074   -10593.364    2912.7206   -1107.1037   -33585.708    15.315136    13.263293    27.995498    5686.7014 
   72000       71.987    349.61447    14.370807   -442.00547   -427.63466   -10860.713    4608.2661   -4098.9976   -33091.408    15.315138    13.263295     27.99548    5686.6995 
   72500       72.487    330.17753    13.571857    -441.1902   -427.61834   -10100.558    1555.6927   -3553.7787   -28303.587    15.315141    13.263297    27.995463    5686.6977 
   73000       72.987     357.2886     14.68625   -442.28982   -427.60357   -10690.296    3092.5755   -3808.5311   -31354.933    15.315143    13.263299    27.995445    5686.6959 
   73500       73.487    350.12833    14.391929   -441.97964   -427.58771   -11078.182    2773.2428   -971.87201   -35035.916    15.315145    13.263301    27.995428    5686.6941 
   74000       73.987    346.30423    14.234741   -441.80611   -427.57136   -10083.342    1980.3216   -3077.6358   -29152.712    15.315148    13.263303     27.99541    5686.6923 
   74500       74.487    354.84883    14.585964    -442.1416   -427.55564   -11573.273    3099.5233   -6872.4646   -30946.878     15.31515    13.263305    27.995393    5686.6905 
   75000       74.987    342.21867    14.066805   -441.60624   -427.53943   -10560.277    2347.2061   -2143.9303   -31884.107    15.315152    13.263307    27.995375    5686.6887 
   75500       75.487    354.62035    14.576572   -442.10018   -427.52361   -9079.6967    4471.5897    -2613.233   -29097.447    15.315155    13.263309    27.995358    5686.6869 
   76000       75.987    339.71604    13.963935   -441.47155   -427.50761   -10609.553    1621.7937   -2698.8806   -30751.573    15.315157    13.263312     27.99534    5686.6851 
   76500       76.487    323.74125    13.307295   -440.79783   -427.49053   -10004.354    3961.7471   -3560.5478   -30414.263    15.315159    13.263314    27.995323    5686.6833 
   77000       76.987    328.85423    13.517463   -440.99232   -427.47486   -11774.169    1699.9238   -2158.4045   -34864.025    15.315162    13.263316    27.995305    5686.6815 
   77500       77.487     353.4055    14.526636   -441.98527   -427.45863   -9539.7612    4624.4968   -2702.5449   -30541.236    15.315164    13.263318    27.995288    5686.6797 
   78000       77.987    341.39525    14.032958   -441.47502   -427.44206   -9201.9987    3534.3278   -2594.1448   -28546.179    15.315167     13.26332     27.99527    5686.6779 
   78500       78.487    328.47839    13.502014    -440.9271   -427.42509   -9948.7044    3228.5091   -758.97773   -32315.644    15.315169    13.263322    27.995253    5686.6761 
   79000       78.987    353.83357    14.544232   -441.95372   -427.40949   -10430.981    3776.8293   -3112.7946   -31956.979    15.315171    13.263324    27.995235    5686.6743 
   79500       79.487     363.0799      14.9243   -442.31688   -427.39258   -11405.534    198.65586   -1482.4945   -32932.764    15.315174    13.263326    27.995218    5686.6725 
   80000       79.987     345.7785    14.213131   -441.58936   -427.37623   -10937.518   -118.32675   -2897.9504   -29796.278    15.315176    13.263328      27.9952    5686.6707 
   80500       80.487    341.41543    14.033788   -441.39282   -427.35903   -10591.867     2535.551   -596.02504   -33715.128    15.315178     13.26333    27.995183    5686.6689 
   81000       80.987    342.77294    14.089588   -441.43249   -427.34291   -10015.857    5319.6681   -2057.9372   -33309.302    15.315181    13.263332    27.995165    5686.6671 
   81500       81.487    346.63283    14.248247   -441.57426   -427.32601   -10547.745    2611.4735    -3058.806   -31195.902    15.315183    13.263334    27.995148    5686.6653 
   82000       81.987    340.69515    14.004181   -441.31286   -427.30868   -10456.871    1860.5502   -2885.2281   -30345.936    15.315185    13.263336     27.99513    5686.6635 
   82500       82.487    347.85103    14.298321   -441.59008   -427.29176    -10543.06    1772.1219    209.09003   -33610.392    15.315188    13.263338    27.995113    5686.6617 
   83000       82.987    337.05775    13.854666   -441.12916   -427.27449   -10413.376    2470.1694   -2522.2079   -31188.089     15.31519     13.26334    27.995095    5686.6599 
   83500       83.487    343.53388    14.120866   -441.37805   -427.25718   -10197.625    3184.3003   -3649.0841   -30128.092    15.315192    13.263342    27.995078    5686.6581 
   84000       83.987    346.54952    14.244823   -441.48443    -427.2396   -11342.072    669.31153   -878.82109   -33816.706    15.315195    13.263344     27.99506    5686.6563 
   84500       84.487    346.51664    14.243471   -441.46628   -427.22281   -10239.959    3656.1868   -2152.8366   -32223.227    15.315197    13.263346    27.995043    5686.6545 
   85000       84.987    353.77672    14.541895   -441.74729   -427.20539   -10352.166     2611.519   -2580.1215   -31087.896    15.315199    13.263348    27.995025    5686.6527 
   85500       85.487    357.79106    14.706903   -441.89495   -427.18805   -11150.867    3098.6857   -4413.1311   -32138.155    15.315202     13.26335    27.995008    5686.6509 
   86000       85.987    336.77242    13.842938    -441.0127   -427.16976    -9526.124     2376.118   -240.72999    -30713.76    15.315204    13.263353     27.99499    5686.6491 
   86500       86.487    365.02315    15.004177   -442.15686   -427.15268   -11375.606    1201.2598   -920.31975   -34407.758    15.315206    13.263355    27.994973    5686.6473 
   87000       86.987    364.82959     14.99622   -442.13153   -427.13531   -10446.791    1542.2396   -343.04951   -32539.564    15.315209    13.263357    27.994955    5686.6455 
   87500       87.487    355.80953    14.625453   -441.74269   -427.11724   -10903.967     2033.357   -3261.6816   -31483.577    15.315211    13.263359    27.994938    5686.6436 
   88000       87.987    340.79699    14.008367   -441.10741   -427.09904    -9249.179    4726.4093   -1378.3984   -31095.548    15.315214    13.263361     27.99492    5686.6418 
   88500       88.487     347.6769    14.291164     -441.372   -427.08083   -10331.533    3738.8416   -2882.5383   -31850.902    15.315216    13.263363    27.994903      5686.64 
   89000       88.987    336.24589    13.821295   -440.88466   -427.06336   -9869.5249    3218.6203    791.15887   -33618.354    15.315218    13.263365    27.994885    5686.6382 
   89500       89.487    347.61117    14.288462   -441.33371   -427.04525   -11471.326    1669.6962   -4841.8211   -31241.853    15.315221    13.263367    27.994868    5686.6364 
   90000       89.987    351.23654    14.437482   -441.46409   -427.02661   -11015.116    2004.2985   -3925.7786   -31123.869    15.315223    13.263369     27.99485    5686.6346 
   90500       90.487    338.49052     13.91356   -440.92157   -427.00801   -10126.715    2339.2675    1177.3877   -33896.801    15.315225    13.263371    27.994833    5686.6328 
   91000       90.987     346.9814    14.262575    -441.2523   -426.98973    -9912.265    2409.5654   -1403.2929   -30743.067    15.315228    13.263373    27.994815     5686.631 
   91500       91.487    349.06818    14.348352   -441.31961   -426.97126   -11209.749    3125.4977   -2651.9341   -34102.809     15.31523    13.263375    27.994798    5686.6292 
   92000       91.987    344.72175    14.169693   -441.12246   -426.95277    -10715.52    3551.0008   -4837.7642   -30859.798    15.315232    13.263377     27.99478    5686.6274 
   92500       92.487     348.6252    14.330143   -441.26407   -426.93393   -10092.905    4362.1036   -2472.0438   -32168.775    15.315235    13.263379    27.994763    5686.6256 
   93000       92.987    329.68757    13.551717   -440.46645   -426.91473   -9702.0417    2450.1197   -2407.8444     -29148.4    15.315237    13.263381    27.994745    5686.6238 
   93500       93.487    339.49496    13.954847   -440.85096   -426.89612   -9814.9305    4842.1307   -645.14464   -33641.778    15.315239    13.263383    27.994728     5686.622 
   94000       93.987    359.05529    14.758869   -441.63645   -426.87758    -10089.94    3603.1334   -1399.9945   -32472.959    15.315242    13.263385     27.99471    5686.6202 
   94500       94.487    346.18914     14.23001   -441.08799   -426.85798   -9994.2397    4213.6135   -5867.1858   -28329.147    15.315244    13.263387    27.994693    5686.6184 
   95000       94.987    353.24363    14.519982   -441.35903   -426.83905   -10526.929    1898.8158   -1251.2857   -32228.317    15.315246    13.263389    27.994675    5686.6166 
   95500       95.487    358.27948     14.72698   -441.54663   -426.81965   -10300.935    2896.4853   -2414.7986   -31384.492    15.315249    13.263391    27.994658    5686.6148 
   96000       95.987    356.19896    14.641461   -441.44156    -426.8001   -10415.614    3589.0695   -2096.5193   -32739.392    15.315251    13.263394     27.99464     5686.613 
   96500       96.487    357.37626    14.689853   -441.47107   -426.78122   -9987.4594     2840.025   -2682.1599   -30120.243    15.315253    13.263396    27.994623    5686.6112 
   97000       96.987    369.81137    15.200995   -441.96257   -426.76158   -10253.949    4904.1902   -2874.5351   -32791.503    15.315256    13.263398    27.994605    5686.6094 
   97500       97.487     347.0727    14.266328    -441.0077   -426.74137   -10400.123    2605.2441   -520.24025   -33285.374    15.315258      13.2634    27.994588    5686.6076 
   98000       97.987    339.15944    13.941056   -440.66263   -426.72157   -9546.3963    2902.3052   -3237.4319   -28304.062    15.315261    13.263402     27.99457    5686.6058 
   98500       98.487     342.2834    14.069466   -440.77153   -426.70206    -9473.024    3752.0632   -2947.1889   -29223.946    15.315263    13.263404    27.994553     5686.604 
   99000       98.987     355.7766      14.6241   -441.30625   -426.68215   -8869.5733    3951.0162   -1141.4629   -29418.273    15.315265    13.263406    27.994535    5686.6022 
   99500       99.487    324.78208    13.350079   -440.01171   -426.66163   -9489.1078    3398.8781    697.07947   -32563.281    15.315268    13.263408    27.994518    5686.6004 
  100000       99.987    344.30937    14.152742   -440.79448   -426.64174   -10428.892    1058.7683   -2074.0554   -30271.388     15.31527     13.26341      27.9945    5686.5986 
  100500      100.487    353.77251    14.541722   -441.16392    -426.6222   -10294.237    3106.1869   -1416.9138   -32571.984    15.315272    13.263412    27.994483    5686.5968 
  101000      100.987    342.10742    14.062232   -440.66376   -426.60152   -9532.1961    2379.5533   -2926.4364   -28049.705    15.315275    13.263414    27.994465     5686.595 
  101500      101.487    356.35907    14.648042   -441.22944   -426.58139   -9415.7293    5456.3165   -416.74143   -33286.763    15.315277    13.263416    27.994448    5686.5932 
  102000      101.987     348.1425    14.310302   -440.87175   -426.56145   -9993.2237    3602.6805   -2065.4291   -31516.922    15.315279    13.263418     27.99443    5686.5914 
  102500      102.487    369.87144    15.203464   -441.74461   -426.54115   -9933.5741     1167.764   -2795.7776   -28172.709    15.315282     13.26342    27.994413    5686.5895 
  103000      102.987    378.47122    15.556956   -442.07762   -426.52067   -10964.703    248.32844   -1765.4988   -31376.939    15.315284    13.263422    27.994395    5686.5877 
  103500      103.487    370.23109    15.218248   -441.71834   -426.50009   -10159.569    4723.6568   -1584.3241   -33618.039    15.315286    13.263424    27.994378    5686.5859 
  104000      103.987    364.63346    14.988158   -441.46749   -426.47933   -11140.305    2650.1587   -1921.7319   -34149.342    15.315289    13.263426     27.99436    5686.5841 
  104500      104.487    348.15868    14.310967   -440.76928   -426.45831   -8973.1096    5008.6046   -1068.8287   -30859.105    15.315291    13.263428    27.994343    5686.5823 
  105000      104.987    373.65953    15.359173   -441.79706   -426.43789   -9880.6669    2560.1142   -2703.3762   -29498.739    15.315293     13.26343    27.994325    5686.5805 
  105500      105.487    361.60411    14.863638   -441.28061   -426.41697   -9237.3512     4333.346   -2476.7719   -29568.628    15.315296    13.263432    27.994308    5686.5787 
  106000      105.987    344.38119    14.155695   -440.55136   -426.39567   -10040.301     2749.518   -1270.2979   -31600.124    15.315298    13.263435     27.99429    5686.5769 
  106500      106.487    361.32668    14.852234   -441.22679   -426.37456   -10604.026    3670.1272   -3066.2373   -32415.969      15.3153    13.263437    27.994273    5686.5751 
  107000      106.987    345.85905    14.216441   -440.56965   -426.35321   -9268.2937    3913.0767   -3223.6019   -28494.356    15.315303    13.263439    27.994255    5686.5733 
  107500      107.487    368.62472    15.152218   -441.48449   -426.33227   -9707.6679    1943.0107   -2473.8103   -28592.204    15.315305    13.263441    27.994238    5686.5715 
  108000      107.987    364.87723    14.998179    -441.3092   -426.31102   -11435.879    1739.8697   -2086.6905   -33960.818    15.315308    13.263443     27.99422    5686.5697 
  108500      108.487    376.11114    15.459945   -441.74991   -426.28996   -11767.097      1128.67   -4465.5842   -31964.375     15.31531    13.263445    27.994203    5686.5679 
  109000      108.987    371.59055    15.274128   -441.54257   -426.26844   -9904.5191    1202.5019   -1405.2134   -29510.846    15.315312    13.263447    27.994185    5686.5661 
  109500      109.487    376.80975    15.488662   -441.73576    -426.2471   -9836.3267    514.27509   -1074.3258    -28948.93    15.315315    13.263449    27.994168    5686.5643 
  110000      109.987    358.09659    14.719462   -440.94487   -426.22541   -10923.496    4007.4658   -5266.6577   -31511.296    15.315317    13.263451     27.99415    5686.5625 
  110500      110.487     361.5404    14.861019   -441.06501   -426.20399   -9471.5617    3145.1271   -631.96428   -30927.848    15.315319    13.263453    27.994133    5686.5607 
  111000      110.987    341.66162    14.043907   -440.22652   -426.18261   -9277.0386    2839.7475   -2521.9109   -28148.952    15.315322    13.263455    27.994115    5686.5589 
  111500      111.487    360.16107    14.804322   -440.96522    -426.1609   -9943.9869    2861.6231   -3072.6351   -29620.949    15.315324    13.263457    27.994098    5686.5571 
  112000      111.987    350.47702    14.406262   -440.54537   -426.13911     -10372.2    4135.7141   -4891.9409   -30360.373    15.315326    13.263459     27.99408    5686.5553 
  112500      112.487    358.60406    14.740322   -440.85779   -426.11746   -8616.7553    4929.2724   -2959.5064   -27820.032    15.315329    13.263461    27.994063    5686.5535 
  113000      112.987    367.56505    15.108661   -441.20397   -426.09531   -10156.724    2378.1711   -3513.7846   -29334.559    15.315331    13.263463    27.994045    5686.5517 
  113500      113.487    369.12856    15.172928   -441.24672   -426.07379   -10527.728    4530.2134    381.71921   -36495.115    15.315333    13.263465    27.994028    5686.5499 
  114000      113.987    370.82438    15.242634   -441.29456   -426.05192    -9894.803    4490.5271   -2212.7464    -31962.19    15.315336    13.263467     27.99401    5686.5481 
  114500      114.487    368.16106    15.133159   -441.16306    -426.0299   -10188.585    2243.0577    -4057.439   -28751.375    15.315338    13.263469    27.993993    5686.5463 
  115000      114.987    353.47827    14.529627   -440.53771   -426.00809   -8884.5763     3246.548   -1609.0291   -28291.248     15.31534    13.263471    27.993975    5686.5445 
  115500      115.487    372.84376    15.325641   -441.31125   -425.98561   -10027.333    5406.7264    360.25685   -35848.982    15.315343    13.263473    27.993958    5686.5427 
  116000      115.987    382.90487      15.7392   -441.70276   -425.96356   -10831.025     3311.911    362.97219   -36167.958    15.315345    13.263476     27.99394    5686.5409 
  116500      116.487    365.34903    15.017572   -440.95857     -425.941   -10428.988    4609.7084   -644.58426   -35252.089    15.315347    13.263478    27.993923    5686.5391 
  117000      116.987    355.88012    14.628355   -440.54653   -425.91817   -7946.1998    6317.2729   -2825.1488   -27330.724     15.31535     13.26348    27.993905    5686.5373 
  117500      117.487    348.14371    14.310352    -440.2068   -425.89645   -9137.2981    3812.8825   -600.23827   -30624.539    15.315352    13.263482    27.993888    5686.5354 
  118000      117.987    368.13314    15.132012   -441.00597   -425.87396   -10854.673    1798.2587   -3323.1971   -31039.082    15.315355    13.263484     27.99387    5686.5336 
  118500      118.487    355.47735    14.611799   -440.46309    -425.8513   -9188.9424    1898.3405    13.422329    -29478.59    15.315357    13.263486    27.993853    5686.5318 
  119000      118.987    388.87282    15.984511   -441.81434   -425.82983   -11113.688    1660.9142   -1875.5065   -33126.472    15.315359    13.263488    27.993835      5686.53 
  119500      119.487    378.77598    15.569483    -441.3764   -425.80691   -9772.2078    5146.6537   -2623.2229   -31840.054    15.315362     13.26349    27.993818    5686.5282 
  120000      119.987    368.94328    15.165313   -440.94918   -425.78386   -9624.2825    3321.0341    -2147.573   -30046.309    15.315364    13.263492      27.9938    5686.5264 
  120500      120.487    362.68831    14.908204   -440.66952   -425.76132   -10718.154     1256.326   -2669.2992   -30741.488    15.315366    13.263494    27.993783    5686.5246 
  121000      120.987    364.69747     14.99079   -440.72959    -425.7388   -8552.2865    3280.9402   -4103.4257   -24834.374    15.315369    13.263496    27.993765    5686.5228 
  121500      121.487    366.04252    15.046078   -440.76235   -425.71628    -10135.32    4383.9186   -3534.5332   -31255.345    15.315371    13.263498    27.993748     5686.521 
  122000      121.987    355.29956    14.604491   -440.29782   -425.69333   -8622.1251    2923.7949    573.57887   -29363.749    15.315373      13.2635     27.99373    5686.5192 
  122500      122.487    356.41106    14.650179   -440.32088    -425.6707   -9929.5202     2690.124   -1160.9787   -31317.706    15.315376    13.263502    27.993713    5686.5174 
  123000      122.987    358.51793    14.736781   -440.38445   -425.64767   -10014.189    3335.9477    1200.8787   -34579.394    15.315378    13.263504    27.993695    5686.5156 
  123500      123.487    375.34047    15.428267   -441.05385   -425.62558   -9486.9268    1999.1397   -113.39002    -30346.53     15.31538    13.263506    27.993678    5686.5138 
  124000      123.987    377.73416    15.526659   -441.12867   -425.60202   -10022.986    5349.8567   -2002.6599   -33416.155    15.315383    13.263508     27.99366     5686.512 
  124500      124.487     376.4252    15.472855    -441.0522   -425.57935   -9937.9474     3662.979   -2415.5687   -31061.252    15.315385     13.26351    27.993643    5686.5102 
  125000      124.987    401.44734    16.501383   -442.05833   -425.55695   -11333.399    1246.0703   -2571.0776   -32675.191    15.315387    13.263512    27.993625    5686.5084 
  125500      125.487    374.40569    15.389843   -440.92336   -425.53352   -10519.189    923.68883   -4917.3709   -27563.886     15.31539    13.263514    27.993608    5686.5066 
  126000      125.987    357.34516    14.688575   -440.19865   -425.51008   -8807.6074    4132.5887     -2688.24   -27867.171    15.315392    13.263517     27.99359    5686.5048 
  126500      126.487    371.80525    15.282953   -440.76986   -425.48691   -9970.4638    1262.4305    962.68083   -32136.503    15.315394    13.263519    27.993573     5686.503 
  127000      126.987     372.8382    15.325412   -440.79003   -425.46462    -9827.272    3972.2208   -5.7452655   -33448.292    15.315397    13.263521    27.993555    5686.5012 
  127500      127.487    361.87512    14.874778   -440.31548    -425.4407   -9106.3774    2698.9709   -3333.1943   -26684.909    15.315399    13.263523    27.993538    5686.4994 
  128000      127.987     380.7837     15.65201   -441.07005   -425.41804   -9109.1582    3745.2989   -2698.6903   -28374.083    15.315402    13.263525     27.99352    5686.4976 
  128500      128.487    358.79644    14.748229   -440.14294   -425.39471   -9284.8176    2444.0157    277.45285   -30575.921    15.315404    13.263527    27.993503    5686.4958 
  129000      128.987    370.58966    15.232986   -440.60471   -425.37172   -10425.416    4553.7378   -3637.4376   -32192.548    15.315406    13.263529    27.993485     5686.494 
  129500      129.487    369.38739    15.183567   -440.53221   -425.34865   -9321.7382    3708.2904   -1427.2583   -30246.247    15.315409    13.263531    27.993468    5686.4922 
  130000      129.987    368.78426    15.158776   -440.48385   -425.32507   -9216.7319    1919.7896   -2063.0645   -27506.921    15.315411    13.263533     27.99345    5686.4904 
  130500      130.487     362.2425    14.889879   -440.19187   -425.30199   -9533.4852    4730.9458   -2429.2591   -30902.142    15.315413    13.263535    27.993433    5686.4886 
  131000      130.987    378.66961    15.565111   -440.84394   -425.27883   -9312.7184    4926.5361    867.15207   -33731.843    15.315416    13.263537    27.993415    5686.4868 
  131500      131.487    368.39926    15.142951   -440.39831   -425.25536   -9174.6391     1641.111   -1128.8818   -28036.147    15.315418    13.263539    27.993398     5686.485 
  132000      131.987    380.51501    15.640965   -440.87318   -425.23222   -11223.854    1833.2277   -3111.4696   -32393.321     15.31542    13.263541     27.99338    5686.4831 
  132500      132.487    372.92435    15.328953    -440.5376   -425.20865   -10350.177    4313.6271   -3501.7271   -31862.431    15.315423    13.263543    27.993363    5686.4813 
  133000      132.987    369.96022    15.207114   -440.39187   -425.18475   -9758.3994    3558.7538   -3443.2857   -29390.666    15.315425    13.263545    27.993345    5686.4795 
  133500      133.487    380.34573    15.634007   -440.79561   -425.16161   -9833.0359    3737.5464   -2522.8178   -30713.836    15.315427    13.263547    27.993328    5686.4777 
  134000      133.987    371.33844    15.263765    -440.4015   -425.13773   -9180.7332    5504.1889   -4266.7824   -28779.606     15.31543    13.263549     27.99331    5686.4759 
  134500      134.487    377.58834    15.520665    -440.6352   -425.11454   -9231.8638    3423.7153   -2361.2774   -28758.029    15.315432    13.263551    27.993293    5686.4741 
  135000      134.987    381.97613    15.701024   -440.79265   -425.09162   -9927.0059    3572.3447   -1821.6347   -31531.728    15.315434    13.263553    27.993275    5686.4723 
  135500      135.487    366.37321     15.05967   -440.12761   -425.06794   -9202.6322    3387.9205   -2023.1969    -28972.62    15.315437    13.263555    27.993258    5686.4705 
  136000      135.987    383.11471    15.747825   -440.79193    -425.0441   -9317.2867    5443.1173   -999.51134   -32395.466    15.315439    13.263558     27.99324    5686.4687 
  136500      136.487    391.73004    16.101956   -441.12256    -425.0206   -9874.0861    4596.1182   -994.64609    -33223.73    15.315441     13.26356    27.993223    5686.4669 
  137000      136.987    387.03344    15.908903   -440.90551   -424.99661   -9599.6807    3265.9206   -997.02095   -31067.942    15.315444    13.263562    27.993205    5686.4651 
  137500      137.487    379.56584     15.60195   -440.57473   -424.97278   -10424.605    2469.4942   -3791.5683   -29951.741    15.315446    13.263564    27.993188    5686.4633 
  138000      137.987     361.0491    14.840824   -439.78929   -424.94847   -8811.7155    2478.8491    1794.8264   -30708.822    15.315449    13.263566     27.99317    5686.4615 
  138500      138.487    386.05386    15.868638   -440.79369   -424.92505   -9708.6566    4080.8879   -1032.6493   -32174.208    15.315451    13.263568    27.993153    5686.4597 
  139000      138.987    397.12419    16.323681   -441.22539    -424.9017   -9663.8888    3151.1297   -2023.3714   -30119.425    15.315453     13.26357    27.993135    5686.4579 
  139500      139.487    399.40167    16.417296   -441.29554   -424.87825   -9765.8208    3330.3351   -1512.6407   -31115.157    15.315456    13.263572    27.993118    5686.4561 
  140000      139.987    356.56531    14.656519   -439.51001   -424.85349   -9006.4577    1930.1731    -391.4865    -28558.06    15.315458    13.263574      27.9931    5686.4543 
  140500      140.487    378.68358    15.565685   -440.39561   -424.82992   -8226.4671    5778.1894   -433.40141   -30024.189     15.31546    13.263576    27.993083    5686.4525 
  141000      140.987    390.74234    16.061357   -440.86806    -424.8067   -10740.589    1467.2163   -3488.3836   -30200.601    15.315463    13.263578    27.993065    5686.4507 
  141500      141.487    381.50981    15.681856     -440.464   -424.78214   -9986.6959    2812.7286   -614.90325   -32157.913    15.315465     13.26358    27.993048    5686.4489 
  142000      141.987     382.5281    15.723713   -440.48177   -424.75805   -8257.4477    4095.5098   -205.16024   -28662.693    15.315467    13.263582     27.99303    5686.4471 
  142500      142.487    364.34268    14.976206   -439.70983   -424.73363   -8798.9434    5289.0436   -1201.2846   -30484.589     15.31547    13.263584    27.993013    5686.4453 
  143000      142.987    374.88201    15.409422   -440.11935   -424.70993   -9775.7995    3988.9444   -2695.8356   -30620.507    15.315472    13.263586    27.992995    5686.4435 
  143500      143.487    378.76603    15.569074   -440.25477    -424.6857   -8968.6592    2194.1864    -302.6795   -28797.485    15.315474    13.263588    27.992978    5686.4417 
  144000      143.987    349.62047    14.371054   -439.03241   -424.66135   -8078.2317    4885.2981    6.6744325   -29126.668    15.315477     13.26359     27.99296    5686.4399 
  144500      144.487    380.48087    15.639562   -440.27723   -424.63766    -9837.923    2263.5227   -772.44919   -31004.843    15.315479    13.263592    27.992943    5686.4381 
  145000      144.987     375.7125     15.44356   -440.05725   -424.61369   -8989.9408     4037.376    -2525.304   -28481.894    15.315481    13.263594    27.992925    5686.4363 
  145500      145.487    378.28419    15.549268   -440.13876   -424.58949    -8586.778    4462.5228   -3639.8903   -26582.966    15.315484    13.263596    27.992908    5686.4345 
  146000      145.987    393.28961    16.166062   -440.73126    -424.5652   -10036.615    1706.5104   -4809.8861    -27006.47    15.315486    13.263599     27.99289    5686.4326 
  146500      146.487    391.51366    16.093062   -440.63408   -424.54102   -9411.9702    1979.3183    1226.1342   -31441.363    15.315488    13.263601    27.992873    5686.4308 
  147000      146.987     381.4984    15.681387    -440.1978   -424.51642    -8205.119    4236.7862    -934.6953   -27917.448    15.315491    13.263603    27.992855     5686.429 
  147500      147.487    388.93361    15.987009   -440.48026   -424.49325   -9114.8645    4587.1184    -3024.415   -28907.297    15.315493    13.263605    27.992838    5686.4272 
  148000      147.987    368.67831    15.154421   -439.62216   -424.46774   -9376.9385    3035.9065   -3190.8466   -27975.875    15.315496    13.263607     27.99282    5686.4254 
  148500      148.487     392.6533    16.139906    -440.5839     -424.444    -8397.218    3215.7848    331.31128    -28738.75    15.315498    13.263609    27.992803    5686.4236 
  149000      148.987    386.62172     15.89198   -440.31202   -424.42004   -8815.2649    3350.5897    1193.7143   -30990.099      15.3155    13.263611    27.992785    5686.4218 
  149500      149.487    387.43791    15.925529   -440.32167   -424.39615   -8335.4648    5501.4999   -2561.0878   -27946.806    15.315503    13.263613    27.992768      5686.42 
  150000      149.987    362.27369    14.891161   -439.26193   -424.37077   -8618.0536    3894.3529    -2157.477   -27591.037    15.315505    13.263615     27.99275    5686.4182 
  150500      150.487    382.59866    15.726613   -440.07363   -424.34702   -8648.3586    4545.5354   -417.93467   -30072.676    15.315507    13.263617    27.992733    5686.4164 
  151000      150.987    372.12185    15.295967   -439.61798   -424.32201    -7895.921     5369.477     386.2696    -29443.51     15.31551    13.263619    27.992715    5686.4146 
  151500      151.487    387.40652    15.924239   -440.22216   -424.29792   -9593.1885    3786.1121   -2342.3477    -30223.33    15.315512    13.263621    27.992698    5686.4128 
  152000      151.987    385.47299    15.844762    -440.1181   -424.27334   -9099.8545    5258.1057   -2257.7304   -30299.939    15.315514    13.263623     27.99268     5686.411 
  152500      152.487    388.00006    15.948636   -440.19798   -424.24935   -9422.1259    7191.5831   -4832.2591   -30625.702    15.315517    13.263625    27.992663    5686.4092 
  153000      152.987    390.39284    16.046991   -440.27169    -424.2247   -10102.249    3397.0845   -4601.0676   -29102.763    15.315519    13.263627    27.992645    5686.4074 
  153500      153.487    378.62135    15.563127    -439.7632   -424.20008    -8992.913    5278.9194    -2530.265   -29727.393    15.315521    13.263629    27.992628    5686.4056 
  154000      153.987    396.46661    16.296652   -440.47218   -424.17552    -8919.033    4549.5549   -2548.2494   -28758.404    15.315524    13.263631     27.99261    5686.4038 
  154500      154.487    377.80705    15.529655   -439.68042   -424.15076   -9865.0214    499.96224   -1610.0659   -28484.961    15.315526    13.263633    27.992593     5686.402 
  155000      154.987    374.62719    15.398948    -439.5253   -424.12635    -8518.674    3179.5983   -150.66577   -28584.954    15.315528    13.263635    27.992575    5686.4002 
  155500      155.487    389.96599    16.029445   -440.13174   -424.10229   -9287.9816    1466.7674   -262.65481   -29068.057    15.315531    13.263637    27.992558    5686.3984 
  156000      155.987    363.59391    14.945428   -439.02287   -424.07744   -8466.2756    7552.7682     -3373.44   -29578.155    15.315533     13.26364     27.99254    5686.3966 
  156500      156.487    391.75845    16.103124   -440.15667   -424.05354   -8229.8993    2487.3133    1029.5926   -28206.604    15.315535    13.263642    27.992523    5686.3948 
  157000      156.987    378.84781    15.572435    -439.6013   -424.02886   -8379.2932    4826.4205   -2671.2271   -27293.073    15.315538    13.263644    27.992505     5686.393 
  157500      157.487    400.71483    16.471274   -440.47578   -424.00451    -9440.707    2945.8133   -2039.9882   -29227.946     15.31554    13.263646    27.992488    5686.3912 
  158000      157.987     380.2063    15.628276   -439.60735   -423.97907   -8192.4554    5632.5515   -1482.6101   -28727.308    15.315543    13.263648     27.99247    5686.3894 
  158500      158.487    380.73462    15.649992   -439.60433   -423.95434   -9286.4418    5895.0194   -2177.2812   -31577.063    15.315545     13.26365    27.992453    5686.3876 
  159000      158.987    382.89211    15.738675   -439.66851   -423.92984    -8468.398    3693.8017    -1094.852   -28004.144    15.315547    13.263652    27.992435    5686.3858 
  159500      159.487    394.74843    16.226026   -440.13015   -423.90412   -8171.1341     5206.375   -1260.5203   -28459.257     15.31555    13.263654    27.992418     5686.384 
  160000      159.987    392.86023    16.148412   -440.02843   -423.88002   -9018.6244    4421.7708   -1269.4375   -30208.206    15.315552    13.263656      27.9924    5686.3822 
  160500      160.487    397.74263    16.349102   -440.20348   -423.85438     -7580.35    5855.3558   -1473.6295   -27122.776    15.315554    13.263658    27.992383    5686.3803 
  161000      160.987    390.30096    16.043214   -439.87287   -423.82965   -8909.5114    4590.0577    -627.5225   -30691.069    15.315557     13.26366    27.992365    5686.3785 
  161500      161.487    395.12052    16.241321     -440.046   -423.80468   -10009.764    2669.2362   -4378.9689   -28319.559    15.315559    13.263662    27.992348    5686.3767 
  162000      161.987    386.19914     15.87461   -439.65436   -423.77975   -8664.4034    5289.9829    174.03655    -31457.23    15.315561    13.263664     27.99233    5686.3749 
  162500      162.487    394.35496    16.209853   -439.96472   -423.75486     -7749.99    5914.1696    658.18997    -29822.33    15.315564    13.263666    27.992313    5686.3731 
  163000      162.987    381.19682    15.668991   -439.39876   -423.72977   -7661.1475    5136.6017    201.14622    -28321.19    15.315566    13.263668    27.992295    5686.3713 
  163500      163.487     389.1781    15.997059   -439.70154   -423.70448   -8390.2627    2956.4286   -1567.1889   -26560.028    15.315568     13.26367    27.992278    5686.3695 
  164000      163.987    394.60937     16.22031   -439.90039   -423.68008   -8261.4431    5103.0801     617.3454   -30504.755    15.315571    13.263672     27.99226    5686.3677 
  164500      164.487    392.37632    16.128521   -439.78372    -423.6552    -7577.486    4964.9393    1400.2798   -29097.677    15.315573    13.263674    27.992243    5686.3659 
  165000      164.987    381.83111    15.695063   -439.32446   -423.62939   -8416.4815    6058.3691    184.68715   -31492.501    15.315575    13.263676    27.992225    5686.3641 
  165500      165.487    408.68102    16.798721   -440.40307   -423.60435   -9065.7189    6241.1095   -2560.2286   -30878.037    15.315578    13.263678    27.992208    5686.3623 
  166000      165.987    394.47885    16.214945   -439.79404    -423.5791   -9188.6045    3752.6631   -2613.0127   -28705.464     15.31558    13.263681     27.99219    5686.3605 
  166500      166.487    390.49479    16.051181   -439.60533   -423.55415    -9327.045    4801.5299    81.607185   -32864.272    15.315582    13.263683    27.992173    5686.3587 
  167000      166.987    409.62118    16.837366   -440.36615   -423.52878   -9069.7662     3907.932    1873.1167   -32990.347    15.315585    13.263685    27.992155    5686.3569 
  167500      167.487    396.00543    16.277695   -439.78139    -423.5037    -9258.127    4417.2732   -1680.8809   -30510.773    15.315587    13.263687    27.992138    5686.3551 
  168000      167.987    403.68507    16.593364   -440.07151   -423.47814   -8958.3206    3929.4177   -1416.0548   -29388.325     15.31559    13.263689     27.99212    5686.3533 
  168500      168.487    393.23745    16.163917   -439.61631   -423.45239   -9609.0267    4320.3052   -1551.1738   -31596.211    15.315592    13.263691    27.992103    5686.3515 
  169000      168.987    367.89048    15.122037   -438.54798   -423.42595   -8378.7882    5684.5793   -904.27312   -29916.671    15.315594    13.263693    27.992085    5686.3497 
  169500      169.487    406.30344    16.700991   -440.10315   -423.40216   -9454.8372    2594.6396   -1501.8176   -29457.334    15.315597    13.263695    27.992068    5686.3479 
  170000      169.987    391.97499    16.112024   -439.48908   -423.37706   -9390.2062    3875.8378   -1177.0183   -30869.438    15.315599    13.263697     27.99205    5686.3461 
  170500      170.487    389.16086    15.996351   -439.34704   -423.35069   -9875.7674    125.32878   -4491.6986   -25260.932    15.315601    13.263699    27.992033    5686.3443 
  171000      170.987    401.90498    16.520194   -439.84599   -423.32579   -9290.1517    3173.8726   -3227.8442   -27816.483    15.315604    13.263701    27.992015    5686.3425 
  171500      171.487    412.70832    16.964262   -440.26477   -423.30051   -9204.7776    4367.8053    -988.6912   -30993.447    15.315606    13.263703    27.991998    5686.3407 
  172000      171.987     409.9757    16.851939   -440.12701   -423.27507   -8541.2346    4757.0234    -1769.828   -28610.899    15.315608    13.263705     27.99198    5686.3389 
  172500      172.487      391.496    16.092336   -439.34177   -423.24944   -9392.5644    3371.9043   -1617.9132   -29931.684    15.315611    13.263707    27.991963    5686.3371 
  173000      172.987    407.68322    16.757707   -439.98132   -423.22361   -9460.2508    3918.4219    -284.0274   -32015.147    15.315613    13.263709    27.991945    5686.3353 
  173500      173.487     401.0813    16.486337   -439.68443   -423.19809   -8414.7026    4439.6435   -1314.0764   -28369.675    15.315615    13.263711    27.991928    5686.3335 
  174000      173.987    400.10044    16.446019   -439.61836   -423.17234   -8469.6587    4830.8199   -1905.6447   -28334.151    15.315618    13.263713     27.99191    5686.3316 
  174500      174.487    406.85404    16.723624   -439.87039   -423.14676   -8008.8744    5310.9441   -52.154805   -29285.412     15.31562    13.263715    27.991893    5686.3298 
  175000      174.987    394.89372    16.231998   -439.35331   -423.12131   -8483.8036    2934.3239    1408.7101   -29794.445    15.315622    13.263717    27.991875     5686.328 
  175500      175.487    405.74914    16.678207   -439.77415   -423.09595   -8742.3915    2107.8202    -1673.574   -26661.421    15.315625    13.263719    27.991858    5686.3262 
  176000      175.987    395.87019    16.272136   -439.34232   -423.07018   -7659.0664    4910.1097    520.55539   -28407.864    15.315627    13.263722     27.99184    5686.3244 
  176500      176.487    415.04128    17.060158   -440.10509   -423.04494   -8955.2265     3939.102   -1346.2391   -29458.542    15.315629    13.263724    27.991823    5686.3226 
  177000      176.987    388.81043    15.981946   -439.00077   -423.01882   -7772.4746    5494.4179    2589.6981    -31401.54    15.315632    13.263726    27.991805    5686.3208 
  177500      177.487    389.58613    16.013831   -439.00748   -422.99365   -7854.7454    4867.2456    1302.4847   -29733.967    15.315634    13.263728    27.991788     5686.319 
  178000      177.987    417.32259    17.153931   -440.12278   -422.96884   -9202.2043    3930.3024   -2626.4206   -28910.495    15.315637     13.26373     27.99177    5686.3172 
  178500      178.487    403.09564    16.569136   -439.51132   -422.94218    -7221.525    5314.8213    1113.1779   -28092.574    15.315639    13.263732    27.991753    5686.3154 
  179000      178.987    411.14585    16.900037   -439.81676   -422.91673   -8196.0013    6871.0807   -1592.9007   -29866.184    15.315641    13.263734    27.991735    5686.3136 
  179500      179.487    385.02283    15.826258    -438.7171   -422.89084   -7727.6745     6995.153   -1024.9013   -29153.275    15.315644    13.263736    27.991718    5686.3118 
  180000      179.987    403.03752    16.566747   -439.43131   -422.86456    -8237.092    5263.2737    2494.1311   -32468.681    15.315646    13.263738      27.9917      5686.31 
  180500      180.487    389.67564     16.01751   -438.85609   -422.83858   -8041.5285    8721.8119   -1347.0891   -31499.308    15.315648     13.26374    27.991683    5686.3082 
  181000      180.987     393.2584    16.164779   -438.97801   -422.81323   -7551.6292    5164.4239    441.85773   -28261.169    15.315651    13.263742    27.991665    5686.3064 
  181500      181.487    395.66461    16.263686   -439.05033   -422.78665   -8641.4888    3822.5663    173.08256   -29920.115    15.315653    13.263744    27.991648    5686.3046 
  182000      181.987    415.17812    17.065783   -439.82731   -422.76153   -8965.4901    6465.7757    -1954.818   -31407.428    15.315655    13.263746     27.99163    5686.3028 
  182500      182.487    412.51355    16.956257   -439.69147   -422.73522   -7478.2595    2604.1103   -1222.4698   -23816.419    15.315658    13.263748    27.991613     5686.301 
  183000      182.987    390.44263    16.049037   -438.75812   -422.70909    -6786.936    6180.9152    466.44415   -27008.167     15.31566     13.26375    27.991595    5686.2992 
  183500      183.487    403.75346    16.596175   -439.27972   -422.68354   -8315.1178    5295.7828   -226.15124   -30014.985    15.315662    13.263752    27.991578    5686.2974 
  184000      183.987    400.13328    16.447369   -439.10475   -422.65738   -8253.0451    5588.3183    416.09154   -30763.545    15.315665    13.263754     27.99156    5686.2956 
  184500      184.487    407.51708    16.750878   -439.38217   -422.63129   -7137.7462    7573.7864   -441.77453    -28545.25    15.315667    13.263756    27.991543    5686.2938 
  185000      184.987    404.76417     16.63772   -439.24234   -422.60462   -7512.1573    7099.2469   -666.44026   -28969.279    15.315669    13.263758    27.991525     5686.292 
  185500      185.487    419.53556    17.244894    -439.8241    -422.5792   -8384.4921    4522.9831   -2191.9344   -27484.525    15.315672     13.26376    27.991508    5686.2902 
  186000      185.987    410.22795    16.862307   -439.41539   -422.55308   -9094.3773    3601.6414   -1936.1395   -28948.634    15.315674    13.263763     27.99149    5686.2884 
  186500      186.487    426.54987    17.533215   -440.06068   -422.52747   -7952.4067    4926.1857    3847.2319   -32630.638    15.315676    13.263765    27.991473    5686.2866 
  187000      186.987    393.05733    16.156514   -438.65763   -422.50111   -8472.6946    6987.6732   -1622.4233   -30783.334    15.315679    13.263767    27.991455    5686.2848 
  187500      187.487     388.6536      15.9755   -438.44932   -422.47382   -7727.3869    4152.4881    623.75664   -27958.405    15.315681    13.263769    27.991438     5686.283 
  188000      187.987    397.99469    16.359463   -438.80779   -422.44833   -7291.6817    6355.9167   -2942.9467   -25288.015    15.315684    13.263771     27.99142    5686.2811 
  188500      188.487    432.28445    17.768934    -440.1916   -422.42266   -8255.1793     4281.472    127.07146   -29174.081    15.315686    13.263773    27.991403    5686.2793 
  189000      188.987    404.91642    16.643978   -439.03986   -422.39588    -7761.765     7071.064   -626.04895    -29730.31    15.315688    13.263775    27.991385    5686.2775 
  189500      189.487    415.92949    17.096668   -439.46672   -422.37005   -7837.5912    2944.4705   -526.99932   -25930.245    15.315691    13.263777    27.991368    5686.2757 
  190000      189.987      391.768    16.103516   -438.44716   -422.34365   -7166.8172     3750.443    3431.9302   -28682.825    15.315693    13.263779     27.99135    5686.2739 
  190500      190.487    406.61722    16.713889   -439.03126   -422.31737   -8160.0383    4341.7762    261.96777   -29083.859    15.315695    13.263781    27.991333    5686.2721 
  191000      190.987    407.78446    16.761868   -439.05285   -422.29098   -6697.9654    4348.2199    160.28487   -24602.401    15.315698    13.263783    27.991315    5686.2703 
  191500      191.487    430.32622    17.688441   -439.95353   -422.26509   -9324.0465    3431.4667    86.554585   -31490.161      15.3157    13.263785    27.991298    5686.2685 
  192000      191.987    396.98656    16.318024   -438.55589   -422.23787   -8187.1656    6017.5998     -3214.47   -27364.627    15.315702    13.263787     27.99128    5686.2667 
  192500      192.487     424.5435    17.450744   -439.66304    -422.2123   -6802.0457    5337.4165   -2947.3792   -22796.174    15.315705    13.263789    27.991263    5686.2649 
  193000      192.987    400.26354    16.452723   -438.63805   -422.18533    -7597.887    4576.4636   -895.98371   -26474.141    15.315707    13.263791    27.991245    5686.2631 
  193500      193.487     404.1475    16.612372   -438.77131   -422.15893   -7980.4674    5440.9327    969.74554    -30352.08    15.315709    13.263793    27.991228    5686.2613 
  194000      193.987    418.22597    17.191064   -439.32355   -422.13249   -6553.7574    7196.9169    320.64674   -27178.836    15.315712    13.263795     27.99121    5686.2595 
  194500      194.487    384.93101    15.822484   -437.92855   -422.10607   -5946.9028    7651.5009    1351.5053   -26843.715    15.315714    13.263797    27.991193    5686.2577 
  195000      194.987    377.36646    15.511545   -437.59032   -422.07878    -6821.984    6462.0105    1182.4043   -28110.367    15.315716    13.263799    27.991175    5686.2559 
  195500      195.487    430.40098    17.691514   -439.74463   -422.05311   -8701.4469    4595.5831   -2415.2841    -28284.64    15.315719    13.263801    27.991158    5686.2541 
  196000      195.987    420.67065    17.291552   -439.31727   -422.02572   -7341.0553     7426.206   -1830.3556   -27619.016    15.315721    13.263804     27.99114    5686.2523 
  196500      196.487    419.83965    17.257394   -439.25629    -421.9989   -7573.5434    5791.2625   -2347.1121    -26164.78    15.315723    13.263806    27.991123    5686.2505 
  197000      196.987    414.09666     17.02133   -438.99405   -421.97272   -7656.3711    3187.5156    1003.4509    -27160.08    15.315726    13.263808    27.991105    5686.2487 
  197500      197.487    397.65342    16.345435   -438.29123    -421.9458   -7650.7783    7172.4709   -10.655894    -30114.15    15.315728     13.26381    27.991088    5686.2469 
  198000      197.987     425.7365    17.499782    -439.4194   -421.91961   -8894.5108    2925.7638   -1713.7533   -27895.543    15.315731    13.263812     27.99107    5686.2451 
  198500      198.487    422.94613    17.385085   -439.27804   -421.89296   -8989.3783    3600.7868   -1905.5589   -28663.363    15.315733    13.263814    27.991053    5686.2433 
  199000      198.987    411.81012    16.927342   -438.79304    -421.8657   -7885.7061    4809.5763   -257.52019   -28209.175    15.315735    13.263816    27.991035    5686.2415 
  199500      199.487    421.06146    17.307616   -439.14701    -421.8394   -7265.7806    6694.8826    42.150196   -28534.375    15.315738    13.263818    27.991018    5686.2397 
  200000      199.987    422.31013    17.358942   -439.17174    -421.8128   -8120.9107    4981.6117   -130.42047   -29213.923     15.31574     13.26382       27.991    5686.2379 
  200500      200.487    427.29239    17.563736    -439.3494   -421.78566   -8280.1659    5289.5216    555.45815   -30685.477    15.315742    13.263822    27.990983    5686.2361 
  201000      200.987    389.59982    16.014394   -437.77272   -421.75832   -6756.4978    7146.4596    1404.5415   -28820.494    15.315745    13.263824    27.990965    5686.2343 
  201500      201.487    417.44086    17.158792    -438.8915   -421.73271   -8122.0584    5383.2312    1188.8184   -30938.225    15.315747    13.263826    27.990948    5686.2324 
  202000      201.987    394.77977    16.227314   -437.93281    -421.7055   -6448.3338    6580.4389   -391.79742   -25533.643    15.315749    13.263828     27.99093    5686.2306 
  202500      202.487    434.59562    17.863934   -439.54302   -421.67909   -8894.2624     3883.351   -1949.9158   -28616.223    15.315752     13.26383    27.990913    5686.2288 
  203000      202.987    398.84575    16.394446   -438.04624   -421.65179   -8035.1678    5498.7191    1856.6063   -31460.829    15.315754    13.263832    27.990895     5686.227 
  203500      203.487     424.1667    17.435256   -439.06091   -421.62566   -7679.7978    4904.7512     254.8349   -28198.979    15.315756    13.263834    27.990878    5686.2252 
  204000      203.987    416.44966    17.118049   -438.71679   -421.59874   -6754.3114    6875.9877    372.83533   -27511.757    15.315759    13.263836     27.99086    5686.2234 
  204500      204.487    415.91581    17.096105   -438.66808   -421.57198   -7393.6374    5184.3174   -1420.7431   -25944.487    15.315761    13.263838    27.990843    5686.2216 
  205000      204.987    412.76581    16.966626   -438.51131   -421.54468   -8366.0973    3608.1722   -353.59917   -28352.865    15.315763     13.26384    27.990825    5686.2198 
  205500      205.487    443.85553     18.24456   -439.76282   -421.51826   -8877.7287     5164.567   -2179.8685   -29617.885    15.315766    13.263842    27.990808     5686.218 
  206000      205.987    438.15207    18.010121   -439.50104   -421.49091   -5809.5159    5927.3454    -1338.835   -22017.058    15.315768    13.263845     27.99079    5686.2162 
  206500      206.487     434.5318    17.861311   -439.32502   -421.46371   -8991.4379    2764.1598    -106.9852   -29631.488     15.31577    13.263847    27.990773    5686.2144 
  207000      206.987    433.08587    17.801876   -439.23876   -421.43688   -8803.3206     3574.747    3530.2353   -33514.944    15.315773    13.263849    27.990755    5686.2126 
  207500      207.487     449.3332    18.469718   -439.88015   -421.41043   -7996.9211    3904.7093    2277.4515   -30172.924    15.315775    13.263851    27.990738    5686.2108 
  208000      207.987    425.65584    17.496467   -438.87904   -421.38258   -7869.7731    5435.4851    1567.2247   -30612.029    15.315778    13.263853     27.99072     5686.209 
  208500      208.487    430.45436    17.693708   -439.05003   -421.35632   -7961.8247    3191.4991   -27.955821   -27049.017     15.31578    13.263855    27.990703    5686.2072 
  209000      208.987    407.01959    16.730429   -438.05923    -421.3288   -7450.0744    3853.8369    552.30552   -26756.366    15.315782    13.263857    27.990685    5686.2054 
  209500      209.487    412.90028    16.972153   -438.27398   -421.30182   -7141.7274    4932.1969    1893.5411    -28250.92    15.315785    13.263859    27.990668    5686.2036 
  210000      209.987    417.90566    17.177898   -438.45255   -421.27465   -8543.3977    7202.5958   -1110.4871   -31722.302    15.315787    13.263861     27.99065    5686.2018 
  210500      210.487    402.50659    16.544923   -437.79236   -421.24743   -7238.9037    9338.2431    -1439.112   -29615.842    15.315789    13.263863    27.990633       5686.2 
  211000      210.987    422.65985    17.373317    -438.5934   -421.22009   -6918.7751    6503.0666     2100.474   -29359.866    15.315792    13.263865    27.990615    5686.1982 
  211500      211.487    437.68662    17.990989   -439.18504   -421.19405   -8634.8036    2359.2948   -523.63787   -27740.068    15.315794    13.263867    27.990598    5686.1964 
  212000      211.987    412.06023    16.937623   -438.10399   -421.16637   -7873.2444    3447.1568   -782.65495   -26284.235    15.315796    13.263869     27.99058    5686.1946 
[...]
  948500      948.487    547.19371    22.492248   -432.47306   -409.98081   -1329.1299     7119.977    5613.4172   -16720.784    15.319258    13.266889    27.964803    5683.5355 
  949000      948.987    571.55998    23.493816   -433.47233   -409.97852   -2008.5899    9831.3312    7351.2684   -23208.369     15.31926    13.266891    27.964785    5683.5337 
  949500      949.487    560.37385    23.034014    -433.0086   -409.97459   -4316.8819     7825.873      5396.94   -26173.459    15.319263    13.266893    27.964768    5683.5319 
  950000      949.987     572.5154    23.533089   -433.50313   -409.97004    -1080.944    10478.985    5635.8482   -19357.665    15.319265    13.266895     27.96475    5683.5301 
  950500      950.487    591.64689    24.319483   -434.28705   -409.96756   -2114.7054    9595.1306    7755.9677   -23695.215    15.319267    13.266897    27.964733    5683.5283 
  951000      950.987    592.36931    24.349178   -434.31156   -409.96239   -2536.1527    11451.327    2147.1721   -21206.957     15.31927    13.266899    27.964715    5683.5265 
  951500      951.487    597.88692    24.575978   -434.53448    -409.9585   -2622.8831    9211.2336    4338.0453   -21417.928    15.319272    13.266901    27.964698    5683.5247 
  952000      951.987    583.31898    23.977167   -433.93082   -409.95365   -2842.2571     10594.67    6704.3454   -25825.787    15.319274    13.266903     27.96468    5683.5229 
  952500      952.487    590.59224    24.276132   -434.22599   -409.94986   -1800.3744    7762.8447    8336.8236   -21500.792    15.319277    13.266905    27.964663    5683.5211 
  953000      952.987    573.31771    23.566067   -433.51117    -409.9451    -2936.993     9555.499    1695.7857   -20062.264    15.319279    13.266907    27.964645    5683.5193 
  953500      953.487    570.42953     23.44735   -433.38794   -409.94059    -2886.126     6750.466    3310.0241   -18718.868    15.319281    13.266909    27.964628    5683.5175 
  954000      953.987    583.90003    24.001051   -433.93846   -409.93741    -3371.147    10009.963      6912.89   -27036.294    15.319284    13.266911     27.96461    5683.5157 
  954500      954.487    553.47201    22.750315   -432.68374   -409.93343   -1131.7875    12189.995     4311.869   -19897.226    15.319286    13.266913    27.964593    5683.5139 
  955000      954.987    565.78763    23.256546   -433.18451   -409.92796   -2195.3515    11170.297    6033.8227   -23790.175    15.319288    13.266915    27.964575     5683.512 
  955500      955.487    567.50107    23.326976   -433.24996   -409.92299   -3425.6864    9402.5628    4325.0285   -24004.651    15.319291    13.266917    27.964558    5683.5102 
  956000      955.987     584.5717    24.028659   -433.94661   -409.91795   -3278.6953    8976.2242    3605.2795    -22417.59    15.319293     13.26692     27.96454    5683.5084 
  956500      956.487     578.1063    23.762901   -433.67535   -409.91244    -1325.449     14494.08    3944.1518   -22414.579    15.319295    13.266922    27.964523    5683.5066 
  957000      956.987    571.32449    23.484137   -433.39267   -409.90853   -2232.3681    10866.433    3099.8531    -20663.39    15.319298    13.266924    27.964505    5683.5048 
  957500      957.487     573.7733    23.584794   -433.48955   -409.90475   -2108.8692    12328.277    4355.5602   -23010.445      15.3193    13.266926    27.964488     5683.503 
  958000      957.987    571.76777    23.502358   -433.40177   -409.89941   -2706.7753    10326.653    4885.7307    -23332.71    15.319303    13.266928     27.96447    5683.5012 
  958500      958.487    553.12435    22.736025   -432.63148   -409.89545   -2208.6636    8624.8653    7705.8349   -22956.691    15.319305     13.26693    27.964453    5683.4994 
  959000      958.987    549.36422    22.581466   -432.47221   -409.89074   -594.59189     10681.05    6691.2806   -19156.106    15.319307    13.266932    27.964435    5683.4976 
  959500      959.487    545.27741    22.413478    -432.2988   -409.88532   -1615.6402    8761.2141    6839.0714   -20447.206     15.31931    13.266934    27.964418    5683.4958 
  960000      959.987    575.80498    23.668306   -433.54846   -409.88016   -1271.7584     11819.71    6812.7948   -22447.781    15.319312    13.266936      27.9644     5683.494 
  960500      960.487    562.91499    23.138467   -433.01328   -409.87481   -1814.1719    11606.108    6441.9888   -23490.613    15.319314    13.266938    27.964383    5683.4922 
  961000      960.987     571.4536    23.489444   -433.35825    -409.8688   -1427.0339    8011.1237     8270.066   -20562.291    15.319317     13.26694    27.964365    5683.4904 
  961500      961.487    559.57751     23.00128   -432.86571   -409.86443   -831.80231    8751.5154    6262.4386   -17509.361    15.319319    13.266942    27.964348    5683.4886 
  962000      961.987    570.35605    23.444329   -433.30347   -409.85914   -2871.8378    10341.957    3739.2647   -22696.735    15.319321    13.266944     27.96433    5683.4868 
  962500      962.487    573.94016    23.591653   -433.44508   -409.85342   -2623.6238    10914.167    2734.5655   -21519.604    15.319324    13.266946    27.964313     5683.485 
  963000      962.987     563.0976    23.145973   -432.99391   -409.84794   -2116.5726    7551.7573    5871.8287   -19773.304    15.319326    13.266948    27.964295    5683.4831 
  963500      963.487    566.70329    23.294183   -433.13615   -409.84197    -2402.211    8935.9812    6705.9589   -22848.573    15.319328     13.26695    27.964278    5683.4813 
  964000      963.987    541.10784    22.242089   -432.07827   -409.83618   -605.54317    11147.593    6635.9131   -19600.136    15.319331    13.266952     27.96426    5683.4795 
  964500      964.487    563.79532    23.174652   -433.00477   -409.83012   -1907.7466    7341.8429    8406.6257   -21471.708    15.319333    13.266954    27.964243    5683.4777 
  965000      964.987    555.71703    22.842596   -432.66633   -409.82373   -1657.0134    6365.9042    9388.2118   -20725.156    15.319335    13.266956    27.964225    5683.4759 
  965500      965.487    583.83186    23.998249   -433.81705    -409.8188   -2622.2093    7313.7607     7649.855   -22830.244    15.319338    13.266958    27.964208    5683.4741 
  966000      965.987    560.16951    23.025614     -432.838   -409.81239   -2312.5001    8012.2975    8027.7229   -22977.521     15.31934    13.266961     27.96419    5683.4723 
  966500      966.487    559.60118    23.002253   -432.80847   -409.80622   -2188.8411    5865.4098    7827.3225   -20259.256    15.319342    13.266963    27.964173    5683.4705 
  967000      966.987    572.71314    23.541217   -433.33978   -409.79856   -2338.1031    5552.1092    6049.4569   -18615.876    15.319345    13.266965    27.964155    5683.4687 
  967500      967.487    590.91472    24.289388   -434.08307   -409.79369    -2162.027    9774.4454    8729.9781   -24990.504    15.319347    13.266967    27.964138    5683.4669 
  968000      967.987    582.03452    23.924369   -433.71104   -409.78667   -350.81844    9268.5383    9467.4169    -19788.41     15.31935    13.266969     27.96412    5683.4651 
  968500      968.487    581.70602    23.910867   -433.69125   -409.78038   -1208.0958    9010.4775    8061.9398   -20696.705    15.319352    13.266971    27.964103    5683.4633 
  969000      968.987    560.56365    23.041815   -432.81613   -409.77431   -482.18673     6378.854    8494.6141   -16320.028    15.319354    13.266973    27.964085    5683.4615 
  969500      969.487    566.96772    23.305053   -433.07207   -409.76702   -2218.8944    7359.4507    6616.7533   -20632.887    15.319357    13.266975    27.964068    5683.4597 
  970000      969.987    590.66354    24.279063   -434.04024   -409.76118   -3039.4327    4966.1682    6711.1585   -20795.625    15.319359    13.266977     27.96405    5683.4579 
  970500      970.487    584.61601    24.030481    -433.7853   -409.75481   -2150.8811     6464.752    7424.4868   -20341.882    15.319361    13.266979    27.964033     5683.456 
  971000      970.987    554.34269    22.786104   -432.53334   -409.74724   -2391.9654     7214.931    8479.6954   -22870.523    15.319364    13.266981    27.964015    5683.4542 
  971500      971.487    563.87979    23.178124   -432.91969   -409.74157    -2929.419    7775.2715    4640.4613    -21203.99    15.319366    13.266983    27.963998    5683.4524 
  972000      971.987     573.5828    23.576964   -433.30981   -409.73285   -1904.4627    6264.3773    10130.325    -22108.09    15.319368    13.266985     27.96398    5683.4506 
  972500      972.487    585.21143    24.054955   -433.78228   -409.72732   -3000.5816    5049.5688    7688.4583   -21739.772    15.319371    13.266987    27.963963    5683.4488 
  973000      972.987    541.98587    22.278181   -431.99849   -409.72031   -2537.7804    8088.9338    9736.3291   -25438.604    15.319373    13.266989    27.963945     5683.447 
  973500      973.487    564.34737    23.197344   -432.91237   -409.71503   -2085.7429    6795.6722    12100.765   -25153.666    15.319375    13.266991    27.963928    5683.4452 
  974000      973.987     550.1674     22.61448   -432.32127   -409.70679    -847.5653    8672.3244    6170.9521   -17385.972    15.319378    13.266993     27.96391    5683.4434 
  974500      974.487     586.2607    24.098086   -433.79962   -409.70153   -2616.7865    5251.8863    5399.8379   -18502.084     15.31938    13.266995    27.963893    5683.4416 
  975000      974.987     601.8664    24.739553   -434.43457   -409.69501   -2752.2534    3857.3417     9567.742   -21681.844    15.319382    13.266997    27.963875    5683.4398 
  975500      975.487    597.24641     24.54965   -434.23733   -409.68768   -4074.7428    2403.9504    7577.3787   -22205.558    15.319385    13.266999    27.963858     5683.438 
  976000      975.987    568.47795     23.36713   -433.04745   -409.68032   -2542.1893    5142.1266    8041.6239   -20810.318    15.319387    13.267002     27.96384    5683.4362 
  976500      976.487    580.44076    23.858858   -433.53263   -409.67378   -2859.4819    4763.1381    6099.5856   -19441.169    15.319389    13.267004    27.963823    5683.4344 
  977000      976.987    586.73142    24.117434   -433.78385   -409.66642   -2352.1205    5623.9194    10017.006   -22697.287    15.319392    13.267006    27.963805    5683.4326 
  977500      977.487    567.75317    23.337339   -432.99744    -409.6601   -1999.3987    9428.2651    7880.6113   -23307.073    15.319394    13.267008    27.963788    5683.4307 
  978000      977.987     574.8796    23.630268   -433.28456   -409.65429   -2678.7258    2898.8632    9164.1087   -20099.149    15.319397     13.26701     27.96377    5683.4289 
  978500      978.487    575.96636    23.674939   -433.31903   -409.64409   -2945.8283    3584.1494    11107.424   -23529.059    15.319399    13.267012    27.963753    5683.4271 
  979000      978.987    578.00634    23.758792   -433.39642   -409.63763    -1036.858    6096.9713    9857.3188   -19064.864    15.319401    13.267014    27.963735    5683.4253 
  979500      979.487    591.06977    24.295761   -433.92528   -409.62952   -2250.8775    8488.3007    5857.4204   -21098.354    15.319404    13.267016    27.963718    5683.4235 
  980000      979.987     568.5827    23.371436   -432.99478   -409.62334   -2485.7501     4737.302    9883.8442   -22078.397    15.319406    13.267018      27.9637    5683.4217 
  980500      980.487    584.95594    24.044454      -433.66   -409.61554   -2676.3234    3893.7339    10254.409   -22177.113    15.319408     13.26702    27.963683    5683.4199 
  981000      980.987    593.26718    24.386085   -433.99443   -409.60835   -2677.0725    7148.4341    8865.3645   -24045.016    15.319411    13.267022    27.963665    5683.4181 
  981500      981.487    563.49613    23.162354   -432.76335     -409.601   -3062.3868    4323.6559      10335.9   -23846.716    15.319413    13.267024    27.963648    5683.4163 
  982000      981.987    583.22439    23.973279   -433.56624   -409.59296   -2110.6668    6632.5214    6297.8156   -19262.337    15.319415    13.267026     27.96363    5683.4145 
  982500      982.487    548.47662    22.544981   -432.12991   -409.58493    -624.0104    7475.5018    11425.739   -20773.272    15.319418    13.267028    27.963613    5683.4127 
  983000      982.987    561.53571    23.081772   -432.65954   -409.57777   -2900.6554    4419.8994    10389.014    -23510.88     15.31942     13.26703    27.963595    5683.4109 
  983500      983.487    577.82566    23.751365   -433.32036     -409.569   -3379.3981    3576.9166    12034.492   -25749.603    15.319422    13.267032    27.963578    5683.4091 
  984000      983.987    546.98542    22.483686   -432.04566   -409.56198   -1443.5409    7491.8053    10633.138   -22455.566    15.319425    13.267034     27.96356    5683.4073 
  984500      984.487     535.3589    22.005781    -431.5594   -409.55362    -2283.458    7849.4149    8592.5927   -23292.382    15.319427    13.267036    27.963543    5683.4055 
  985000      984.987     582.8819    23.959201   -433.50461   -409.54541   -1014.9893    6220.5883    9747.4289   -19012.985    15.319429    13.267038    27.963525    5683.4036 
  985500      985.487    571.98048    23.511101   -433.04834   -409.53724   -2299.1336    5376.5314    8421.0134   -20694.946    15.319432     13.26704    27.963508    5683.4018 
  986000      985.987    567.20422    23.314774   -432.84463   -409.52986   -2427.0841    7201.5942    6036.5971   -20519.444    15.319434    13.267043     27.96349       5683.4 
  986500      986.487    575.29383    23.647295    -433.1688   -409.52151   -1293.0496    8778.3312    7695.7244   -20353.204    15.319436    13.267045    27.963473    5683.3982 
  987000      986.987    545.45801    22.420902    -431.9332    -409.5123   -1435.2142    6151.6978    8913.3903   -19370.731    15.319439    13.267047    27.963455    5683.3964 
  987500      987.487    566.18361    23.272822   -432.77607   -409.50324   -3162.1241    5424.3033    5115.6345    -20026.31    15.319441    13.267049    27.963438    5683.3946 
  988000      987.987    577.96069    23.756916   -433.25235   -409.49543   -2055.4343    6520.6286    8252.9567   -20939.888    15.319444    13.267051     27.96342    5683.3928 
  988500      988.487    590.07053    24.254688   -433.74171   -409.48702   -3138.3725    6420.0306    8604.9714   -24440.119    15.319446    13.267053    27.963403     5683.391 
  989000      988.987    570.93529    23.468139   -432.94595   -409.47781   -1256.8319    6418.3787    8152.6179   -18341.492    15.319448    13.267055    27.963385    5683.3892 
  989500      989.487    564.65026    23.209794   -432.67856   -409.46877    -1014.188    7985.7557    7970.9456   -18999.265    15.319451    13.267057    27.963368    5683.3874 
  990000      989.987    563.41144    23.158873   -432.61945   -409.46058   -1329.2835    5846.1173    9673.6577   -19507.626    15.319453    13.267059     27.96335    5683.3856 
  990500      990.487    584.77839    24.037155   -433.48952   -409.45236   -3282.7558    11334.275    6754.5796   -27937.122    15.319455    13.267061    27.963333    5683.3838 
  991000      990.987    573.50119     23.57361   -433.01722   -409.44361   -1048.3324      4695.87    8952.9444   -16793.812    15.319458    13.267063    27.963315     5683.382 
  991500      991.487     585.1866    24.053935   -433.48808   -409.43414   -3135.6094    6962.2673    6838.2594   -23207.355     15.31946    13.267065    27.963298    5683.3802 
  992000      991.987       586.51    24.108333     -433.533   -409.42467   -2262.9369     6040.646    6597.8583   -19427.315    15.319462    13.267067     27.96328    5683.3784 
  992500      992.487    578.82487    23.792438   -433.20873   -409.41629   -2444.1403    6470.1991    8240.2102    -22042.83    15.319465    13.267069    27.963263    5683.3765 
  993000      992.987    565.13065    23.229541   -432.63572   -409.40618   -1795.6492    5966.9145    9985.0273   -21338.889    15.319467    13.267071    27.963245    5683.3747 
  993500      993.487    537.73819    22.103581   -431.50111   -409.39753   -1820.4466     4102.508    10115.348   -19679.196    15.319469    13.267073    27.963228    5683.3729 
  994000      993.987    572.20629    23.520383   -432.90869   -409.38831   -3106.8279    4856.8816    7402.7833   -21580.149    15.319472    13.267075     27.96321    5683.3711 
  994500      994.487    582.59618    23.947456   -433.32617   -409.37872   -2970.6844    5531.1166    9297.5668   -23740.736    15.319474    13.267077    27.963193    5683.3693 
  995000      994.987    557.21366    22.904115   -432.27305   -409.36894   -2370.3791    4216.7242    11251.778   -22579.639    15.319476    13.267079    27.963175    5683.3675 
  995500      995.487    585.12008    24.051201   -433.41345   -409.36225   -2361.7018    8535.5227    5795.9843   -21416.612    15.319479    13.267081    27.963158    5683.3657 
  996000      995.987    565.80556    23.257283   -432.60872   -409.35143   -1222.6573    4856.9641      12272.1   -20797.036    15.319481    13.267084     27.96314    5683.3639 
  996500      996.487    577.50024    23.737989   -433.08035   -409.34236    -2216.066    9405.5008    8602.4303   -24656.129    15.319483    13.267086    27.963123    5683.3621 
  997000      996.987    571.91263    23.508312   -432.83994   -409.33163    -3838.401    6702.9053    5487.0127   -23705.121    15.319486    13.267088    27.963105    5683.3603 
  997500      997.487    602.46566    24.764186     -434.087   -409.32281   -2744.3246    8834.6454    8025.1609    -25092.78    15.319488     13.26709    27.963088    5683.3585 
  998000      997.987    582.88975    23.959524   -433.27309   -409.31357   -596.44334    9780.4408    8345.3511   -19915.122    15.319491    13.267092     27.96307    5683.3567 
  998500      998.487    576.21728    23.685253   -432.98961   -409.30436   -1399.6088    4918.2253    12027.437   -21144.488    15.319493    13.267094    27.963053    5683.3549 
  999000      998.987     563.4206    23.159249   -432.45414   -409.29489    -1938.379     7996.701    9320.0434   -23131.881    15.319495    13.267096    27.963035    5683.3531 
  999500      999.487    563.76953    23.173592   -432.45905   -409.28546   -1170.2481    4281.2888    10126.945   -17918.979    15.319498    13.267098    27.963018    5683.3513 
 1000000      999.987    579.67236    23.827274   -433.10317    -409.2759   -186.34914    5835.7103    9234.4728    -15629.23      15.3195      13.2671       27.963    5683.3494 
 1000013         1000    569.29369    23.400661   -432.67644   -409.27578    217.15536    6966.8011    7898.1878   -14213.523      15.3195      13.2671       27.963    5683.3494 
Loop time of 890.431 on 28 procs for 1000000 steps with 319 atoms

Performance: 97.032 ns/day, 0.247 hours/ns, 1123.051 timesteps/s
87.0% CPU use with 28 MPI tasks x no OpenMP threads

MPI task timing breakdown:
Section |  min time  |  avg time  |  max time  |%varavg| %total
---------------------------------------------------------------
Pair    | 743.28     | 776.08     | 806.12     |  61.5 | 87.16
Neigh   | 0.032683   | 0.047669   | 0.061791   |   3.7 |  0.01
Comm    | 72.891     | 100.78     | 134.66     | 161.2 | 11.32
Output  | 0.10126    | 0.10369    | 0.12737    |   1.4 |  0.01
Modify  | 5.044      | 8.2265     | 13.841     |  88.1 |  0.92
Other   |            | 5.199      |            |       |  0.58

Nlocal:    11.3929 ave 15 max 7 min
Histogram: 3 2 2 3 0 3 3 6 3 3
Nghost:    643.25 ave 691 max 590 min
Histogram: 4 3 1 3 1 3 1 2 7 3
Neighs:    699.036 ave 986 max 395 min
Histogram: 4 0 2 6 0 3 5 4 2 2
FullNghs:  1398.07 ave 1864 max 841 min
Histogram: 3 2 2 3 2 2 2 6 3 3

Total # of neighbors = 39146
Ave neighs/atom = 122.715
Neighbor list builds = 712
Dangerous builds = 0

write_restart   POSCAR_1x1x1.rest

#unfix    1
#undump   1
Total wall time: 0:14:50
