LAMMPS (7 Dec 2015)
#----------- Initialize Simulation ------------ restart01
#processors	2 2 2
units		metal
boundary	p p p     ## periodic boundary condition  on x y z axis ##
atom_style atomic
#atom_modify map array sort 0 0.0

read_data	POSCAR_1x1x1.lammps
  triclinic box = (0 0 0) to (15.3481 13.2918 27.7531) with tilt (-7.67395 0 0)
  2 by 2 by 7 MPI processor grid
  reading atoms ...
  319 atoms

#----------- Define Potential -----------------
pair_style meam
pair_coeff * * MgAlZn.library.meam Mg Al Zn MgAlZn.parameter.meam Mg Al Zn 	#1=Mg 2=Al 3=Zn	#atoms/mass

#----------- Neighbor List --------------------
neighbor 2.0 bin
neigh_modify delay 10 check yes

#--------------  Run a simulation (minimization) ---------------------------------------
minimize       1.0e-4   1.0e-6   100   1000          #結構優化的條件
WARNING: Resetting reneighboring criteria during minimization (../min.cpp:168)
Neighbor list info ...
  2 neighbor list requests
  update every 1 steps, delay 0 steps, check yes
  max neighbors/atom: 2000, page size: 100000
  master list distance cutoff = 8
  ghost atom cutoff = 8
  binsize = 4 -> bins = 6 4 7
Memory usage per processor = 8.65742 Mbytes
Step Temp E_pair E_mol TotEng Press 
       0            0   -434.90646            0   -434.90646   -6560.3887 
      13            0   -456.53142            0   -456.53142   -22672.063 
Loop time of 0.0212108 on 28 procs for 13 steps with 319 atoms

81.0% CPU use with 28 MPI tasks x no OpenMP threads

Minimization stats:
  Stopping criterion = energy tolerance
  Energy initial, next-to-last, final = 
        -434.906459602     -456.493499247     -456.531424183
  Force two-norm initial, final = 19.3071 0.743341
  Force max component initial, final = 2.8715 0.125863
  Final line search alpha, max atom move = 0.42937 0.0540418
  Iterations, force evaluations = 13 23

MPI task timing breakdown:
Section |  min time  |  avg time  |  max time  |%varavg| %total
---------------------------------------------------------------
Pair    | 0.017296   | 0.01809    | 0.01916    |   0.4 | 85.28
Neigh   | 0          | 0          | 0          |   0.0 |  0.00
Comm    | 0.001261   | 0.0022836  | 0.0030731  |   1.1 | 10.77
Output  | 0          | 0          | 0          |   0.0 |  0.00
Modify  | 0          | 0          | 0          |   0.0 |  0.00
Other   |            | 0.0008376  |            |       |  3.95

Nlocal:    11.3929 ave 16 max 7 min
Histogram: 4 1 3 2 3 4 5 2 2 2
Nghost:    640.214 ave 686 max 588 min
Histogram: 5 3 0 0 6 2 0 3 5 4
Neighs:    701.179 ave 982 max 398 min
Histogram: 4 1 4 1 3 2 3 3 4 3
FullNghs:  1402.36 ave 2018 max 839 min
Histogram: 4 1 3 2 4 3 5 2 2 2

Total # of neighbors = 39266
Ave neighs/atom = 123.091
Neighbor list builds = 0
Dangerous builds = 0
velocity all  create 600.0 4928459 #rot yes dist gaussian

#--------------  Run a simulation (Relaxation)  ----------------------------------------
fix  1  all  nvt   temp  600.0  600.0  100				#damping constant
#fix  2  all  npt   temp  393.0  393.0  50 iso 0.0 0.0 1000.0
fix  2  all deform 1 x final 0 15.3528 y final 0 13.296 z final 0 27.7181 xy final -7.6763 units lattice
#fix  3  all  npt   temp  393.0  393.0  50 z 0.0 0.0 1000.0

#variable b equal 1
#fix 2 all efield  0.0  0.0  v_b
#compute pot all pe/atom


#----------- Output --------------------------
thermo	 500
timestep  0.001		#1.0 fs
thermo_style	custom step time temp ke pe etotal press pxx pyy pzz lx ly lz vol

dump 1 all custom 10000 dump.eq id type x y z
dump_modify 1 sort  id

run        1000000	#1000 ps
Neighbor list info ...
  2 neighbor list requests
  update every 1 steps, delay 10 steps, check yes
  max neighbors/atom: 2000, page size: 100000
  master list distance cutoff = 8
  ghost atom cutoff = 8
  binsize = 4 -> bins = 6 4 7
Memory usage per processor = 7.56336 Mbytes
Step Time Temp KinEng PotEng TotEng Press Pxx Pyy Pzz Lx Ly Lz Volume 
      13            0          600    24.662836   -456.53142   -431.86859   -18019.286   -7922.6904   -10997.267     -35137.9      15.3481      13.2918      27.7531      5661.74 
     500        0.487    310.05355    12.744666   -444.60929   -431.86462   -10446.614   -149.77871   -4117.5476   -27072.517    15.348102    13.291802    27.753083    5661.7382 
    1000        0.987    304.05006    12.497894   -444.36218   -431.86428   -12597.176    -2344.382   -5056.1268   -30391.018    15.348105    13.291804    27.753065    5661.7364 
    1500        1.487     313.7918    12.898326   -444.76213   -431.86381   -10628.924   -2403.1242   -4796.5474   -24687.101    15.348107    13.291806    27.753048    5661.7346 
    2000        1.987    278.87928    11.463256   -443.32545    -431.8622   -11265.109   -4238.1767   -2580.4502   -26976.701    15.348109    13.291808     27.75303    5661.7328 
    2500        2.487      314.029    12.908076   -444.76942   -431.86134   -11281.428   -2860.6484    -5724.343   -25259.292    15.348112     13.29181    27.753013     5661.731 
    3000        2.987    333.90484    13.725067   -445.58512   -431.86005   -11717.561   -3388.7489   -6526.1269   -25237.806    15.348114    13.291813    27.752995    5661.7292 
    3500        3.487    325.62764    13.384835   -445.24281   -431.85797   -11335.498   -2191.5928   -4455.5609   -27359.341    15.348116    13.291815    27.752978    5661.7273 
    4000        3.987    311.79643    12.816307   -444.67204   -431.85574   -12084.783   -1396.3364   -5068.6387   -29789.375    15.348119    13.291817     27.75296    5661.7255 
    4500        4.487    305.51151    12.557967   -444.41093   -431.85296   -11556.248    -2224.918   -4778.1455    -27665.68    15.348121    13.291819    27.752943    5661.7237 
    5000        4.987    324.19864    13.326096   -445.17599   -431.84989   -11192.455   -2001.2322   -1122.9411    -30453.19    15.348123    13.291821    27.752925    5661.7219 
    5500        5.487    306.83309     12.61229   -444.45912   -431.84683   -11791.278    -3876.097   -5292.0177   -26205.721    15.348126    13.291823    27.752908    5661.7201 
    6000        5.987    321.35317    13.209134   -445.05252   -431.84339   -11677.895    -1576.508   -4491.4415   -28965.736    15.348128    13.291825     27.75289    5661.7183 
    6500        6.487    325.40406    13.375645   -445.21543   -431.83978   -11269.547   -2565.1397   -4536.9949   -26706.505     15.34813    13.291827    27.752873    5661.7165 
    7000        6.987     328.2634    13.493177   -445.32909   -431.83591   -11343.965   -1885.9528   -5864.1602   -26281.782    15.348133    13.291829    27.752855    5661.7147 
    7500        7.487    309.81327     12.73479   -444.56577   -431.83098   -10765.924    1037.5194   -5714.4822   -27620.809    15.348135    13.291831    27.752838    5661.7129 
    8000        7.987    320.79998    13.186395   -445.01291   -431.82651   -12383.387   -2206.2398   -6200.1272   -28743.793    15.348138    13.291834     27.75282    5661.7111 
    8500        8.487    327.21794    13.450204   -445.27194   -431.82173   -11712.589   -4247.5758   -4740.2792   -26149.913     15.34814    13.291836    27.752803    5661.7093 
    9000        8.987    315.63204    12.973968   -444.79032   -431.81636   -12547.178   -4146.8514   -4306.1712   -29188.513    15.348142    13.291838    27.752785    5661.7075 
    9500        9.487    314.53286    12.928787    -444.7393   -431.81051   -10885.604   -1249.0135    -2992.246   -28415.553    15.348145     13.29184    27.752768    5661.7056 
   10000        9.987     307.9838     12.65959   -444.46406   -431.80447   -10540.431   -1643.5772   -4330.0129   -25647.704    15.348147    13.291842     27.75275    5661.7038 
   10500       10.487    314.66194    12.934093   -444.73269    -431.7986   -12150.179   -2036.7578    -4161.642   -30252.138    15.348149    13.291844    27.752733     5661.702 
   11000       10.987     325.8456    13.393794   -445.18566   -431.79187   -11611.589   -1704.8769   -4476.9816   -28652.909    15.348152    13.291846    27.752715    5661.7002 
   11500       11.487    311.17466    12.790749    -444.5757   -431.78495   -13054.302    -2896.487   -6869.2171   -29397.201    15.348154    13.291848    27.752698    5661.6984 
   12000       11.987    329.61714    13.548822   -445.32643   -431.77761   -11991.154   -1937.4079   -5128.7478   -28907.306    15.348156     13.29185     27.75268    5661.6966 
   12500       12.487    309.40843    12.718149   -444.48813   -431.76998    -10062.98   -1833.6413   -4737.1969   -23618.102    15.348159    13.291852    27.752663    5661.6948 
   13000       12.987    295.25045    12.136189   -443.89819     -431.762   -11111.133   -1354.8863   -3219.5128   -28758.999    15.348161    13.291855    27.752645     5661.693 
   13500       13.487    305.36981    12.552142   -444.30602   -431.75388   -10694.326   -2445.8079   -5486.4234   -24150.745    15.348163    13.291857    27.752628    5661.6912 
   14000       13.987    311.45926    12.802448   -444.54821   -431.74576   -12247.674   -2874.7122   -6801.9922   -27066.318    15.348166    13.291859     27.75261    5661.6894 
   14500       14.487    341.80138    14.049652    -445.7871   -431.73745   -12449.387   -2951.7251   -3400.5909   -30995.844    15.348168    13.291861    27.752593    5661.6876 
   15000       14.987    323.33719    13.290687    -445.0187   -431.72801   -11411.048   -3702.4584   -1930.5242   -28600.162     15.34817    13.291863    27.752575    5661.6857 
   15500       15.487    310.96717     12.78222   -444.50059   -431.71837   -11686.179   -3476.9667    -2631.896   -28949.675    15.348173    13.291865    27.752558    5661.6839 
   16000       15.987    321.27859    13.206069   -444.91499   -431.70892   -12489.924   -4862.8968   -1622.9341   -30983.942    15.348175    13.291867     27.75254    5661.6821 
   16500       16.487     321.8647     13.23016   -444.92922   -431.69906    -12204.79   -3574.3917   -5284.1177   -27755.859    15.348177    13.291869    27.752523    5661.6803 
   17000       16.987    331.16662    13.612513   -445.30139   -431.68888    -11347.97   -2916.0252   -2436.6701   -28691.215     15.34818    13.291871    27.752505    5661.6785 
   17500       17.487    320.50327    13.174199   -444.85238   -431.67818   -11072.384   -2078.8804   -2175.6644   -28962.606    15.348182    13.291873    27.752488    5661.6767 
   18000       17.987    330.63929    13.590837   -445.25834   -431.66751   -11865.953   -1538.6907   -4971.5134   -29087.656    15.348185    13.291876     27.75247    5661.6749 
   18500       18.487    316.00465    12.989284   -444.64543   -431.65614   -12514.283   -2253.6915   -6700.9015   -28588.255    15.348187    13.291878    27.752453    5661.6731 
   19000       18.987     317.7468    13.060895   -444.70563   -431.64474   -11621.452   -1451.6656   -4248.2895     -29164.4    15.348189     13.29188    27.752435    5661.6713 
   19500       19.487    310.54598    12.764907   -444.39731   -431.63241   -12308.315   -3646.2189   -5797.5538   -27481.173    15.348192    13.291882    27.752418    5661.6695 
   20000       19.987    320.91773    13.191235   -444.81176   -431.62053   -12053.194   -2353.0387   -4377.6259   -29428.916    15.348194    13.291884      27.7524    5661.6677 
   20500       20.487    328.93972    13.520977   -445.12964   -431.60867   -12185.051   -3512.3851   -3765.5628   -29277.205    15.348196    13.291886    27.752383    5661.6658 
   21000       20.987    328.91475    13.519951   -445.11555    -431.5956   -11998.981   -2861.7607   -5391.9872   -27743.195    15.348199    13.291888    27.752365     5661.664 
   21500       21.487    319.91137    13.149869   -444.73272   -431.58285   -11758.474   -1693.8654   -3933.2759   -29648.281    15.348201     13.29189    27.752348    5661.6622 
   22000       21.987    303.87557    12.490722   -444.06027   -431.56955   -10466.525   -684.89031    -1222.316   -29492.369    15.348203    13.291892     27.75233    5661.6604 
   22500       22.487    332.01363    13.647329   -445.20368   -431.55635   -10991.797   -651.76877   -3777.8028   -28545.821    15.348206    13.291894    27.752313    5661.6586 
   23000       22.987    313.63896    12.892044   -444.43415   -431.54211   -11534.216    1576.2732    -5640.231   -30538.692    15.348208    13.291897    27.752295    5661.6568 
   23500       23.487     310.7511    12.773339   -444.30171   -431.52837   -10798.804   -652.69717     -1717.84   -30025.874     15.34821    13.291899    27.752278     5661.655 
   24000       23.987    329.93096    13.561722   -445.07572     -431.514    -11810.53   -1777.7787   -3967.5732   -29686.238    15.348213    13.291901     27.75226    5661.6532 
   24500       24.487    313.65951    12.892888    -444.3921   -431.49921   -10981.612   -1722.4028   -4890.4387   -26331.996    15.348215    13.291903    27.752243    5661.6514 
   25000       24.987    323.35816    13.291549   -444.77639   -431.48485   -11280.644   -4159.1529   -4338.4263   -25344.352    15.348217    13.291905    27.752225    5661.6496 
   25500       25.487    310.48918    12.762573   -444.23214   -431.46957   -10527.586   -1325.1609    -4550.289   -25707.307     15.34822    13.291907    27.752208    5661.6478 
   26000       25.987    317.87485    13.066159   -444.52041   -431.45425   -10821.892   -38.193615   -5334.7957   -27092.688    15.348222    13.291909     27.75219     5661.646 
   26500       26.487    312.13869    12.830375   -444.26947    -431.4391   -11477.859   -1692.1439   -1796.6328     -30944.8    15.348224    13.291911    27.752173    5661.6441 
   27000       26.987    328.61156    13.507488   -444.93072   -431.42323   -10636.457   -1391.2724   -4734.9538   -25783.146    15.348227    13.291913    27.752155    5661.6423 
   27500       27.487    320.18912    13.161286   -444.56849   -431.40721   -11096.641   -691.01257   -5318.8353   -27280.074    15.348229    13.291915    27.752138    5661.6405 
   28000       27.987    318.11849    13.076173    -444.4667   -431.39052   -11995.573   -2996.4785    -2155.232    -30835.01    15.348232    13.291918     27.75212    5661.6387 
   28500       28.487    325.21121    13.367718   -444.74208   -431.37436   -11997.746   -3768.9429   -2423.4886   -29800.808    15.348234     13.29192    27.752103    5661.6369 
   29000       28.987    311.09946    12.787658   -444.14507   -431.35741   -11568.407   -3590.1913    -3655.175   -27459.854    15.348236    13.291922    27.752085    5661.6351 
   29500       29.487    317.45509    13.048904    -444.3895    -431.3406   -10358.791   -131.02859   -4965.0274   -25980.318    15.348239    13.291924    27.752068    5661.6333 
   30000       29.987    328.50942     13.50329   -444.82695   -431.32366   -11062.341   -2153.4601   -4938.6142   -26094.948    15.348241    13.291926     27.75205    5661.6315 
   30500       30.487     341.7932    14.049316   -445.35565   -431.30634   -11579.205   -1513.8747    -5190.243   -28033.498    15.348243    13.291928    27.752033    5661.6297 
   31000       30.987    341.96061    14.056197   -445.34513   -431.28894   -12627.944   -3503.2462     -2989.06   -31391.527    15.348246     13.29193    27.752015    5661.6279 
   31500       31.487    313.53678    12.887844   -444.15866   -431.27082   -10877.257    449.81522   -3024.1221   -30057.463    15.348248    13.291932    27.751998    5661.6261 
   32000       31.987    316.20579    12.997552   -444.25077   -431.25321   -11112.069   -1317.4301   -4316.7927   -27701.985     15.34825    13.291934     27.75198    5661.6242 
   32500       32.487    329.20172    13.531746   -444.76728   -431.23553   -11031.349   -2935.2026   -3694.1643   -26464.679    15.348253    13.291936    27.751963    5661.6224 
   33000       32.987    316.33126     13.00271   -444.22052   -431.21781    -11676.54   -3068.3871   -4249.6714    -27711.56    15.348255    13.291939    27.751945    5661.6206 
   33500       33.487    337.32492    13.865648   -445.06491   -431.19926    -11573.26   -2879.0378   -4178.5563   -27662.185    15.348257    13.291941    27.751928    5661.6188 
   34000       33.987    328.94185    13.521064   -444.70218   -431.18111   -11405.646   -2755.4484   -3612.2677   -27849.222     15.34826    13.291943     27.75191     5661.617 
   34500       34.487    345.34805    14.195437   -445.35826   -431.16282   -11742.558   -2847.5496   -3138.1774   -29241.946    15.348262    13.291945    27.751893    5661.6152 
   35000       34.987    327.84554    13.476001   -444.62013   -431.14413   -10843.791   -3198.0834   -2842.8084    -26490.48    15.348264    13.291947    27.751875    5661.6134 
   35500       35.487    328.09515    13.486261   -444.61192   -431.12566   -11696.029   -2654.4096   -4963.8292    -27469.85    15.348267    13.291949    27.751858    5661.6116 
   36000       35.987    331.03855    13.607249     -444.714   -431.10676   -11174.842   -1747.8269   -2980.4513   -28796.249    15.348269    13.291951     27.75184    5661.6098 
   36500       36.487     310.6421    12.768858   -443.85676   -431.08791   -10643.945   -2763.3117   -3116.6109   -26051.914    15.348271    13.291953    27.751823     5661.608 
   37000       36.987     339.7927    13.967086    -445.0365   -431.06941   -11727.394   -3237.9929   -3718.9137   -28225.277    15.348274    13.291955    27.751805    5661.6062 
   37500       37.487     331.6134    13.630878     -444.681   -431.05012   -12039.238     -2075.44   -5207.7938   -28834.482    15.348276    13.291957    27.751788    5661.6044 
   38000       37.987    334.05775    13.731352    -444.7625   -431.03114   -12124.485   -5532.7823   -3692.7977   -27147.876    15.348279     13.29196     27.75177    5661.6025 
   38500       38.487    321.76586    13.226098   -444.23835   -431.01225    -10395.24   -3572.2503   -3063.9922   -24549.477    15.348281    13.291962    27.751753    5661.6007 
   39000       38.987    342.97912    14.098063    -445.0912   -430.99314   -11849.954   -2555.4899    -5744.345   -27250.027    15.348283    13.291964    27.751735    5661.5989 
   39500       39.487    350.36729    14.401752   -445.37585    -430.9741   -12354.983   -3974.3186    -5769.235   -27321.395    15.348286    13.291966    27.751718    5661.5971 
   40000       39.987    309.67993    12.729309   -443.68377   -430.95446   -11972.619   -2705.4666   -3781.0419   -29431.349    15.348288    13.291968      27.7517    5661.5953 
   40500       40.487    316.36974    13.004291   -443.93951   -430.93522   -11856.865   -1039.7904   -3260.4263   -31270.378     15.34829     13.29197    27.751683    5661.5935 
   41000       40.987    310.82511    12.776381   -443.69261   -430.91623   -11664.645   -1274.1975   -5584.9055   -28134.832    15.348293    13.291972    27.751665    5661.5917 
   41500       41.487    323.19297    13.284758   -444.18186    -430.8971   -11371.168   -1689.2919   -4038.8493   -28385.361    15.348295    13.291974    27.751648    5661.5899 
   42000       41.987    328.02146    13.483232   -444.36167   -430.87843    -10456.58   -613.36014   -3627.6616   -27128.718    15.348297    13.291976     27.75163    5661.5881 
   42500       42.487    341.71884    14.046259   -444.90563   -430.85937   -10683.613   -767.37669    -3214.699   -28068.762      15.3483    13.291978    27.751613    5661.5863 
   43000       42.987    330.81034    13.597869   -444.43786      -430.84    -12041.22   -2791.1133    -2658.282   -30674.263    15.348302    13.291981    27.751595    5661.5845 
   43500       43.487     335.6121    13.795243   -444.61662   -430.82138   -11933.922   -1269.6413   -5125.7987   -29406.325    15.348304    13.291983    27.751578    5661.5826 
   44000       43.987    329.04521    13.525313   -444.32762   -430.80231   -10872.982   -2197.6389   -4124.3557   -26296.951    15.348307    13.291985     27.75156    5661.5808 
   44500       44.487    334.28519    13.740701   -444.52381   -430.78311   -10908.423   -2066.7813   -2965.5543   -27692.933    15.348309    13.291987    27.751543     5661.579 
   45000       44.987    327.11062    13.445792    -444.2103   -430.76451   -11663.817   -580.14031   -4332.7108   -30078.601    15.348311    13.291989    27.751525    5661.5772 
   45500       45.487    333.08831    13.691504   -444.43744   -430.74593   -10299.625   -962.12365   -3936.5403    -26000.21    15.348314    13.291991    27.751508    5661.5754 
   46000       45.987    332.45566    13.665499   -444.39265   -430.72715   -11188.239   -3277.5465   -4016.6151   -26270.554    15.348316    13.291993     27.75149    5661.5736 
   46500       46.487    334.82619    13.762939   -444.47128   -430.70834   -10358.753   -2198.4442   -3898.5326   -24979.281    15.348318    13.291995    27.751473    5661.5718 
   47000       46.987     337.5849    13.876335   -444.56601   -430.68968    -12362.52   -2950.6899   -3596.6212   -30540.249    15.348321    13.291997    27.751455      5661.57 
   47500       47.487    341.84311    14.051368   -444.72252   -430.67115   -11857.971   -3094.5058   -5296.3849   -27183.021    15.348323    13.291999    27.751438    5661.5682 
   48000       47.987    320.05256    13.155673    -443.8087   -430.65303   -9828.6204    -1482.642    -3113.432   -24889.787    15.348326    13.292002     27.75142    5661.5664 
   48500       48.487     319.5054    13.133182   -443.76769   -430.63451   -11733.993    -2654.423   -2699.7007   -29847.857    15.348328    13.292004    27.751403    5661.5646 
   49000       48.987    327.86253    13.476699   -444.09299   -430.61629   -11136.442   -1707.6209   -4270.2644    -27431.44     15.34833    13.292006    27.751385    5661.5627 
   49500       49.487    316.18539    12.996714   -443.59445   -430.59774   -9533.8754   -1644.9966   -2991.9874   -23964.642    15.348333    13.292008    27.751368    5661.5609 
   50000       49.987    338.25284     13.90379   -444.48399    -430.5802   -11626.958   -3536.3367   -4635.6093   -26708.929    15.348335     13.29201     27.75135    5661.5591 
   50500       50.487    321.92556    13.232662   -443.79475   -430.56209   -11749.021   -3339.9037   -4864.9897   -27042.168    15.348337    13.292012    27.751333    5661.5573 
   51000       50.987    329.34238    13.537528   -444.08205   -430.54452   -10164.619   -1731.0391    308.74086   -29071.559     15.34834    13.292014    27.751315    5661.5555 
   51500       51.487    341.27808    14.028142   -444.55481   -430.52667   -11023.336   -1724.9538   -3467.1519   -27877.903    15.348342    13.292016    27.751298    5661.5537 
   52000       51.987    340.27109     13.98675   -444.49569   -430.50894   -11158.378   -1690.9386   -3817.1252    -27967.07    15.348344    13.292018     27.75128    5661.5519 
   52500       52.487     333.5083    13.708767   -444.20018   -430.49141    -11467.56   -2225.5593   -2887.9813    -29289.14    15.348347     13.29202    27.751263    5661.5501 
   53000       52.987    335.34755    13.784369   -444.25858   -430.47422   -10784.592   -2733.9024   -3440.7431   -26179.131    15.348349    13.292023    27.751245    5661.5483 
   53500       53.487    317.65097    13.056956   -443.51346   -430.45651   -9658.4854    67.280687   -3443.4063   -25599.331    15.348351    13.292025    27.751228    5661.5465 
   54000       53.987    342.55524    14.080639   -444.52041   -430.43977   -10831.078   -466.78228   -4275.1504   -27751.303    15.348354    13.292027     27.75121    5661.5447 
   54500       54.487    329.34404    13.537597   -443.96001   -430.42241   -10560.126   -195.94497    -3238.902   -28245.531    15.348356    13.292029    27.751193    5661.5428 
   55000       54.987    342.72942    14.087799   -444.49324   -430.40544   -10888.853   -2172.8599   -2271.1291    -28222.57    15.348358    13.292031    27.751175     5661.541 
   55500       55.487    313.87954    12.901932   -443.29009   -430.38816   -10463.373   -1667.7423    -4322.153   -25400.223    15.348361    13.292033    27.751158    5661.5392 
   56000       55.987    348.10732    14.308856   -444.68074   -430.37188   -11349.407   -2741.6008   -4724.7456   -26581.874    15.348363    13.292035     27.75114    5661.5374 
   56500       56.487    323.83679    13.311223   -443.66618   -430.35496   -10661.704    -2059.833   -1526.1541   -28399.126    15.348365    13.292037    27.751123    5661.5356 
   57000       56.987    338.90787    13.930715   -444.26908   -430.33836   -10903.242   -1297.7458   -3558.9894   -27852.991    15.348368    13.292039    27.751105    5661.5338 
   57500       57.487     328.6204    13.507852   -443.82932   -430.32147    -11238.93   -2376.9662   -1970.6931   -29369.131     15.34837    13.292041    27.751088     5661.532 
   58000       57.987    340.05689    13.977945     -444.283   -430.30505   -10518.483   -737.14885   -5196.2363   -25622.063    15.348373    13.292044     27.75107    5661.5302 
   58500       58.487    324.26225    13.328711    -443.6174   -430.28869   -9688.2911   -255.17411    -601.9166   -28207.782    15.348375    13.292046    27.751053    5661.5284 
   59000       58.987    339.46311    13.953538   -444.22657   -430.27303   -11114.726   -2319.0626   -1676.6893   -29348.427    15.348377    13.292048    27.751035    5661.5266 
   59500       59.487    342.79738    14.090592   -444.34717   -430.25657   -10500.907   -77.564041   -3586.7264    -27838.43     15.34838     13.29205    27.751018    5661.5248 
   60000       59.987     330.8821    13.600818   -443.84109   -430.24027   -9791.3818    -2359.017    -4410.071   -22605.058    15.348382    13.292052       27.751     5661.523 
   60500       60.487    339.21871    13.943492   -444.16791   -430.22441   -11541.797   -2741.2767   -4403.5798   -27480.534    15.348384    13.292054    27.750983    5661.5211 
   61000       60.987    344.25137    14.150358   -444.35857   -430.20822   -10249.989   -464.93856   -1779.6044   -28505.424    15.348387    13.292056    27.750965    5661.5193 
   61500       61.487    330.02454    13.565568   -443.75737    -430.1918    -10723.55   -1100.9449   -3927.4617   -27142.245    15.348389    13.292058    27.750948    5661.5175 
   62000       61.987      328.667    13.509767   -443.68569   -430.17592    -10086.14   -435.33221   -5222.9148   -24600.172    15.348391     13.29206     27.75093    5661.5157 
   62500       62.487     328.7848    13.514609   -443.67458   -430.15997   -9415.8922    1109.1739   -561.29862   -28795.552    15.348394    13.292062    27.750913    5661.5139 
   63000       62.987    316.53697    13.011165    -443.1553   -430.14413   -10561.405   -134.45843     -2627.89   -28921.868    15.348396    13.292065    27.750895    5661.5121 
   63500       63.487    345.75864    14.212314   -444.34055   -430.12824    -10102.09   -804.76224   -3736.8528   -25764.656    15.348398    13.292067    27.750878    5661.5103 
   64000       63.987    328.13975    13.488095   -443.60052   -430.11243   -10669.071    -1227.816   -3454.7853   -27324.613    15.348401    13.292069     27.75086    5661.5085 
   64500       64.487    343.54362    14.121266   -444.21814   -430.09687   -10611.872   -1098.0577   -3946.4282   -26791.129    15.348403    13.292071    27.750843    5661.5067 
   65000       64.987    339.34868    13.948835   -444.02939   -430.08055   -9630.0644    -2282.351   -2655.7493   -23952.093    15.348405    13.292073    27.750825    5661.5049 
   65500       65.487    349.28179    14.357132    -444.4224   -430.06527   -11573.697   -886.89378   -4910.4353   -28923.763    15.348408    13.292075    27.750808    5661.5031 
   66000       65.987    334.28121    13.740538   -443.78943   -430.04889   -10456.304   -2297.4368   -1686.6191   -27384.857     15.34841    13.292077     27.75079    5661.5012 
   66500       66.487    349.32461    14.358893   -444.39255   -430.03366   -11880.405   -4354.5831   -3231.4517   -28055.182    15.348412    13.292079    27.750773    5661.4994 
   67000       66.987    354.16814    14.557984   -444.57617   -430.01819   -10376.711   -2523.0716   -3524.7748   -25082.288    15.348415    13.292081    27.750755    5661.4976 
   67500       67.487    323.31418    13.289741   -443.29189   -430.00215   -10842.841   -703.99305   -4860.5542   -26963.977    15.348417    13.292083    27.750738    5661.4958 
   68000       67.987    354.27131    14.562225   -444.54894   -429.98671   -12425.868   -3388.0665    -3573.202   -30316.335     15.34842    13.292086     27.75072     5661.494 
   68500       68.487    347.33142    14.276963   -444.24785   -429.97089   -10239.766   -4143.2285   -2288.8523   -24287.216    15.348422    13.292088    27.750703    5661.4922 
   69000       68.987    330.49511    13.584911   -443.53976   -429.95485    -10150.85   -1016.6135   -1479.3052   -27956.632    15.348424     13.29209    27.750685    5661.4904 
   69500       69.487    348.66406    14.331741   -444.27144    -429.9397   -10844.071   -2775.7494   -2765.0225   -26991.442    15.348427    13.292092    27.750668    5661.4886 
   70000       69.987    340.01521    13.976232   -443.89993    -429.9237   -10799.698   -1270.3921   -3012.3815    -28116.32    15.348429    13.292094     27.75065    5661.4868 
   70500       70.487    346.65583    14.249193   -444.15717   -429.90798   -10258.729   -2441.7555   -4785.2127   -23549.219    15.348431    13.292096    27.750633     5661.485 
   71000       70.987    349.47992    14.365276   -444.25732   -429.89205   -10665.746   -874.22272   -4031.5931   -27091.423    15.348434    13.292098    27.750615    5661.4832 
   71500       71.487    343.56269     14.12205   -443.99836   -429.87631    -12048.85   -1968.6525   -3512.8059   -30665.092    15.348436      13.2921    27.750598    5661.4813 
   72000       71.987    344.98945    14.180697   -444.04104   -429.86034   -10729.425   -2253.1342   -3564.8647   -26370.277    15.348438    13.292102     27.75058    5661.4795 
   72500       72.487    344.65699    14.167031   -444.01159   -429.84456   -10127.979   -1364.1288   -1097.6208   -27922.188    15.348441    13.292104    27.750563    5661.4777 
   73000       72.987    328.11775     13.48719   -443.31593   -429.82874   -9887.0133   -3225.4777   -1211.6535   -25223.909    15.348443    13.292107    27.750545    5661.4759 
   73500       73.487    331.98738     13.64625   -443.45902   -429.81277    -10431.09    535.53136   -4764.6201   -27064.181    15.348445    13.292109    27.750528    5661.4741 
   74000       73.987    337.14642    13.858311   -443.65514   -429.79683   -11497.843   -2594.3199     -2267.49   -29631.719    15.348448    13.292111     27.75051    5661.4723 
   74500       74.487    341.17793    14.024025   -443.80462   -429.78059   -9497.9847   -988.63449   -1213.1052   -26292.215     15.34845    13.292113    27.750493    5661.4705 
   75000       74.987    343.18042    14.106337   -443.87091   -429.76457    -11283.25    1412.0433    -6821.241   -28440.551    15.348452    13.292115    27.750475    5661.4687 
   75500       75.487    357.08197    14.677756   -444.42671   -429.74895   -10496.536   -233.30362   -5351.7051   -25904.599    15.348455    13.292117    27.750458    5661.4669 
   76000       75.987    337.42917    13.869934   -443.60215   -429.73222   -10528.743   -1505.0399   -1735.5081    -28345.68    15.348457    13.292119     27.75044    5661.4651 
   76500       76.487    347.08152    14.266691   -443.98304   -429.71635   -10018.585    1053.0836   -3200.0659   -27908.774    15.348459    13.292121    27.750423    5661.4633 
   77000       76.987    330.99177    13.605326   -443.30482   -429.69949   -10744.962   -2978.9503   -2265.0447    -26990.89    15.348462    13.292123    27.750405    5661.4614 
   77500       77.487    336.66777    13.838637   -443.52226   -429.68362   -9223.7396   -1435.8316   -1278.0069    -24957.38    15.348464    13.292125    27.750388    5661.4596 
   78000       77.987    343.53091    14.120744    -443.7878   -429.66706   -11126.166   -2259.4214   -4042.9718   -27076.106    15.348467    13.292128     27.75037    5661.4578 
   78500       78.487    338.46415    13.912476   -443.56292   -429.65045    -10648.66   -931.03165   -1447.3892   -29567.559    15.348469     13.29213    27.750353     5661.456 
   79000       78.987    334.64477    13.755482   -443.38923   -429.63375   -10348.789    317.09486    -3833.156   -27530.307    15.348471    13.292132    27.750335    5661.4542 
   79500       79.487    328.53367    13.504286   -443.12137   -429.61708   -10463.999   -2567.3891   -4793.0313   -24031.578    15.348474    13.292134    27.750318    5661.4524 
   80000       79.987    341.33599    14.030522   -443.63128   -429.60076   -10675.776   -549.43154   -3168.1115   -28309.786    15.348476    13.292136      27.7503    5661.4506 
   80500       80.487    364.84889    14.997014   -444.58176   -429.58475    -10654.73   -79.133359   -5132.6737   -26752.383    15.348478    13.292138    27.750283    5661.4488 
   81000       80.987    346.15597    14.228646   -443.79618   -429.56753   -10013.082    752.32322   -6374.6325   -24416.938    15.348481     13.29214    27.750265     5661.447 
   81500       81.487     351.3809    14.443416   -443.99413   -429.55072   -10571.295   -2181.2625   -415.58595   -29117.037    15.348483    13.292142    27.750248    5661.4452 
   82000       81.987    360.79219    14.830264   -444.36418   -429.53392   -10296.144     -951.323   -4710.2673   -25226.842    15.348485    13.292144     27.75023    5661.4434 
   82500       82.487    342.33385    14.071539   -443.58818   -429.51664   -9870.3539   -1758.1909   -3180.5804    -24672.29    15.348488    13.292146    27.750213    5661.4415 
   83000       82.987    326.58877    13.424342   -442.92382   -429.49948   -10268.176   -1871.2572   -3429.4373   -25503.834     15.34849    13.292149    27.750195    5661.4397 
   83500       83.487    337.65415    13.879181   -443.36173   -429.48255   -9234.7846    856.92542   -2686.0494    -25875.23    15.348492    13.292151    27.750178    5661.4379 
   84000       83.987    332.01948     13.64757   -443.11248   -429.46491   -10207.955   -3249.0276   -1381.2794   -25993.559    15.348495    13.292153     27.75016    5661.4361 
   84500       84.487    349.38509    14.361378   -443.80941   -429.44803   -10352.191    804.31923   -2039.8081   -29821.083    15.348497    13.292155    27.750143    5661.4343 
   85000       84.987    345.28146      14.1927    -443.6232    -429.4305   -9705.8078    1029.8453   -2117.5016   -28029.767    15.348499    13.292157    27.750125    5661.4325 
   85500       85.487    353.49085    14.530145   -443.94337   -429.41323   -9860.0728   -844.33235   -4782.9931   -23952.893    15.348502    13.292159    27.750108    5661.4307 
   86000       85.987    344.73529     14.17025   -443.56567   -429.39542   -10505.189   -3567.9861    -3715.157   -24232.423    15.348504    13.292161     27.75009    5661.4289 
   86500       86.487    362.15887    14.886441   -444.26428   -429.37784   -10713.351   -71.817189    -4524.642   -27543.594    15.348506    13.292163    27.750073    5661.4271 
   87000       86.987    359.26694    14.767569   -444.12776   -429.36019   -10786.162   -524.34361    -3827.322    -28006.82    15.348509    13.292165    27.750055    5661.4253 
   87500       87.487    335.75113    13.800958   -443.14293   -429.34197   -10809.751   -2498.0258   -3224.5923   -26706.635    15.348511    13.292167    27.750038    5661.4235 
   88000       87.987    341.11255    14.021338   -443.34537   -429.32403   -10148.167   -1555.1334    -3135.134   -25754.233    15.348514     13.29217     27.75002    5661.4217 
   88500       88.487    376.10204    15.459571   -444.76633   -429.30675   -11401.893   -1691.9685   -4990.8606   -27522.851    15.348516    13.292172    27.750003    5661.4198 
   89000       88.987     355.7424    14.622694   -443.91061   -429.28792   -10904.997   -935.52853   -3121.6588   -28657.804    15.348518    13.292174    27.749985     5661.418 
   89500       89.487    364.76671    14.993636   -444.26376   -429.27012   -10063.941   -1161.6428    -1761.584   -27268.595    15.348521    13.292176    27.749968    5661.4162 
   90000       89.987    352.06543    14.471553   -443.72294   -429.25139   -10185.651    2069.0084   -3135.4273   -29490.535    15.348523    13.292178     27.74995    5661.4144 
   90500       90.487    341.41463    14.033755   -443.26685    -429.2331   -9834.0387   -1621.7873   -2288.7617   -25591.567    15.348525     13.29218    27.749933    5661.4126 
   91000       90.987    343.08613    14.102461   -443.31708   -429.21462   -10526.393   -829.00346   -1171.7376   -29578.437    15.348528    13.292182    27.749915    5661.4108 
   91500       91.487     345.5009     14.20172   -443.39732    -429.1956   -10259.628   -277.18303    -1077.483   -29424.219     15.34853    13.292184    27.749898     5661.409 
   92000       91.987    350.84622    14.421438   -443.59878   -429.17734   -10566.699   -1608.8713   -2705.1575   -27386.069    15.348532    13.292186     27.74988    5661.4072 
   92500       92.487    362.87776    14.915991   -444.07472   -429.15873   -11339.382   -3681.7475   -2982.6104   -27353.787    15.348535    13.292188    27.749863    5661.4054 
   93000       92.987     346.1842    14.229807   -443.36914   -429.13933   -10327.338   -738.12458   -3267.6621   -26976.229    15.348537    13.292191    27.749845    5661.4036 
   93500       93.487    318.66509    13.098641    -442.2185   -429.11986   -8928.7359       2091.6   -2073.9783   -26803.829    15.348539    13.292193    27.749828    5661.4018 
   94000       93.987    364.47218    14.981529   -444.08319   -429.10166   -10449.296   -2014.2578   -4409.5605   -24924.069    15.348542    13.292195     27.74981    5661.3999 
   94500       94.487    352.77049    14.500534   -443.58285   -429.08232   -11466.928   -187.83188    -4938.376   -29274.577    15.348544    13.292197    27.749793    5661.3981 
   95000       94.987    354.89311    14.587784    -443.6508   -429.06302   -9825.3885   -2696.2585   -2273.0279   -24506.879    15.348546    13.292199    27.749775    5661.3963 
   95500       95.487    358.23663    14.725218   -443.76954   -429.04432   -10235.826   -499.44561   -5327.9243   -24880.107    15.348549    13.292201    27.749758    5661.3945 
   96000       95.987    329.08125    13.526795   -442.55108   -429.02428   -8857.9306   -1334.2293   -3075.5418   -22164.021    15.348551    13.292203     27.74974    5661.3927 
   96500       96.487    352.44152    14.487012   -443.49159   -429.00458   -10629.772   -631.86791   -2271.9779   -28985.471    15.348553    13.292205    27.749723    5661.3909 
   97000       96.987    352.03091    14.470134   -443.45557   -428.98544   -9464.2479    852.62295   -2396.7777   -26848.589    15.348556    13.292207    27.749705    5661.3891 
   97500       97.487    345.26272    14.191929   -443.15791   -428.96598   -9610.3077    619.17603   -2659.3174   -26790.782    15.348558    13.292209    27.749688    5661.3873 
   98000       97.987    348.18912    14.312219   -443.25795   -428.94573    -9737.156   -759.17851   -1948.8286   -26503.461    15.348561    13.292212     27.74967    5661.3855 
   98500       98.487    343.55814    14.121863   -443.04785   -428.92599   -8839.5133    1360.4079   -3012.3436   -24866.604    15.348563    13.292214    27.749653    5661.3837 
   99000       98.987     361.0216    14.839694   -443.74589   -428.90619   -9480.0728    270.20492   -3529.9896   -25180.434    15.348565    13.292216    27.749635    5661.3819 
   99500       99.487    357.40567    14.691062   -443.57726    -428.8862   -10226.981    834.74954   -3656.9065   -27858.786    15.348568    13.292218    27.749618      5661.38 
  100000       99.987     354.0131    14.551611   -443.41776   -428.86614   -9920.5343   -286.50743   -3904.5913   -25570.504     15.34857     13.29222      27.7496    5661.3782 
  100500      100.487    363.69223     14.94947   -443.79585   -428.84638   -10010.838    968.19019   -4777.4941   -26223.211    15.348572    13.292222    27.749583    5661.3764 
  101000      100.987    350.70275    14.415541   -443.24162   -428.82608   -10114.046    99.876769   -2209.0679   -28232.947    15.348575    13.292224    27.749565    5661.3746 
  101500      101.487    353.12224    14.514993   -443.32044   -428.80545   -11414.118   -1732.0504   -5876.9864   -26633.316    15.348577    13.292226    27.749548    5661.3728 
  102000      101.987    339.57021     13.95794   -442.74258   -428.78464   -9927.6761   -2748.5081   -2397.8591   -24636.661    15.348579    13.292228     27.74953     5661.371 
  102500      102.487    337.99482    13.893185    -442.6577   -428.76451    -9376.995    -237.6417   -2996.3103   -24897.033    15.348582     13.29223    27.749513    5661.3692 
  103000      102.987    359.32561    14.769981   -443.51417   -428.74418   -10315.838   -1528.4212   -1240.9795   -28178.114    15.348584    13.292233    27.749495    5661.3674 
  103500      103.487    348.41181    14.321372   -443.04469   -428.72332    -9066.312   -226.24459   -1338.2387   -25634.453    15.348586    13.292235    27.749478    5661.3656 
  104000      103.987     372.3627    15.305867   -444.00913   -428.70327   -10413.927   -1262.5531   -3171.6618   -26807.567    15.348589    13.292237     27.74946    5661.3638 
  104500      104.487    352.14581    14.474857   -443.15704   -428.68218   -11080.149    146.39846   -4951.7673   -28435.079    15.348591    13.292239    27.749443     5661.362 
  105000      104.987     359.7872    14.788954   -443.45004   -428.66109   -9441.6877     1557.985   -2595.0135   -27288.035    15.348593    13.292241    27.749425    5661.3601 
  105500      105.487    364.79923    14.994972   -443.63542   -428.64045   -10175.452   -1114.6637   -1998.6443   -27413.048    15.348596    13.292243    27.749408    5661.3583 
  106000      105.987    367.40936    15.102261   -443.72176    -428.6195   -9089.6565    1002.5303   -1916.9611   -26354.539    15.348598    13.292245     27.74939    5661.3565 
  106500      106.487    357.09446     14.67827   -443.27643   -428.59816   -9907.2092   -1056.7917   -1897.8446   -26766.991      15.3486    13.292247    27.749373    5661.3547 
  107000      106.987    343.45688    14.117701    -442.6947     -428.577   -9691.0839   -397.34849   -4441.7423   -24234.161    15.348603    13.292249    27.749355    5661.3529 
  107500      107.487    368.24351    15.136549   -443.69211   -428.55556   -11058.348   -1661.9929   -3051.0214    -28462.03    15.348605    13.292251    27.749338    5661.3511 
  108000      107.987    353.64019    14.536283   -443.07033   -428.53405   -10047.813   -471.91643   -4194.4944   -25477.029    15.348608    13.292254     27.74932    5661.3493 
  108500      108.487    369.27948    15.179132   -443.69207   -428.51294   -10637.006   -2448.0567   -3236.7509   -26226.212     15.34861    13.292256    27.749303    5661.3475 
  109000      108.987    348.30375     14.31693   -442.80848   -428.49155    -9647.399   -317.49927   -3616.2775    -25008.42    15.348612    13.292258    27.749285    5661.3457 
  109500      109.487    361.96181    14.878341   -443.34875   -428.47041   -11485.403   -2308.2391    -4912.952   -27235.018    15.348615     13.29226    27.749268    5661.3439 
  110000      109.987      353.885    14.546346   -442.99492   -428.44857    -10218.39    614.00374   -3528.2566   -27740.916    15.348617    13.292262     27.74925    5661.3421 
  110500      110.487    347.64364    14.289796   -442.71639   -428.42659    -9144.569   -419.75346   -2724.3445   -24289.609    15.348619    13.292264    27.749233    5661.3402 
  111000      110.987    369.58785    15.191807   -443.59736   -428.40555   -10125.284   -1313.6483   -1088.7284   -27973.475    15.348622    13.292266    27.749215    5661.3384 
  111500      111.487    353.87821    14.546067   -442.92958   -428.38352   -9371.6204   -247.01619    -3035.933   -24831.912    15.348624    13.292268    27.749198    5661.3366 
  112000      111.987    359.83705    14.791004   -443.15274   -428.36174   -10137.973   -2155.8468   -1428.0772   -26829.994    15.348626     13.29227     27.74918    5661.3348 
  112500      112.487    381.73568     15.69114   -444.03167   -428.34053   -10818.839   -1429.4743   -1903.6996   -29123.342    15.348629    13.292272    27.749163     5661.333 
  113000      112.987      366.674    15.072034   -443.39035   -428.31831   -9664.0617   -656.00464    -2523.494   -25812.687    15.348631    13.292275    27.749145    5661.3312 
  113500      113.487    366.27257    15.055534     -443.352   -428.29647   -10253.666    30.953043   -3151.1745   -27640.775    15.348633    13.292277    27.749128    5661.3294 
  114000      113.987    357.58417    14.698399   -442.97295   -428.27455   -9408.7351   -943.74646   -3166.0423   -24116.417    15.348636    13.292279     27.74911    5661.3276 
  114500      114.487    361.23344    14.848401   -443.10101   -428.25261   -9315.1781   -735.37503   -1924.8732   -25285.286    15.348638    13.292281    27.749093    5661.3258 
  115000      114.987    360.39705    14.814022   -443.04423    -428.2302   -9105.0125     -397.778   -2679.8288   -24237.431     15.34864    13.292283    27.749075     5661.324 
  115500      115.487    358.72682    14.745368   -442.95369   -428.20832   -9694.4441   -2357.7064   -388.93557    -26336.69    15.348643    13.292285    27.749058    5661.3222 
  116000      115.987     354.1776    14.558373   -442.74426   -428.18589   -9445.4223   -1068.0723   -808.04913   -26460.145    15.348645    13.292287     27.74904    5661.3203 
  116500      116.487    360.53601    14.819734   -442.98337   -428.16364     -9186.83    397.67708   -2104.8562   -25853.311    15.348647    13.292289    27.749023    5661.3185 
  117000      116.987    379.41561    15.595775   -443.73762   -428.14185   -10326.119     720.1819   -2412.7803   -29285.758     15.34865    13.292291    27.749005    5661.3167 
  117500      117.487    356.45087    14.651815   -442.77099   -428.11918   -10210.512   -1040.0102   -1314.6121   -28276.914    15.348652    13.292293    27.748988    5661.3149 
  118000      117.987    379.08332    15.582116    -443.6789   -428.09678   -10242.369    -822.7713   -3143.7992   -26760.537    15.348655    13.292296     27.74897    5661.3131 
  118500      118.487    370.82356    15.242601   -443.31683   -428.07423   -9739.3924   -420.33747   -5343.4925   -23454.347    15.348657    13.292298    27.748953    5661.3113 
  119000      118.987    366.29602    15.056498   -443.10794   -428.05144   -10037.293    -516.4426   -3860.5849   -25734.852    15.348659      13.2923    27.748935    5661.3095 
  119500      119.487    366.24249    15.054297    -443.0838    -428.0295   -9684.1989   -805.87712    -2271.598   -25975.121    15.348662    13.292302    27.748918    5661.3077 
  120000      119.987    364.21504     14.97096   -442.97758   -428.00662   -10102.676   -691.31348   -1269.1171   -28347.598    15.348664    13.292304      27.7489    5661.3059 
  120500      120.487    360.74762    14.828432   -442.81214   -427.98371   -10445.995   -3970.7227    481.99267   -27849.256    15.348666    13.292306    27.748883    5661.3041 
  121000      120.987    370.79544    15.241445   -443.20287   -427.96142   -10205.551   -792.24115   -4494.9734   -25329.439    15.348669    13.292308    27.748865    5661.3023 
  121500      121.487    352.96797    14.508652   -442.44688   -427.93823   -9321.0916   -1259.4722    826.07669   -27529.879    15.348671     13.29231    27.748848    5661.3004 
  122000      121.987    381.79636    15.693635   -443.60965   -427.91602   -10095.447   -1350.1346   -693.82953   -28242.378    15.348673    13.292312     27.74883    5661.2986 
  122500      122.487    393.20488    16.162579   -444.05559   -427.89301   -10537.328    -1498.064   -3215.0315    -26898.89    15.348676    13.292314    27.748813    5661.2968 
  123000      122.987    378.07338    15.540603   -443.41096   -427.87036   -10277.318   -2004.4113   -1548.6546   -27278.889    15.348678    13.292317    27.748795     5661.295 
  123500      123.487    360.45378    14.816354   -442.66353   -427.84718   -10266.528   -441.10039   -2310.0202   -28048.462     15.34868    13.292319    27.748778    5661.2932 
  124000      123.987     382.9124    15.739509   -443.56422   -427.82471   -10002.499    525.42381   -3689.4058   -26843.516    15.348683    13.292321     27.74876    5661.2914 
  124500      124.487    375.72302    15.443992   -443.24572   -427.80173   -9432.1816    983.43131   -5051.2932   -24228.683    15.348685    13.292323    27.748743    5661.2896 
  125000      124.987    392.02726    16.114173   -443.89266   -427.77849   -10188.001    652.52758   -4423.0632   -26793.466    15.348687    13.292325    27.748725    5661.2878 
  125500      125.487    375.72196    15.443948    -443.1996   -427.75565   -9776.5669    52.969625   -5288.9279   -24093.742     15.34869    13.292327    27.748708     5661.286 
  126000      125.987    354.90882     14.58843   -442.32033    -427.7319   -8367.2817   -605.28772   -2490.9976    -22005.56    15.348692    13.292329     27.74869    5661.2842 
  126500      126.487    380.29579    15.631954   -443.34134   -427.70939   -11125.203   -3159.7478   -4081.9914   -26133.869    15.348694    13.292331    27.748673    5661.2824 
  127000      126.987    374.40609     15.38986   -443.07635   -427.68649   -9903.0922    447.76005   -2836.0098   -27321.027    15.348697    13.292333    27.748655    5661.2805 
  127500      127.487    356.08488    14.636772   -442.29942   -427.66265   -8997.7107    8.5235148    -1986.138   -25015.518    15.348699    13.292335    27.748638    5661.2787 
  128000      127.987    377.21887    15.505479   -443.14525   -427.63977   -9080.5012    16.136699   -2891.1902    -24366.45    15.348702    13.292338     27.74862    5661.2769 
  128500      128.487    363.44858    14.939454   -442.55607   -427.61661   -8600.5715     2634.832    -2175.307    -26261.24    15.348704     13.29234    27.748603    5661.2751 
  129000      128.987    375.96144    15.453792   -443.04727   -427.59348   -10306.721   -356.54481   -3222.8247   -27340.794    15.348706    13.292342    27.748585    5661.2733 
  129500      129.487    359.71558    14.786011   -442.35578   -427.56977   -8715.9414   -785.83102   -3755.4597   -21606.533    15.348709    13.292344    27.748568    5661.2715 
  130000      129.987    364.54718    14.984612   -442.53127   -427.54666   -10199.014   -1585.4015   -2157.0765   -26854.564    15.348711    13.292346     27.74855    5661.2697 
  130500      130.487    356.57206    14.656797   -442.18003   -427.52323   -9200.7007   -972.92691    -799.2526   -25829.923    15.348713    13.292348    27.748533    5661.2679 
  131000      130.987    376.13611    15.460972   -442.96088   -427.49991    -8807.525    1453.6245   -3336.2245   -24539.975    15.348716     13.29235    27.748515    5661.2661 
  131500      131.487    355.26949    14.603255   -442.07987   -427.47662    -10193.56   -1377.7484   -3731.2918    -25471.64    15.348718    13.292352    27.748498    5661.2643 
  132000      131.987    363.27872    14.932472   -442.38562   -427.45315   -9881.1495   -1676.2573   -460.52191   -27506.669     15.34872    13.292354     27.74848    5661.2624 
  132500      132.487    386.83475    15.900737    -443.3307   -427.42996   -9746.2656    817.28157   -2271.5522   -27784.526    15.348723    13.292356    27.748463    5661.2606 
  133000      132.987    379.18478    15.586286   -442.99345   -427.40717   -9726.1271    -573.2111   -2541.5888   -26063.581    15.348725    13.292359    27.748445    5661.2588 
  133500      133.487    373.12334    15.337133   -442.72033    -427.3832   -8871.9374   -431.74356   -3233.6362   -22950.432    15.348727    13.292361    27.748428     5661.257 
  134000      133.987    371.08041    15.253158   -442.61285    -427.3597   -8653.0733    395.91797   -1712.2302   -24642.908     15.34873    13.292363     27.74841    5661.2552 
  134500      134.487    370.99528    15.249659   -442.58595   -427.33629   -10607.206   -1196.4978   -1154.6688   -29470.452    15.348732    13.292365    27.748393    5661.2534 
  135000      134.987    381.71303    15.690209    -443.0031   -427.31289   -10075.062   -799.71611   -2075.1782    -27350.29    15.348734    13.292367    27.748375    5661.2516 
  135500      135.487    381.98163     15.70125   -442.99057   -427.28932   -9013.6748    1061.7347   -3454.5866   -24648.172    15.348737    13.292369    27.748358    5661.2498 
  136000      135.987    353.61688    14.535325   -441.80116   -427.26584   -9220.2787   -54.090004   -1902.5368   -25704.209    15.348739    13.292371     27.74834     5661.248 
  136500      136.487    369.93092    15.205909   -442.44817   -427.24226   -8953.1055   -989.61056   -1499.8647   -24369.841    15.348741    13.292373    27.748323    5661.2462 
  137000      136.987    370.48081    15.228512   -442.44735   -427.21884   -8780.2154    1006.1686   -2248.1045    -25098.71    15.348744    13.292375    27.748305    5661.2444 
  137500      137.487    351.85483    14.462896    -441.6577   -427.19481   -8463.6806    2334.8974    -2918.532   -24807.407    15.348746    13.292377    27.748288    5661.2425 
  138000      137.987    373.17993    15.339459   -442.51084   -427.17138   -8194.9534   -284.41031   -2405.7138   -21894.736    15.348749     13.29238     27.74827    5661.2407 
  138500      138.487    383.17901    15.750468    -442.8982   -427.14774    -9962.885   -3494.5131   -4263.9815    -22130.16    15.348751    13.292382    27.748253    5661.2389 
  139000      138.987    351.80766    14.460958     -441.584   -427.12304   -8382.1168   -345.25452   -1790.0962       -23011    15.348753    13.292384    27.748235    5661.2371 
  139500      139.487    382.67595     15.72979   -442.82927   -427.09948   -8781.8919     2081.771   -2133.5582   -26293.889    15.348756    13.292386    27.748218    5661.2353 
  140000      139.987    368.50049    15.147112   -442.22273   -427.07561   -8581.4349    267.13223   -885.70194   -25125.735    15.348758    13.292388      27.7482    5661.2335 
  140500      140.487    380.05308    15.621978   -442.67441   -427.05243   -10642.746   -2216.7423   -3069.2237   -26642.272     15.34876     13.29239    27.748183    5661.2317 
  141000      140.987     359.3341     14.77033   -441.79866   -427.02833   -8455.6835     1130.231   -2550.6348   -23946.647    15.348763    13.292392    27.748165    5661.2299 
  141500      141.487    363.55803    14.943953   -441.94816   -427.00421   -8729.5664    497.46501    -2513.863   -24172.301    15.348765    13.292394    27.748148    5661.2281 
  142000      141.987    372.01647    15.291635   -442.27216   -426.98052   -8786.7634    1698.6423   -3060.6221    -24998.31    15.348767    13.292396     27.74813    5661.2263 
  142500      142.487    382.81554    15.735528    -442.6924   -426.95687   -9364.4627    1463.2132   -2920.1053   -26636.496     15.34877    13.292398    27.748113    5661.2245 
  143000      142.987    370.72977    15.238746   -442.17143   -426.93269   -7160.1304    3854.4781   -2990.5971   -22344.272    15.348772    13.292401    27.748095    5661.2226 
  143500      143.487    377.50187    15.517111   -442.42555   -426.90844   -9537.2494    762.60495   -3133.5843   -26240.769    15.348774    13.292403    27.748078    5661.2208 
  144000      143.987    392.23235    16.122603   -443.00708   -426.88447   -10152.008    415.65845   -4653.8181   -26217.863    15.348777    13.292405     27.74806     5661.219 
  144500      144.487    369.96006    15.207107   -442.06747   -426.86036   -7826.7455    2077.1964   -3994.2873   -21563.146    15.348779    13.292407    27.748043    5661.2172 
  145000      144.987    387.89701      15.9444   -442.78114   -426.83674   -9167.1107   -70.005796   -3810.3121   -23621.014    15.348781    13.292409    27.748025    5661.2154 
  145500      145.487    369.22664     15.17696   -441.98907   -426.81211   -9255.2163    9.1487421   -1009.9867   -26764.811    15.348784    13.292411    27.748008    5661.2136 
  146000      145.987    400.53902    16.464047    -443.2525   -426.78845   -10046.369   -2905.7406   -2188.1252    -25045.24    15.348786    13.292413     27.74799    5661.2118 
  146500      146.487    395.46812    16.255609   -443.01996   -426.76435   -7831.3689    2128.3554    -2592.731   -23029.731    15.348788    13.292415    27.747973      5661.21 
  147000      146.987    376.37224    15.470678   -442.21024   -426.73956   -8066.1084   -1135.7593   -1053.4527   -22009.113    15.348791    13.292417    27.747955    5661.2082 
  147500      147.487    389.76452    16.021164   -442.73664   -426.71547   -9148.1953   -1178.3159   -968.06373   -25298.206    15.348793    13.292419    27.747938    5661.2064 
  148000      147.987    394.42807    16.212858   -442.90428   -426.69142    -9540.303   -647.55068   -3201.2829   -24772.075    15.348796    13.292422     27.74792    5661.2046 
  148500      148.487    388.59184    15.972961   -442.64022   -426.66726   -9959.3276   -456.30893   -3262.7031   -26158.971    15.348798    13.292424    27.747903    5661.2027 
  149000      148.987    374.55508    15.395984   -442.03921   -426.64322   -9643.7965   -330.56055   -1648.5439   -26952.285      15.3488    13.292426    27.747885    5661.2009 
  149500      149.487    365.19091    15.011072   -441.62958   -426.61851   -8141.7999     680.0301    -3208.454   -21896.976    15.348803    13.292428    27.747868    5661.1991 
  150000      149.987    388.70322     15.97754   -442.57242   -426.59488   -8494.7546   -982.69073    453.83272   -24955.406    15.348805     13.29243     27.74785    5661.1973 
  150500      150.487    386.12728    15.871656   -442.44155   -426.56989   -8724.9408    868.24611   -1475.2123   -25567.856    15.348807    13.292432    27.747833    5661.1955 
  151000      150.987     379.8183    15.612327   -442.15815   -426.54583   -8525.4192   -812.79976   -1410.9633   -23352.495     15.34881    13.292434    27.747815    5661.1937 
  151500      151.487    400.34486    16.456066   -442.97735   -426.52129   -9902.9859   -1563.6292   -2483.6989    -25661.63    15.348812    13.292436    27.747798    5661.1919 
  152000      151.987    367.28642    15.097208   -441.59371    -426.4965   -8487.8868   -637.52485   -2347.3697   -22478.766    15.348814    13.292438     27.74778    5661.1901 
  152500      152.487    373.62037    15.357563   -441.82964   -426.47208   -8754.0844     1370.835   -1676.6197   -25956.469    15.348817     13.29244    27.747763    5661.1883 
  153000      152.987    391.97632    16.112079   -442.56047   -426.44839   -9009.4126   -1438.5885   -2128.9835   -23460.666    15.348819    13.292443    27.747745    5661.1865 
  153500      153.487    372.11805    15.295811   -441.71927   -426.42346   -7699.8148    2615.7547    2256.0464   -27971.246    15.348821    13.292445    27.747728    5661.1847 
  154000      153.987    381.10727     15.66531   -442.06408   -426.39877   -9179.9057    617.49262   -84.378497   -28072.831    15.348824    13.292447     27.74771    5661.1828 
  154500      154.487    382.20986    15.710632   -442.08487   -426.37424   -8996.4089   -80.922691   -3547.3358   -23360.968    15.348826    13.292449    27.747693     5661.181 
  155000      154.987    386.10191    15.870613   -442.22065   -426.35003   -9063.6398    99.583385   -7.9368897   -27282.566    15.348828    13.292451    27.747675    5661.1792 
  155500      155.487     375.5687    15.437648   -441.76249   -426.32484   -8379.3881    1454.0656   -5309.5544   -21282.676    15.348831    13.292453    27.747658    5661.1774 
  156000      155.987    373.79462    15.364726    -441.6651   -426.30037    -9208.304   -1193.9344   -1625.8496   -24805.128    15.348833    13.292455     27.74764    5661.1756 
  156500      156.487    384.74626     15.81489   -442.09061   -426.27572   -9746.6017     858.8922    68.957304   -30167.654    15.348835    13.292457    27.747623    5661.1738 
  157000      156.987     379.3653    15.593707   -441.84428   -426.25057   -9193.0286   -1123.9689    777.30778   -27232.425    15.348838    13.292459    27.747605     5661.172 
  157500      157.487    385.40533     15.84198   -442.06803   -426.22605   -7544.0889   -674.65101   -674.89913   -21282.716     15.34884    13.292461    27.747588    5661.1702 
  158000      157.987    390.81705    16.064428   -442.26564   -426.20121   -8295.8663     -174.263   -2907.5702   -21805.766    15.348843    13.292464     27.74757    5661.1684 
  158500      158.487    391.86543    16.107521   -442.28399   -426.17647   -9009.1788    778.53609   -1377.0619    -26429.01    15.348845    13.292466    27.747553    5661.1666 
  159000      158.987    373.33797    15.345955   -441.49682   -426.15086   -7741.6241    1392.5367   -993.09002   -23624.319    15.348847    13.292468    27.747535    5661.1648 
  159500      159.487    397.50709     16.33942   -442.46629   -426.12687   -7891.2273    48.327755   -2914.0021   -20808.008     15.34885     13.29247    27.747518    5661.1629 
  160000      159.987    390.42843    16.048454   -442.15001   -426.10155   -8352.1928    767.53564   -3709.8883   -22114.226    15.348852    13.292472      27.7475    5661.1611 
  160500      160.487    374.94641     15.41207   -441.48858   -426.07651   -7556.5388    2256.6731   -1974.2109   -22952.079    15.348854    13.292474    27.747483    5661.1593 
  161000      160.987     391.6799    16.099895   -442.15158   -426.05169   -8693.0034    625.22286   -564.59138   -26139.642    15.348857    13.292476    27.747465    5661.1575 
  161500      161.487    393.41047     16.17103   -442.19777   -426.02674    -8344.253   -1080.3244   -1296.7128   -22655.722    15.348859    13.292478    27.747448    5661.1557 
  162000      161.987    375.70287    15.443163   -441.44459   -426.00143   -8932.2261   -653.26977    286.42614   -26429.835    15.348861     13.29248     27.74743    5661.1539 
  162500      162.487    409.52029    16.833219   -442.81006   -425.97684    -8588.087    525.39565   -530.78231   -25758.874    15.348864    13.292482    27.747413    5661.1521 
  163000      162.987    368.38032    15.142172    -441.0934   -425.95123   -7433.5209    1670.1648    574.33464   -24545.062    15.348866    13.292485    27.747395    5661.1503 
  163500      163.487    400.98923    16.482553    -442.4092   -425.92665   -9426.4104    709.76987   -2059.2942   -26929.707    15.348868    13.292487    27.747378    5661.1485 
  164000      163.987    371.56078    15.272904   -441.17405   -425.90115   -8016.7318    -553.2101   -2184.6115   -21312.374    15.348871    13.292489     27.74736    5661.1467 
  164500      164.487    411.04718    16.895982   -442.77246   -425.87648   -9288.1325    287.40288    -2325.321   -25826.479    15.348873    13.292491    27.747343    5661.1448 
  165000      164.987    377.90242    15.533575   -441.38469   -425.85112    -7652.553    1292.5251   -547.87202   -23702.312    15.348875    13.292493    27.747325     5661.143 
  165500      165.487    401.39396    16.499189   -442.32529    -425.8261    -7344.998    -241.1896    2629.7258    -24423.53    15.348878    13.292495    27.747308    5661.1412 
  166000      165.987    417.31443    17.153595   -442.95498   -425.80139   -9117.9943   -1033.9149   -5085.1328   -21234.935     15.34888    13.292497     27.74729    5661.1394 
  166500      166.487    369.98071    15.207956   -440.98298   -425.77502   -8142.7105    249.14785   -658.11596   -24019.163    15.348882    13.292499    27.747273    5661.1376 
  167000      166.987    391.99941    16.113028   -441.86335   -425.75032   -9906.2921   -1122.1761   -961.61413   -27635.086    15.348885    13.292501    27.747255    5661.1358 
  167500      167.487    391.99543    16.112865   -441.83767   -425.72481   -9311.4293    2649.3637    -2419.755   -28163.897    15.348887    13.292503    27.747238     5661.134 
  168000      167.987    390.52085    16.052252   -441.75188   -425.69962   -8450.2912   -389.12254   -1503.8573   -23457.894     15.34889    13.292506     27.74722    5661.1322 
  168500      168.487    400.34148    16.455927   -442.13033    -425.6744   -8436.0001    646.62221    843.80496   -26798.428    15.348892    13.292508    27.747203    5661.1304 
  169000      168.987    414.20611    17.025829    -442.6747   -425.64887   -8430.1605    1263.9227   -3477.7029   -23076.701    15.348894     13.29251    27.747185    5661.1286 
  169500      169.487    386.90139    15.903476   -441.52679   -425.62331   -8122.1415    1190.2709    351.10292   -25907.798    15.348897    13.292512    27.747168    5661.1268 
  170000      169.987    386.21447     15.87524   -441.47304    -425.5978   -9279.4288   -120.80536   -2111.9753   -25605.506    15.348899    13.292514     27.74715    5661.1249 
  170500      170.487    401.97147    16.522927   -442.09579   -425.57286    -7532.514    2837.3082   -1175.3032   -24259.547    15.348901    13.292516    27.747133    5661.1231 
  171000      170.987    396.63149    16.303429    -441.8512   -425.54777   -7891.8013   -122.65067   -1248.4518   -22304.302    15.348904    13.292518    27.747115    5661.1213 
  171500      171.487    378.90003    15.574582   -441.09661   -425.52203   -8859.1116    461.87765    463.23497   -27502.447    15.348906     13.29252    27.747098    5661.1195 
  172000      171.987    412.38685    16.951049   -442.44809   -425.49704   -9048.7015    1360.9754   -4892.8556   -23614.224    15.348908    13.292522     27.74708    5661.1177 
  172500      172.487    398.25594    16.370201   -441.84163   -425.47143   -7528.9128    224.40182    553.50532   -23364.646    15.348911    13.292524    27.747063    5661.1159 
  173000      172.987    428.54059    17.615044   -443.06116   -425.44612   -9549.4928   -459.26718   -1114.1308    -27075.08    15.348913    13.292527    27.747045    5661.1141 
  173500      173.487    395.08396    16.239818   -441.65993   -425.42011    -9100.156   -704.54948   -1484.6961   -25111.222    15.348915    13.292529    27.747028    5661.1123 
  174000      173.987    407.98373     16.77006   -442.16436    -425.3943   -10242.232   -2842.9993   -3728.4641   -24155.232    15.348918    13.292531     27.74701    5661.1105 
  174500      174.487    398.49944     16.38021   -441.74891    -425.3687   -6868.0569    920.76376   -619.04562   -20905.889     15.34892    13.292533    27.746993    5661.1087 
  175000      174.987    415.27199    17.069642   -442.41294   -425.34329   -8569.5072    1498.8426   -1529.4724   -25677.892    15.348922    13.292535    27.746975    5661.1069 
  175500      175.487    393.77307    16.185934   -441.50274   -425.31681   -8499.7548    1116.5244   -3716.4954   -22899.293    15.348925    13.292537    27.746958     5661.105 
  176000      175.987    391.49171    16.092159   -441.38398   -425.29182    -8860.092    -745.1547    321.41491   -26156.536    15.348927    13.292539     27.74694    5661.1032 
  176500      176.487     386.8842    15.902769   -441.16821   -425.26544    -8662.466    1625.9502    693.95991   -28307.308    15.348929    13.292541    27.746923    5661.1014 
  177000      176.987    400.58355    16.465877   -441.70645   -425.24057   -9032.2177    -838.0775   -1119.1266   -25139.449    15.348932    13.292543    27.746905    5661.0996 
  177500      177.487    387.10896    15.912008   -441.12552   -425.21351   -8090.6159     368.9819   -1823.8108   -22817.019    15.348934    13.292545    27.746888    5661.0978 
  178000      177.987    398.13114    16.365071   -441.55327    -425.1882   -8032.4451    -837.1217    -349.3995   -22910.814    15.348937    13.292548     27.74687     5661.096 
  178500      178.487    394.14455    16.201204   -441.36353   -425.16233   -8731.9256    -493.8808    1378.8671   -27080.763    15.348939     13.29255    27.746853    5661.0942 
  179000      178.987    387.88233    15.943797   -441.07966   -425.13586   -7954.0136   -323.42822    356.32751    -23894.94    15.348941    13.292552    27.746835    5661.0924 
  179500      179.487    413.42849    16.993865   -442.10509   -425.11123   -8821.5475    704.63506   -1655.7447   -25513.533    15.348944    13.292554    27.746818    5661.0906 
  180000      179.987    400.01656    16.442571   -441.52779   -425.08522   -7939.9559    1861.0382   -2701.3431   -22979.563    15.348946    13.292556      27.7468    5661.0888 
  180500      180.487     403.3331    16.578896   -441.63784   -425.05895   -8007.2998    1731.6182   -3029.1278    -22724.39    15.348948    13.292558    27.746783    5661.0869 
  181000      180.987     399.3284    16.414285    -441.4479   -425.03361   -9070.4918    575.58313   -1487.2487    -26299.81    15.348951     13.29256    27.746765    5661.0851 
  181500      181.487    406.34817     16.70283   -441.71032   -425.00749   -9080.5018    3038.0293   -3590.0683   -26689.466    15.348953    13.292562    27.746748    5661.0833 
  182000      181.987    372.82667    15.324938   -440.30628   -424.98134   -7949.4747   -185.70498   -2307.5293    -21355.19    15.348955    13.292564     27.74673    5661.0815 
  182500      182.487    411.98687    16.934607   -441.89063   -424.95602   -7285.8079   -2.8068487   -565.02181   -21289.595    15.348958    13.292566    27.746713    5661.0797 
  183000      182.987    409.97739    16.852008   -441.78189   -424.92988   -8616.1574   -467.71548   -1522.9071    -23857.85     15.34896    13.292569    27.746695    5661.0779 
  183500      183.487    414.32142    17.030568   -441.93468   -424.90411   -9884.4857    -143.5553   -3511.9709   -25997.931    15.348962    13.292571    27.746678    5661.0761 
  184000      183.987    383.75509    15.774148   -440.65174   -424.87759   -7429.1004    2070.8527    1820.3851   -26178.539    15.348965    13.292573     27.74666    5661.0743 
  184500      184.487    406.94215    16.727246   -441.57908   -424.85184   -8143.8043    1061.5158   -627.83636   -24865.092    15.348967    13.292575    27.746643    5661.0725 
  185000      184.987    399.31251    16.413631    -441.2397   -424.82606   -7191.6504    877.38461   -79.804248   -22372.532    15.348969    13.292577    27.746625    5661.0707 
  185500      185.487    400.22584    16.451173   -441.25102   -424.79985   -6856.7285    1501.6218   -427.17931   -21644.628    15.348972    13.292579    27.746608    5661.0689 
  186000      185.987    413.80635    17.009397   -441.78316   -424.77377   -8050.9164   -401.85939   -298.02791   -23452.862    15.348974    13.292581     27.74659     5661.067 
  186500      186.487    422.81633     17.37975   -442.12796   -424.74821   -7959.0756    844.65656   -1234.3494   -23487.534    15.348976    13.292583    27.746573    5661.0652 
  187000      186.987     407.7787    16.761632   -441.48298   -424.72134    -8412.153    1870.3763   -645.06118   -26461.774    15.348979    13.292585    27.746555    5661.0634 
  187500      187.487    387.07484    15.910605   -440.60576   -424.69516   -7040.7848    2729.2039    1425.7758   -25277.334    15.348981    13.292587    27.746538    5661.0616 
  188000      187.987    382.45837    15.720846   -440.38926   -424.66841   -7089.9128   -1045.4279   -625.63809   -19598.672    15.348984     13.29259     27.74652    5661.0598 
  188500      188.487    394.10281    16.199488   -440.84152   -424.64203   -7169.6916    2911.6352   -408.46809   -24012.242    15.348986    13.292592    27.746503     5661.058 
  189000      188.987    408.41495    16.787784   -441.40417   -424.61638   -7887.2171    3065.4726   -1406.9305   -25320.194    15.348988    13.292594    27.746485    5661.0562 
  189500      189.487    410.80346    16.885964   -441.47575   -424.58979   -7398.3033   -1943.0909     1934.373   -22186.192    15.348991    13.292596    27.746468    5661.0544 
  190000      189.987    414.15558    17.023751   -441.58819   -424.56444    -7413.242    -2409.077    201.82347   -20032.472    15.348993    13.292598     27.74645    5661.0526 
  190500      190.487    423.35814     17.40202   -441.94028   -424.53826   -8878.0596   -1730.8677   -4810.3722   -20092.939    15.348995      13.2926    27.746433    5661.0508 
  191000      190.987    410.57009    16.876371   -441.38811   -424.51173   -8112.7194    1518.5266    -56.75723   -25799.928    15.348998    13.292602    27.746415     5661.049 
  191500      191.487    387.37645    15.923003   -440.40796   -424.48496   -7515.6702    2457.0102    -1260.646   -23743.375       15.349    13.292604    27.746398    5661.0471 
  192000      191.987    411.23345    16.903638   -441.36258   -424.45894   -8384.7351    315.52178   -1772.0191   -23697.708    15.349002    13.292606     27.74638    5661.0453 
  192500      192.487     398.8805    16.395874   -440.82855   -424.43267   -7739.1221    1763.5055   -2418.5215    -22562.35    15.349005    13.292608    27.746363    5661.0435 
  193000      192.987    402.83966    16.558614   -440.96452   -424.40591   -7951.8828    414.24188   -1759.1015   -22510.789    15.349007    13.292611    27.746345    5661.0417 
  193500      193.487    423.38955    17.403311   -441.78398   -424.38067    -7779.232    571.52305    365.83077    -24275.05    15.349009    13.292613    27.746328    5661.0399 
  194000      193.987    397.76976    16.350217   -440.70348   -424.35327   -7570.4789   -2412.3742   -2309.8375   -17989.225    15.349012    13.292615     27.74631    5661.0381 
  194500      194.487    410.26816     16.86396   -441.19069   -424.32673    -8046.354    1208.8336   -98.999891   -25248.896    15.349014    13.292617    27.746293    5661.0363 
  195000      194.987    404.35537    16.620917   -440.92129   -424.30038   -8547.4427   -937.87724   -1368.7026   -23335.748    15.349016    13.292619    27.746275    5661.0345 
  195500      195.487    406.16205     16.69518   -440.96855   -424.27337   -9406.2708   -888.95008   -596.80366   -26733.059    15.349019    13.292621    27.746258    5661.0327 
  196000      195.987    410.13137    16.858338   -441.10561   -424.24728   -7908.6447    1147.0065   -386.12404   -24486.817    15.349021    13.292623     27.74624    5661.0309 
  196500      196.487    396.43748    16.295454   -440.51604   -424.22059   -7027.5258    3284.8896   -192.63085   -24174.836    15.349023    13.292625    27.746223     5661.029 
  197000      196.987    401.57061     16.50645   -440.70051   -424.19406   -6677.9725    1724.1722    -1416.128   -20341.962    15.349026    13.292627    27.746205    5661.0272 
  197500      197.487    422.04554    17.348066   -441.51619   -424.16812   -7124.3379    3002.8584   -3045.4436   -21330.428    15.349028    13.292629    27.746188    5661.0254 
  198000      197.987    392.53162    16.134905   -440.27593   -424.14103    -7079.968     2215.975   -939.70283   -22516.176    15.349031    13.292632     27.74617    5661.0236 
  198500      198.487    404.12123    16.611292   -440.72618   -424.11489    -8862.071    1234.4882    723.82541   -28544.527    15.349033    13.292634    27.746153    5661.0218 
  199000      198.987    412.91203    16.972636   -441.06079   -424.08815    -8877.087   -1118.8347    1317.6161   -26830.042    15.349035    13.292636    27.746135      5661.02 
  199500      199.487    416.14475    17.105516   -441.16699   -424.06147   -7734.1532    2050.9848    616.31346   -25869.758    15.349038    13.292638    27.746118    5661.0182 
  200000      199.987    415.77452    17.090298   -441.12508   -424.03478   -7675.2955   -395.48617     288.1395    -22918.54     15.34904     13.29264      27.7461    5661.0164 
  200500      200.487    423.14478     17.39325   -441.40166   -424.00841   -7872.4112    759.01891    -1715.089   -22661.163    15.349042    13.292642    27.746083    5661.0146 
  201000      200.987    447.64803     18.40045   -442.38274   -423.98229   -8389.8976    1706.8565    917.82277   -27794.372    15.349045    13.292644    27.746065    5661.0128 
  201500      201.487    423.80956    17.420576   -441.37576   -423.95519    -8336.666    1880.9102    764.26599   -27655.174    15.349047    13.292646    27.746048     5661.011 
  202000      201.987    415.81902    17.092127   -441.02022   -423.92809   -8509.2407   -333.46864   -1826.5745   -23367.679    15.349049    13.292648     27.74603    5661.0091 
  202500      202.487    410.70605     16.88196   -440.78372   -423.90176   -7166.9319    42.521336    -14.44607   -21528.871    15.349052     13.29265    27.746013    5661.0073 
  203000      202.987    429.28261    17.645544   -441.52037   -423.87483   -8992.2393    1182.6644   -1238.7591   -26920.623    15.349054    13.292653    27.745995    5661.0055 
  203500      203.487    392.08157    16.116406   -439.96387   -423.84746   -8148.5443   -969.89546    2183.0595   -25658.797    15.349056    13.292655    27.745978    5661.0037 
  204000      203.987    421.71983    17.334678   -441.15574   -423.82107   -7339.7986    582.96795    387.51595    -22989.88    15.349059    13.292657     27.74596    5661.0019 
  204500      204.487    396.40153    16.293976   -440.08784   -423.79386   -7651.0427     2452.604   -2853.4885   -22552.244    15.349061    13.292659    27.745943    5661.0001 
  205000      204.987    394.97321    16.235266   -440.00253   -423.76727   -7502.6268    3731.8221    -1747.401   -24492.301    15.349063    13.292661    27.745925    5660.9983 
  205500      205.487     430.0991    17.679106   -441.41974   -423.74063   -7965.6795     3826.758    -5283.841   -22439.955    15.349066    13.292663    27.745908    5660.9965 
  206000      205.987    390.21319    16.039606    -439.7532   -423.71359   -7265.4354    5401.7581   -3636.4757   -23561.589    15.349068    13.292665     27.74589    5660.9947 
  206500      206.487    420.70418     17.29293   -440.97927   -423.68634    -8087.754    4494.1501    -6998.747   -21758.665     15.34907    13.292667    27.745873    5660.9929 
  207000      206.987    421.00262    17.305198   -440.96416   -423.65896   -8241.7952    1476.0338    -4089.613   -22111.806    15.349073    13.292669    27.745855    5660.9911 
  207500      207.487     413.8479    17.011105   -440.64367   -423.63257   -7213.9175    1945.4984   -4820.3729   -18766.878    15.349075    13.292671    27.745838    5660.9892 
  208000      207.987    419.90026    17.259885   -440.86463   -423.60475   -6910.9493     2386.437   -1976.5091   -21142.776    15.349078    13.292674     27.74582    5660.9874 
  208500      208.487     416.1598    17.106135   -440.68342   -423.57729   -7019.2582    4710.5061   -3034.6333   -22733.647     15.34908    13.292676    27.745803    5660.9856 
  209000      208.987    426.31578    17.523593   -441.07444   -423.55085   -7222.0605    6822.7827   -5392.1295   -23096.835    15.349082    13.292678    27.745785    5660.9838 
  209500      209.487    449.35743    18.470714   -441.99435   -423.52364   -8341.2328    1357.6806   -3006.1923   -23375.187    15.349085     13.29268    27.745768     5660.982 
  210000      209.987    452.98071    18.619648    -442.1157   -423.49605   -7578.7805    2407.8663   -2238.9181    -22905.29    15.349087    13.292682     27.74575    5660.9802 
  210500      210.487     413.8411    17.010825   -440.47937   -423.46854   -8334.8979    5055.2517   -6870.2271   -23189.718    15.349089    13.292684    27.745733    5660.9784 
  211000      210.987    414.52732    17.039032   -440.48029   -423.44126   -7420.1599    2310.3739    585.66671   -25156.521    15.349092    13.292686    27.745715    5660.9766 
  211500      211.487    438.85538     18.03903   -441.45349   -423.41446   -8088.0965    2757.3109   -2997.0305    -24024.57    15.349094    13.292688    27.745698    5660.9748 
  212000      211.987    445.28104    18.303155   -441.69072   -423.38757   -8512.3053    4607.6461   -6345.0136   -23799.549    15.349096     13.29269     27.74568     5660.973 
[...]
  948500      948.487    586.25231    24.097741   -436.37372   -412.27598   -1370.2799    4402.9419    1316.7535   -9830.5352    15.352558    13.295784    27.719903    5658.3055 
  949000      948.987    575.06927    23.638065   -435.90973   -412.27167   -2615.2352    3032.6939    3964.0844   -14842.484     15.35256    13.295786    27.719885    5658.3036 
  949500      949.487    588.90179    24.206647   -436.47378   -412.26713   -4073.2098    -194.6649    2019.3235   -14044.288    15.352563    13.295788    27.719868    5658.3018 
  950000      949.987    588.23952    24.179424   -436.44164   -412.26221   -3663.3029     3899.951    3482.7208   -18372.581    15.352565     13.29579     27.71985       5658.3 
  950500      950.487    579.64282    23.826059    -436.0842   -412.25814    -3293.875    3309.4661    2271.6146   -15462.706    15.352567    13.295792    27.719833    5658.2982 
  951000      950.987    573.93089    23.591272   -435.84442   -412.25315   -3589.2193    1821.5121    5691.9175   -18281.087     15.35257    13.295794    27.719815    5658.2964 
  951500      951.487    557.80523    22.928431   -435.17743   -412.24899   -2124.0866    5325.2062    4555.3276   -16252.794    15.352572    13.295796    27.719798    5658.2946 
  952000      951.987    567.16588    23.313198   -435.55676   -412.24356   -3328.8295       6168.8    1393.1321    -17548.42    15.352574    13.295798     27.71978    5658.2928 
  952500      952.487    559.95724    23.016889    -435.2557   -412.23882   -1328.4775    6963.9893    2184.7064   -13134.128    15.352577      13.2958    27.719763     5658.291 
  953000      952.987    578.55696    23.781425   -436.01531   -412.23388   -1876.3057    10406.139   -1303.5841   -14731.472    15.352579    13.295803    27.719745    5658.2891 
  953500      953.487    551.00101    22.648746    -434.8777   -412.22896    55.335724    5660.2293    5422.9864   -10917.209    15.352581    13.295805    27.719728    5658.2873 
  954000      953.987    592.59816    24.358585   -436.58292   -412.22433   -4040.7546    4797.6034    575.07134   -17494.939    15.352584    13.295807     27.71971    5658.2855 
  954500      954.487    564.15745    23.189538   -435.40695   -412.21741    -656.3944    6025.8315    3599.2371   -11594.252    15.352586    13.295809    27.719693    5658.2837 
  955000      954.987    547.81764    22.517894   -434.73026   -412.21236   -1307.8863      7738.75    3317.0695   -14979.479    15.352588    13.295811    27.719675    5658.2819 
  955500      955.487    568.78944    23.379934   -435.58663   -412.20669   -2405.3664    3391.1336    3800.8685   -14408.101    15.352591    13.295813    27.719658    5658.2801 
  956000      955.987    549.67355    22.594181   -434.79443   -412.20025   -1965.4392    4281.9849    6681.9556   -16860.258    15.352593    13.295815     27.71964    5658.2783 
  956500      956.487    580.68941    23.869079   -436.06583   -412.19675   -2330.7096    4051.7611    4481.3902    -15525.28    15.352595    13.295817    27.719623    5658.2765 
  957000      956.987    545.78578    22.434375   -434.62484   -412.19046   -1670.6796    6166.1392    6802.6335   -17980.812    15.352598    13.295819    27.719605    5658.2746 
  957500      957.487    582.38867    23.938927   -436.12318   -412.18426   -2509.5679    5329.7862    2518.1652   -15376.655      15.3526    13.295821    27.719588    5658.2728 
  958000      957.987    581.00093    23.881884   -436.06068    -412.1788    -3926.725    5800.4183     3035.812   -20616.405    15.352603    13.295824     27.71957     5658.271 
  958500      958.487    558.12643    22.941634    -435.1159   -412.17426   -2104.8026    3530.6127    6500.0708   -16345.091    15.352605    13.295826    27.719553    5658.2692 
  959000      958.987    584.78507     24.03743   -436.20615   -412.16872   -3136.5872    5760.7665    2588.8165   -17759.345    15.352607    13.295828    27.719535    5658.2674 
  959500      959.487    548.05553    22.527672    -434.6907   -412.16303   -1105.0302    3800.8207    3829.8779   -10945.789     15.35261     13.29583    27.719518    5658.2656 
  960000      959.987    560.96823    23.058445   -435.21554    -412.1571   -2062.6978    5919.7222    3530.6624   -15638.478    15.352612    13.295832      27.7195    5658.2638 
  960500      960.487    545.59322     22.42646   -434.57794   -412.15148   -1846.2603    4663.1325    5077.7578   -15279.671    15.352614    13.295834    27.719483     5658.262 
  961000      960.987    559.47132    22.996915   -435.14196   -412.14505   -1498.4922    5219.0601    1849.2676   -11563.804    15.352617    13.295836    27.719465    5658.2601 
  961500      961.487    566.42916    23.282915   -435.42152   -412.13861   -3315.4741    5299.8531    1914.2386   -17160.514    15.352619    13.295838    27.719448    5658.2583 
  962000      961.987    571.93831    23.509367   -435.64121   -412.13185   -2835.5547    4007.4529    3153.3413   -15667.458    15.352621     13.29584     27.71943    5658.2565 
  962500      962.487    597.03993    24.541163   -436.66657   -412.12541   -2000.5165    7636.3673     3016.595   -16654.512    15.352624    13.295842    27.719413    5658.2547 
  963000      962.987    542.70097    22.307575   -434.42569   -412.11812   -2543.8659    7902.8041    3433.3594   -18967.761    15.352626    13.295845    27.719395    5658.2529 
  963500      963.487    579.44264    23.817831   -435.93049   -412.11266   -1493.1709     6526.509    5884.3984    -16890.42    15.352628    13.295847    27.719378    5658.2511 
  964000      963.987    553.37726    22.746421   -434.85213   -412.10571   -3368.2531    3688.8519    2842.5318   -16636.143    15.352631    13.295849     27.71936    5658.2493 
  964500      964.487    560.33389    23.032371   -435.13203   -412.09966   -481.93548    5421.9665    4473.8497   -11341.623    15.352633    13.295851    27.719343    5658.2475 
  965000      964.987    566.74463    23.295883   -435.39217   -412.09628   -2887.0999    2123.1496    5377.0015   -16161.451    15.352635    13.295853    27.719325    5658.2456 
  965500      965.487    596.96461    24.538067   -436.62803   -412.08996   -1123.7819    6642.1382    3513.8332   -13527.317    15.352638    13.295855    27.719308    5658.2438 
  966000      965.987    561.22598     23.06904   -435.15227   -412.08323   -2684.4217    6842.4623    50.054016   -14945.782     15.35264    13.295857     27.71929     5658.242 
  966500      966.487    573.58826    23.577188   -435.65288   -412.07569    -3743.218      3809.75    7194.5877   -22233.992    15.352642    13.295859    27.719273    5658.2402 
  967000      966.987    570.63716    23.455884   -435.52561   -412.06972   -2823.5316    6046.4372    5817.5149   -20334.547    15.352645    13.295861    27.719255    5658.2384 
  967500      967.487    556.49489     22.87457   -434.93701   -412.06244    -1595.799    5984.5281    6576.5062   -17348.431    15.352647    13.295863    27.719238    5658.2366 
  968000      967.987    561.30062    23.072108   -435.12745   -412.05534   -2139.6695    6860.5881    1140.9413   -14420.538     15.35265    13.295866     27.71922    5658.2348 
  968500      968.487    575.40268     23.65177   -435.70065   -412.04888   -383.01373    7776.6767    4553.5683   -13479.286    15.352652    13.295868    27.719203     5658.233 
  969000      968.987    540.56037    22.219586   -434.26059   -412.04101    -486.5417    9196.2216    4772.3933    -15428.24    15.352654     13.29587    27.719185    5658.2311 
  969500      969.487     558.6288    22.962284   -434.99676   -412.03448   -3243.1515    1382.0152    5747.2201    -16858.69    15.352657    13.295872    27.719168    5658.2293 
  970000      969.987    577.83943    23.751932   -435.77898   -412.02705   -1869.5918    6411.8051    4524.4663   -16545.047    15.352659    13.295874     27.71915    5658.2275 
  970500      970.487    583.62054    23.989563   -436.00931   -412.01975   -1439.6484    7078.2393    5464.1544   -16861.339    15.352661    13.295876    27.719133    5658.2257 
  971000      970.987    580.69824    23.869442   -435.87961   -412.01017   -2968.1657    4860.0254    6060.2087   -19824.731    15.352664    13.295878    27.719115    5658.2239 
  971500      971.487    587.55043      24.1511    -436.1538    -412.0027   -2951.0994    7364.8353    6740.8467    -22958.98    15.352666     13.29588    27.719098    5658.2221 
  972000      971.987    562.76159    23.132161   -435.12763   -411.99547   -2551.2317    4105.4834    2828.8938   -14588.072    15.352668    13.295882     27.71908    5658.2203 
  972500      972.487    579.01529    23.800265   -435.78786   -411.98759    -2225.452    7210.5062    3362.3251   -17249.187    15.352671    13.295884    27.719063    5658.2185 
  973000      972.987    598.98537     24.62113   -436.60089   -411.97976    -2532.443    3183.2941    2572.6898   -13353.313    15.352673    13.295887    27.719045    5658.2166 
  973500      973.487    591.78178    24.325028   -436.29835   -411.97332   -3157.0848    6663.0724   -618.79966   -15515.527    15.352675    13.295889    27.719028    5658.2148 
  974000      973.987    552.56595    22.713072   -434.67802   -411.96495   -2239.1797    6565.4087    741.96053   -14024.908    15.352678    13.295891     27.71901     5658.213 
  974500      974.487     582.2501    23.933231   -435.89123     -411.958   -2802.6328    4613.3164    2943.8515   -15965.066     15.35268    13.295893    27.718993    5658.2112 
  975000      974.987    585.69235    24.074723   -436.02573   -411.95101   -3792.9908    5162.2647    3612.0922   -20153.329    15.352682    13.295895    27.718975    5658.2094 
  975500      975.487      596.023    24.499362   -436.44211   -411.94275   -2689.9551    6191.8876    2199.8453   -16461.598    15.352685    13.295897    27.718958    5658.2076 
  976000      975.987    577.40244    23.733969   -435.66886   -411.93489   -2207.8677    7656.4132    1249.9682   -15529.985    15.352687    13.295899     27.71894    5658.2058 
  976500      976.487    586.05133    24.089479   -436.01658    -411.9271   -2918.4056    4184.6508    2773.2985   -15713.166    15.352689    13.295901    27.718923     5658.204 
  977000      976.987    586.48164    24.107167   -436.02693   -411.91976   -2973.7499    4659.0228    3946.1896   -17526.462    15.352692    13.295903    27.718905    5658.2021 
  977500      977.487    612.76329    25.187467   -437.09995   -411.91249   -1912.5728    6549.6286    1709.7494   -13997.096    15.352694    13.295905    27.718888    5658.2003 
  978000      977.987    586.42575     24.10487   -436.00744   -411.90257   -2621.5625    5487.6054    5813.3356   -19165.628    15.352697    13.295908     27.71887    5658.1985 
  978500      978.487    580.03094    23.842013   -435.73582   -411.89381    -605.9923    7334.4564     3934.812   -13087.245    15.352699     13.29591    27.718853    5658.1967 
  979000      978.987    566.69589    23.293879   -435.17855   -411.88467   -2285.4992    6529.0681    3949.3078   -17334.873    15.352701    13.295912    27.718835    5658.1949 
  979500      979.487    567.48597    23.326356   -435.20352   -411.87717   -1371.9946    8641.8866    4436.1123   -17193.983    15.352704    13.295914    27.718818    5658.1931 
  980000      979.987    589.34041    24.224676   -436.09362   -411.86894   -1778.7537    7394.1039    3050.9187   -15781.284    15.352706    13.295916      27.7188    5658.1913 
  980500      980.487     547.3447    22.498454   -434.35843   -411.85997   -2390.3954    6243.6453    3895.7835   -17310.615    15.352708    13.295918    27.718783    5658.1895 
  981000      980.987    589.63894    24.236947    -436.0893   -411.85235   -3611.5677    3284.3561   -251.28652   -13867.773    15.352711     13.29592    27.718765    5658.1876 
  981500      981.487    518.83577    21.326602   -433.16979   -411.84319   -1481.2756    2948.2827    4853.5867   -12245.696    15.352713    13.295922    27.718748    5658.1858 
  982000      981.987    582.66473    23.950274   -435.78716   -411.83689   -2821.8506    4792.5979    2251.9734   -15510.123    15.352715    13.295924     27.71873     5658.184 
  982500      982.487    586.28396    24.099042   -435.92695   -411.82791   -2744.4083    9819.3856    1386.8151   -19439.426    15.352718    13.295926    27.718713    5658.1822 
  983000      982.987    576.73229    23.706423   -435.52566   -411.81923   -2131.7583    3769.7647    4708.5132   -14873.553     15.35272    13.295929    27.718695    5658.1804 
  983500      983.487    570.65255    23.456517    -435.2669   -411.81038   -1983.2722      4627.02    5137.6653   -15714.502    15.352722    13.295931    27.718678    5658.1786 
  984000      983.987    570.52558    23.451298   -435.25203   -411.80073   -1377.9854    5045.8326    5399.2043   -14578.993    15.352725    13.295933     27.71866    5658.1768 
  984500      984.487    593.82831     24.40915   -436.20266   -411.79351   -3114.4077    5310.2197    5199.1747   -19852.617    15.352727    13.295935    27.718643     5658.175 
  985000      984.987    576.84956    23.711243   -435.49584    -411.7846   -1517.1115    7670.5629    5523.5082   -17745.406    15.352729    13.295937    27.718625    5658.1731 
  985500      985.487    561.68316    23.087832   -434.86353    -411.7757   -2357.7422    6875.5276   -600.08997   -13348.664    15.352732    13.295939    27.718608    5658.1713 
  986000      985.987    562.80828     23.13408   -434.90214   -411.76806   -1750.5575    6020.6864      6027.75   -17300.109    15.352734    13.295941     27.71859    5658.1695 
  986500      986.487    567.16586    23.313197   -435.07235   -411.75915   -3041.4735    3949.7667    6147.3505   -19221.538    15.352736    13.295943    27.718573    5658.1677 
  987000      986.987    563.04608    23.143855   -434.89522   -411.75136   -2101.4723      4611.37    8272.7416   -19188.529    15.352739    13.295945    27.718555    5658.1659 
  987500      987.487    564.36762    23.198176   -434.94074   -411.74256   -1219.0602    6202.2389    5671.5873   -15531.007    15.352741    13.295947    27.718538    5658.1641 
  988000      987.987    544.31572    22.373949   -434.10667   -411.73272    267.37098    11779.156    4522.6404   -15499.684    15.352744     13.29595     27.71852    5658.1623 
  988500      988.487    585.52715    24.067933   -435.79259   -411.72466   -2572.9979    3650.0295    5754.3679   -17123.391    15.352746    13.295952    27.718503    5658.1605 
  989000      988.987    559.68588    23.005735   -434.72089   -411.71515   -1636.5643    8900.0177    2813.6483   -16623.359    15.352748    13.295954    27.718485    5658.1586 
  989500      989.487    569.18919    23.396366   -435.10182   -411.70546    -590.6985    9150.8853    5790.0766   -16713.057    15.352751    13.295956    27.718468    5658.1568 
  990000      989.987    584.10991    24.009678   -435.70555   -411.69587   -2243.0062    4920.6544    5209.4865    -16859.16    15.352753    13.295958     27.71845     5658.155 
  990500      990.487    607.31174    24.963383   -436.64985   -411.68647   -756.89758    7372.1793    7153.4337   -16796.306    15.352755     13.29596    27.718433    5658.1532 
  991000      990.987    502.26129    20.645313   -432.32083   -411.67552    6.0110767     6736.792    4561.3019   -11280.061    15.352758    13.295962    27.718415    5658.1514 
  991500      991.487     565.9682    23.263968   -434.93227   -411.66831    -1093.746    3764.8715    4410.8527   -11456.962     15.35276    13.295964    27.718398    5658.1496 
  992000      991.987     561.1488    23.065868   -434.72488   -411.65901   -2826.2752    3718.8685    1388.6125   -13586.307    15.352762    13.295966     27.71838    5658.1478 
  992500      992.487    585.03633    24.047758    -435.6984   -411.65064   -2197.0705    5388.2532    4274.4865   -16253.951    15.352765    13.295968    27.718363     5658.146 
  993000      992.987    528.62628    21.729039    -433.3689   -411.63986   -1302.5667    3058.6814    6905.8318   -13872.213    15.352767    13.295971    27.718345    5658.1441 
  993500      993.487     598.3116    24.593435   -436.22461   -411.63118   -2356.5686    6386.9679    3198.8456   -16655.519    15.352769    13.295973    27.718328    5658.1423 
  994000      993.987    570.83854    23.464162   -435.08512   -411.62096   -337.87921    7805.7059    6066.2234   -14885.567    15.352772    13.295975     27.71831    5658.1405 
  994500      994.487    549.91705     22.60419   -434.21611   -411.61192   -1812.6381    5114.5953    5447.3348   -15999.845    15.352774    13.295977    27.718293    5658.1387 
  995000      994.987    591.28592    24.304646   -435.90667   -411.60203   -393.71877    5117.7255    6977.9962   -13276.878    15.352776    13.295979    27.718275    5658.1369 
  995500      995.487    606.22304    24.918632   -436.51217   -411.59354   -4080.4609    3542.5897     2561.929   -18345.901    15.352779    13.295981    27.718258    5658.1351 
  996000      995.987    598.07605    24.583752   -436.16802   -411.58427   -2269.0712    4959.9521    3855.6546    -15622.82    15.352781    13.295983     27.71824    5658.1333 
  996500      996.487    569.64647    23.415162   -434.98837   -411.57321   -1680.9399    4216.6826    6809.0288   -16068.531    15.352783    13.295985    27.718223    5658.1315 
  997000      996.987    574.61755    23.619497   -435.18545   -411.56595    -1740.138    6735.5632     6469.071   -18425.048    15.352786    13.295987    27.718205    5658.1296 
  997500      997.487    567.48663    23.326383   -434.88252   -411.55614   -676.85681     6669.743    2369.5095   -11069.823    15.352788    13.295989    27.718188    5658.1278 
  998000      997.987    569.52096    23.410003   -434.95548   -411.54548     -2529.99    5637.3856    4218.2315   -17445.587    15.352791    13.295992     27.71817     5658.126 
  998500      998.487    590.29448    24.263893   -435.79908   -411.53519    -2263.375    5382.5883    4720.5626   -16893.276    15.352793    13.295994    27.718153    5658.1242 
  999000      998.987    584.07652    24.008305   -435.53451    -411.5262    -1259.123    5819.4972    7596.4781   -17193.344    15.352795    13.295996    27.718135    5658.1224 
  999500      999.487    580.72903    23.870708   -435.38655   -411.51584   -3072.5907    3622.0287    4644.7735   -17484.574    15.352798    13.295998    27.718118    5658.1206 
 1000000      999.987      584.934    24.043552   -435.54984   -411.50629   -973.03796    6094.5876    7357.3763   -16371.078      15.3528       13.296      27.7181    5658.1188 
 1000013         1000    551.35723    22.663388   -434.16908    -411.5057   -128.25841    7601.0635    6458.6031   -14444.442      15.3528       13.296      27.7181    5658.1187 
Loop time of 900.625 on 28 procs for 1000000 steps with 319 atoms

Performance: 95.933 ns/day, 0.250 hours/ns, 1110.340 timesteps/s
87.3% CPU use with 28 MPI tasks x no OpenMP threads

MPI task timing breakdown:
Section |  min time  |  avg time  |  max time  |%varavg| %total
---------------------------------------------------------------
Pair    | 751.33     | 781.83     | 812.42     |  59.7 | 86.81
Neigh   | 0.025908   | 0.036571   | 0.047385   |   3.2 |  0.00
Comm    | 77.945     | 105.41     | 137.02     | 157.1 | 11.70
Output  | 0.10006    | 0.1025     | 0.12604    |   1.4 |  0.01
Modify  | 4.6857     | 8.0727     | 12.893     |  95.8 |  0.90
Other   |            | 5.167      |            |       |  0.57

Nlocal:    11.3929 ave 17 max 6 min
Histogram: 4 3 1 1 3 4 8 0 1 3
Nghost:    640.357 ave 688 max 584 min
Histogram: 5 2 1 0 2 4 3 3 4 4
Neighs:    703.857 ave 1042 max 359 min
Histogram: 3 3 2 1 3 4 7 1 2 2
FullNghs:  1407.71 ave 2106 max 729 min
Histogram: 4 3 1 1 3 5 7 0 1 3

Total # of neighbors = 39416
Ave neighs/atom = 123.561
Neighbor list builds = 547
Dangerous builds = 0

write_restart   POSCAR_1x1x1.rest

#unfix    1
#undump   1
Total wall time: 0:15:00
