LAMMPS (7 Dec 2015)
#----------- Initialize Simulation ------------ restart01
#processors	2 2 2
units		metal
boundary	p p p     ## periodic boundary condition  on x y z axis ##
atom_style atomic
#atom_modify map array sort 0 0.0

read_data	POSCAR_1x1x1.lammps
  triclinic box = (0 0 0) to (15.2434 13.2012 28.5229) with tilt (-7.6216 0 0)
  2 by 2 by 7 MPI processor grid
  reading atoms ...
  319 atoms

#----------- Define Potential -----------------
pair_style meam
pair_coeff * * MgAlZn.library.meam Mg Al Zn MgAlZn.parameter.meam Mg Al Zn 	#1=Mg 2=Al 3=Zn	#atoms/mass

#----------- Neighbor List --------------------
neighbor 2.0 bin
neigh_modify delay 10 check yes

#--------------  Run a simulation (minimization) ---------------------------------------
minimize       1.0e-4   1.0e-6   100   1000          #結構優化的條件
WARNING: Resetting reneighboring criteria during minimization (../min.cpp:168)
Neighbor list info ...
  2 neighbor list requests
  update every 1 steps, delay 0 steps, check yes
  max neighbors/atom: 2000, page size: 100000
  master list distance cutoff = 8
  ghost atom cutoff = 8
  binsize = 4 -> bins = 6 4 8
Memory usage per processor = 8.64835 Mbytes
Step Temp E_pair E_mol TotEng Press 
       0            0    -430.1273            0    -430.1273   -7937.9246 
      14            0   -451.83014            0   -451.83014   -24707.016 
Loop time of 0.023526 on 28 procs for 14 steps with 319 atoms

87.2% CPU use with 28 MPI tasks x no OpenMP threads

Minimization stats:
  Stopping criterion = energy tolerance
  Energy initial, next-to-last, final = 
        -430.127303144     -451.806551683     -451.830139815
  Force two-norm initial, final = 19.4513 0.981627
  Force max component initial, final = 3.22193 0.276431
  Final line search alpha, max atom move = 0.191213 0.0528573
  Iterations, force evaluations = 14 24

MPI task timing breakdown:
Section |  min time  |  avg time  |  max time  |%varavg| %total
---------------------------------------------------------------
Pair    | 0.018338   | 0.019382   | 0.021341   |   0.5 | 82.38
Neigh   | 0          | 0          | 0          |   0.0 |  0.00
Comm    | 0.0012682  | 0.0031035  | 0.0041963  |   1.0 | 13.19
Output  | 0          | 0          | 0          |   0.0 |  0.00
Modify  | 0          | 0          | 0          |   0.0 |  0.00
Other   |            | 0.001041   |            |       |  4.42

Nlocal:    11.3929 ave 17 max 6 min
Histogram: 3 0 4 4 4 3 5 1 0 4
Nghost:    651.143 ave 704 max 601 min
Histogram: 7 1 0 5 1 2 2 3 3 4
Neighs:    691.357 ave 1081 max 347 min
Histogram: 3 0 5 4 2 6 3 2 2 1
FullNghs:  1382.71 ave 2058 max 720 min
Histogram: 3 0 4 4 4 3 5 1 0 4

Total # of neighbors = 38716
Ave neighs/atom = 121.367
Neighbor list builds = 0
Dangerous builds = 0
velocity all  create 600.0 4928459 #rot yes dist gaussian

#--------------  Run a simulation (Relaxation)  ----------------------------------------
fix  1  all  nvt   temp  600.0  600.0  100				#damping constant
#fix  2  all  npt   temp  393.0  393.0  50 iso 0.0 0.0 1000.0
fix  2  all deform 1 x final 0 15.2482 y final 0 13.2053 z final 0 28.4879 xy final -7.624 units lattice
#fix  3  all  npt   temp  393.0  393.0  50 z 0.0 0.0 1000.0

#variable b equal 1
#fix 2 all efield  0.0  0.0  v_b
#compute pot all pe/atom


#----------- Output --------------------------
thermo	 500
timestep  0.001		#1.0 fs
thermo_style	custom step time temp ke pe etotal press pxx pyy pzz lx ly lz vol

dump 1 all custom 10000 dump.eq id type x y z
dump_modify 1 sort  id

run        1000000	#1000 ps
Neighbor list info ...
  2 neighbor list requests
  update every 1 steps, delay 10 steps, check yes
  max neighbors/atom: 2000, page size: 100000
  master list distance cutoff = 8
  ghost atom cutoff = 8
  binsize = 4 -> bins = 6 4 8
Memory usage per processor = 7.55491 Mbytes
Step Time Temp KinEng PotEng TotEng Press Pxx Pyy Pzz Lx Ly Lz Volume 
      14            0          600    24.662836   -451.83014    -427.1673   -20117.434   -6841.0076   -6958.1896   -46553.103      15.2434      13.2012      28.5229    5739.6966 
     500        0.486    304.75645    12.526931   -439.69026   -427.16333   -12666.186     644.7677    3523.8256    -42167.15    15.243402    13.201202    28.522883    5739.6949 
    1000        0.986    301.61115    12.397644   -439.56051   -427.16287   -12620.101    521.21815    2401.1728   -40782.694    15.243405    13.201204    28.522865    5739.6932 
    1500        1.486    310.65353    12.769328   -439.93182    -427.1625   -12999.525    17.203974    4291.2774   -43307.057    15.243407    13.201206    28.522848    5739.6915 
    2000        1.986    319.70653    13.141449   -440.30275    -427.1613   -13652.809   -1297.4941    1887.5931   -41548.525     15.24341    13.201208     28.52283    5739.6897 
    2500        2.486    301.50808    12.393407   -439.55354   -427.16014   -13434.217   -805.21196     500.4933   -39997.933    15.243412     13.20121    28.522813     5739.688 
    3000        2.986    314.84263     12.94152   -440.10002    -427.1585   -12860.664    2175.1832    263.57246   -41020.746    15.243414    13.201212    28.522795    5739.6863 
    3500        3.486    306.67774    12.605905   -439.76257   -427.15667   -12902.422     64.58796    1252.6394   -40024.493    15.243417    13.201214    28.522778    5739.6846 
    4000        3.986     312.0154    12.825308   -439.97958   -427.15428   -13749.085    1111.3726   -506.85548   -41851.771    15.243419    13.201216     28.52276    5739.6828 
    4500        4.486    317.43772    13.048191   -440.20001   -427.15181   -13943.602   -2078.0778    531.02999   -40283.759    15.243422    13.201218    28.522743    5739.6811 
    5000        4.986    299.60924    12.315356   -439.46458   -427.14922   -14432.077   -1195.4698   -1838.2596   -40262.501    15.243424     13.20122    28.522725    5739.6794 
    5500        5.486    298.03097    12.250481   -439.39662   -427.14614   -13494.797   -1299.6367    1363.3839   -40548.139    15.243426    13.201222    28.522708    5739.6777 
    6000        5.986    320.11472    13.158228   -440.30086   -427.14263   -13861.393    67.415245    820.15385   -42471.747    15.243429    13.201225     28.52269    5739.6759 
    6500        6.486     321.5394    13.216789   -440.35511   -427.13832   -13077.949    105.61599    1843.6093   -41183.072    15.243431    13.201227    28.522673    5739.6742 
    7000        6.986    301.87288    12.408402   -439.54322   -427.13482   -13379.852   -767.64599    2999.2313    -42371.14    15.243434    13.201229    28.522655    5739.6725 
    7500        7.486    319.94599    13.151292   -440.28196   -427.13067   -14107.206    283.99301   -269.21037   -42336.401    15.243436    13.201231    28.522638    5739.6707 
    8000        7.986    301.99018    12.413224   -439.53881   -427.12558   -13026.792    590.44555    2823.0581   -42493.881    15.243438    13.201233     28.52262     5739.669 
    8500        8.486    320.37823     13.16906   -440.28983   -427.12077    -14265.14   -1046.4204       763.91    -42512.91    15.243441    13.201235    28.522603    5739.6673 
    9000        8.986     308.2346    12.669899   -439.78509   -427.11519   -13805.059   -289.18157    186.32754   -41312.323    15.243443    13.201237    28.522585    5739.6656 
    9500        9.486    315.65891    12.975073   -440.08467    -427.1096   -13057.524   -368.57948    846.68946   -39650.683    15.243446    13.201239    28.522568    5739.6638 
   10000        9.986    294.47747    12.104416   -439.20794   -427.10352   -12219.664    3602.9252   -190.05662    -40071.86    15.243448    13.201241     28.52255    5739.6621 
   10500       10.486    308.95685    12.699587   -439.79676   -427.09717   -13909.076    112.55675   -589.78047   -41250.005     15.24345    13.201243    28.522533    5739.6604 
   11000       10.986    310.49988    12.763012   -439.85379   -427.09078   -13261.617   -989.26942     1768.426   -40564.009    15.243453    13.201245    28.522515    5739.6587 
   11500       11.486    322.87695    13.271769   -440.35607    -427.0843   -12949.537   -334.44458    2094.7017   -40608.869    15.243455    13.201247    28.522498    5739.6569 
   12000       11.986    316.05334    12.991286    -440.0682   -427.07691   -14387.691   -217.91192    1800.4534   -44745.614    15.243458    13.201249     28.52248    5739.6552 
   12500       12.486     308.2548    12.670729   -439.73997   -427.06924   -14004.354   -1989.6942    23.053816   -40046.422     15.24346    13.201251    28.522463    5739.6535 
   13000       12.986    318.00239    13.071401   -440.13314   -427.06174   -13324.172    -434.6681    278.68555   -39816.534    15.243462    13.201253    28.522445    5739.6518 
   13500       13.486    314.10935    12.911379   -439.96468    -427.0533   -13144.148    990.86496    331.62862   -40754.937    15.243465    13.201255    28.522428      5739.65 
   14000       13.986      309.723    12.731079   -439.77631   -427.04523   -13089.736    2668.4323    5039.6216   -46977.261    15.243467    13.201257     28.52241    5739.6483 
   14500       14.486    299.74927    12.321112   -439.35732   -427.03621    -12216.05    312.80764    2389.3243   -39350.281     15.24347    13.201259    28.522393    5739.6466 
   15000       14.986    329.05938    13.525896   -440.55318   -427.02729   -13594.953   -330.74184   -303.40277   -40150.714    15.243472    13.201261    28.522375    5739.6448 
   15500       15.486     301.1498     12.37868   -439.39648    -427.0178   -14237.285    647.62406    663.24902   -44022.727    15.243474    13.201263    28.522358    5739.6431 
   16000       15.986    322.16999    13.242709   -440.25173   -427.00902   -12435.639    1191.1936     502.5749   -39000.686    15.243477    13.201266     28.52234    5739.6414 
   16500       16.486    307.05631    12.621465   -439.62022   -426.99875   -12542.281   -6.7514278    738.78279   -38358.873    15.243479    13.201268    28.522323    5739.6397 
   17000       16.986    315.85126    12.982979   -439.97146   -426.98848   -13770.061    581.43468   -614.16478   -41277.454    15.243482     13.20127    28.522305    5739.6379 
   17500       17.486    308.60638    12.685181   -439.66256   -426.97738   -13274.776   -298.14198    1803.4189   -41329.604    15.243484    13.201272    28.522288    5739.6362 
   18000       17.986    317.22712    13.039534   -440.00625   -426.96672   -12771.576    1218.5801    11.518104   -39544.827    15.243486    13.201274     28.52227    5739.6345 
   18500       18.486    299.31808    12.303388   -439.25887   -426.95549   -12776.557    641.70389    1078.4269   -40049.803    15.243489    13.201276    28.522253    5739.6328 
   19000       18.986    326.19881    13.408313   -440.35256   -426.94424   -14230.928    -2623.451    998.45949   -41067.793    15.243491    13.201278    28.522235     5739.631 
   19500       19.486    310.25614    12.752993   -439.68521   -426.93221   -14014.401     1651.273   -1978.6257   -41715.851    15.243494     13.20128    28.522218    5739.6293 
   20000       19.986    315.66437    12.975298   -439.89545   -426.92016   -12257.622    905.97762   -1603.5657   -36075.278    15.243496    13.201282      28.5222    5739.6276 
   20500       20.486    301.75894    12.403719   -439.31147   -426.90775   -13220.134   -578.43063     2374.428     -41456.4    15.243498    13.201284    28.522183    5739.6259 
   21000       20.986    311.56805     12.80692   -439.70203   -426.89511   -14122.657    87.322062    209.29428   -42664.587    15.243501    13.201286    28.522165    5739.6241 
   21500       21.486      332.999    13.687833   -440.57068   -426.88285   -13246.352   -46.257961    1227.2974   -40920.095    15.243503    13.201288    28.522148    5739.6224 
   22000       21.986    312.48139    12.844462   -439.71388   -426.86942   -12342.004    1362.7848    1503.0555   -39891.853    15.243506     13.20129     28.52213    5739.6207 
   22500       22.486    329.03607    13.524938   -440.38082   -426.85589    -13471.65   -1597.6236    2109.7839   -40927.111    15.243508    13.201292    28.522113    5739.6189 
   23000       22.986    307.42205    12.636499   -439.47865   -426.84215   -13923.225   -720.43921   -848.10182   -40201.135     15.24351    13.201294    28.522095    5739.6172 
   23500       23.486    306.83577      12.6124   -439.44007   -426.82767   -13478.998    -1860.394    2420.1507    -40996.75    15.243513    13.201296    28.522078    5739.6155 
   24000       23.986    325.40604    13.375726    -440.1894   -426.81368    -12481.55    2304.0226    1048.1081   -40796.781    15.243515    13.201298     28.52206    5739.6138 
   24500       24.486    320.30707    13.166134    -439.9654   -426.79927   -13216.486   -1155.9274   -834.03936   -37659.492    15.243518      13.2013    28.522043     5739.612 
   25000       24.986    330.97875    13.604791   -440.38935   -426.78456   -13768.268    42.819083    593.60477   -41941.227     15.24352    13.201302    28.522025    5739.6103 
   25500       25.486    332.22442    13.655994   -440.42567   -426.76968   -12071.195    1257.0856    1941.7577    -39412.43    15.243522    13.201304    28.522008    5739.6086 
   26000       25.986    303.83611      12.4891   -439.24296   -426.75386    -13062.82    681.67738     1820.148   -41690.287    15.243525    13.201307     28.52199    5739.6069 
   26500       26.486    307.55676    12.642036   -439.38046   -426.73842   -12965.598    1301.7555    746.44674   -40944.996    15.243527    13.201309    28.521973    5739.6051 
   27000       26.986    320.84753     13.18835    -439.9114   -426.72305   -13506.599    1807.1904    841.66565   -43168.653     15.24353    13.201311    28.521955    5739.6034 
   27500       27.486    316.78146    13.021215    -439.7284   -426.70718   -12979.855   -118.26657    4543.4645   -43364.763    15.243532    13.201313    28.521938    5739.6017 
   28000       27.986    311.29768    12.795806   -439.48608   -426.69028   -12352.649    1490.1575    1786.2029   -40334.309    15.243534    13.201315     28.52192       5739.6 
   28500       28.486    320.49508    13.173862   -439.84775   -426.67389   -12678.868    688.29369    1034.5722    -39759.47    15.243537    13.201317    28.521903    5739.5982 
   29000       28.986      303.706    12.483752   -439.14082   -426.65706   -12920.412   -402.93414    2781.2275    -41139.53    15.243539    13.201319    28.521885    5739.5965 
   29500       29.486    329.48171    13.543255   -440.18389   -426.64063   -13029.632     1978.894   -1043.5354   -40024.255    15.243542    13.201321    28.521868    5739.5948 
   30000       29.986    320.17676    13.160778   -439.78446   -426.62369   -12976.078    561.14798    1270.8251   -40760.207    15.243544    13.201323     28.52185    5739.5931 
   30500       30.486     320.8245    13.187403   -439.79415   -426.60675   -12839.268    1485.6895    1579.0362   -41582.531    15.243546    13.201325    28.521833    5739.5913 
   31000       30.986    330.43008    13.582238   -440.17147   -426.58923   -13996.722    -1461.857    743.49945   -41271.808    15.243549    13.201327    28.521815    5739.5896 
   31500       31.486    307.20007    12.627375   -439.19894   -426.57157   -12677.097    1679.8283    1339.8364   -41050.955    15.243551    13.201329    28.521798    5739.5879 
   32000       31.986    313.80548    12.898888   -439.45275   -426.55386   -13231.024   -1480.9384    1108.9264   -39321.059    15.243554    13.201331     28.52178    5739.5861 
   32500       32.486    308.72129    12.689904   -439.22596   -426.53605   -14103.384   -1026.3219   -30.611547   -41253.219    15.243556    13.201333    28.521763    5739.5844 
   33000       32.986    318.60994    13.096374   -439.61481   -426.51843   -13464.093     1984.985   -148.74883   -42228.514    15.243558    13.201335    28.521745    5739.5827 
   33500       33.486    316.75031    13.019935   -439.52046   -426.50052   -13548.297    1069.5307    416.34606   -42130.768    15.243561    13.201337    28.521728     5739.581 
   34000       33.986    314.37324    12.922226    -439.4039   -426.48168   -13108.789    764.75084    1338.3583   -41429.477    15.243563    13.201339     28.52171    5739.5792 
   34500       34.486    330.70385    13.593491   -440.05703   -426.46354   -12752.816    607.38645    1428.4685   -40294.302    15.243566    13.201341    28.521693    5739.5775 
   35000       34.986    340.31841    13.988695   -440.43403   -426.44534   -13054.463   -343.34442    137.84444   -38957.888    15.243568    13.201343    28.521675    5739.5758 
   35500       35.486    313.30869    12.878468    -439.3041   -426.42563   -12963.477    235.70882    2141.1982   -41267.339     15.24357    13.201345    28.521658    5739.5741 
   36000       35.986    322.17274    13.242822   -439.65032    -426.4075   -13965.031   -579.65884    1467.5561   -42782.991    15.243573    13.201348     28.52164    5739.5723 
   36500       36.486    319.75848    13.143585   -439.53239   -426.38881   -12910.112    1408.1615    69.628417   -40208.125    15.243575     13.20135    28.521623    5739.5706 
   37000       36.986    314.42107    12.924192   -439.29436   -426.37017    -12352.12    1091.6667    2514.1637   -40662.192    15.243578    13.201352    28.521605    5739.5689 
   37500       37.486    317.08802    13.033816   -439.38495   -426.35114   -12659.916    2176.2504    851.43895   -41007.437     15.24358    13.201354    28.521588    5739.5672 
   38000       37.986    332.67076     13.67434   -440.00657   -426.33223   -13157.792    550.29781    1561.6772   -41585.351    15.243582    13.201356     28.52157    5739.5654 
   38500       38.486     344.2606    14.150738    -440.4642   -426.31346   -14092.934   -2062.8102    1114.9312   -41330.922    15.243585    13.201358    28.521553    5739.5637 
   39000       38.986    313.51788    12.887066   -439.18069   -426.29362   -12420.675   -1884.7917    1419.4751    -36796.71    15.243587     13.20136    28.521535     5739.562 
   39500       39.486    323.18329    13.284361   -439.55929   -426.27493   -12572.007    2576.7093    106.91924   -40399.651     15.24359    13.201362    28.521518    5739.5602 
   40000       39.986    313.63721    12.891972   -439.14779   -426.25582   -12353.353    970.89665    2574.8222   -40605.777    15.243592    13.201364      28.5215    5739.5585 
   40500       40.486    322.39638    13.252015   -439.48857   -426.23656   -13131.707    871.69405    649.11908   -40915.933    15.243594    13.201366    28.521483    5739.5568 
   41000       40.986    322.95529    13.274989    -439.4929   -426.21791   -12829.721    1464.0361    1700.7061   -41653.905    15.243597    13.201368    28.521465    5739.5551 
   41500       41.486    340.45483    13.994302    -440.1934    -426.1991   -13571.623   -1967.7085     -1191.66   -37555.502    15.243599     13.20137    28.521448    5739.5533 
   42000       41.986     329.9302     13.56169   -439.74177   -426.18008   -12719.807    177.51558    1742.1287   -40079.064    15.243602    13.201372     28.52143    5739.5516 
   42500       42.486    322.89281    13.272421    -439.4332   -426.16078   -13018.326    1219.0154    584.46518   -40858.458    15.243604    13.201374    28.521413    5739.5499 
   43000       42.986     333.1299    13.693213   -439.83538   -426.14216   -13211.999   -1027.0832    2132.9091   -40741.823    15.243606    13.201376    28.521395    5739.5482 
   43500       43.486    317.93959     13.06882   -439.19188   -426.12306   -13768.028     1975.113   -1305.8633   -41973.334    15.243609    13.201378    28.521378    5739.5464 
   44000       43.986    339.34955     13.94887   -440.05361   -426.10474   -13722.506   -1099.3011    -1047.525   -39020.692    15.243611     13.20138     28.52136    5739.5447 
   44500       44.486    319.58076     13.13628   -439.22206   -426.08578   -12931.402   -236.12627    1678.2614    -40236.34    15.243614    13.201382    28.521343     5739.543 
   45000       44.986    318.91491     13.10891   -439.17549   -426.06658   -12546.339    1806.4041    2724.1725   -42169.595    15.243616    13.201384    28.521325    5739.5412 
   45500       45.486    334.64929    13.755668   -439.80353   -426.04787   -11953.063    1240.4457    2097.6578   -39197.292    15.243618    13.201386    28.521308    5739.5395 
   46000       45.986    341.07319     14.01972   -440.04915   -426.02943   -12615.426   -1017.7026    3257.8014   -40086.376    15.243621    13.201389     28.52129    5739.5378 
   46500       46.486     320.1758    13.160738   -439.17112   -426.01038   -13980.012   -343.53945    1727.7393   -43324.235    15.243623    13.201391    28.521273    5739.5361 
   47000       46.986    319.70832    13.141523   -439.13351   -425.99199   -13272.566   -650.14219    795.05609   -39962.612    15.243626    13.201393    28.521255    5739.5343 
   47500       47.486    329.97839    13.563671   -439.53793   -425.97426   -13098.494   -41.034502    2803.4694   -42057.917    15.243628    13.201395    28.521238    5739.5326 
   48000       47.986    300.76971    12.363056   -438.31833   -425.95528   -12219.123    2343.9381    3442.0456   -42443.351     15.24363    13.201397     28.52122    5739.5309 
   48500       48.486    324.87853    13.354043   -439.29168   -425.93764    -12017.09    1061.5975   -502.48061   -36610.386    15.243633    13.201399    28.521203    5739.5292 
   49000       48.986    314.71936    12.936453    -438.8554   -425.91895   -12328.308    463.15496    676.95948    -38125.04    15.243635    13.201401    28.521185    5739.5274 
   49500       49.486    332.92979    13.684988   -439.58674   -425.90175   -13926.501    695.03392    1911.1444   -44385.682    15.243638    13.201403    28.521168    5739.5257 
   50000       49.986    320.48103    13.173285   -439.05662   -425.88334   -13522.312   -480.65745    1102.7498   -41189.028     15.24364    13.201405     28.52115     5739.524 
   50500       50.486    329.28172    13.535035    -439.4005   -425.86547   -12923.127    438.90753    2229.5075   -41437.795    15.243642    13.201407    28.521133    5739.5223 
   51000       50.986    326.59726    13.424691    -439.2728   -425.84811   -13180.759    668.49553    2397.8264   -42608.598    15.243645    13.201409    28.521115    5739.5205 
   51500       51.486    359.92036    14.794428   -440.62532   -425.83089   -13558.549    738.39832    492.96357    -41907.01    15.243647    13.201411    28.521098    5739.5188 
   52000       51.986    352.04662     14.47078   -440.28431   -425.81353   -14017.265   -1380.1332    768.64759   -41440.309     15.24365    13.201413     28.52108    5739.5171 
   52500       52.486    326.61318    13.425345   -439.22056   -425.79521   -12909.324   -713.30299    749.67916   -38764.349    15.243652    13.201415    28.521063    5739.5153 
   53000       52.986    330.47358    13.584026   -439.36195   -425.77792   -11979.064    604.22217    2353.5279   -38894.941    15.243654    13.201417    28.521045    5739.5136 
   53500       53.486    343.13118    14.104313   -439.86521   -425.76089   -13309.102    933.34219    672.34378   -41532.991    15.243657    13.201419    28.521028    5739.5119 
   54000       53.986    318.54952    13.093891   -438.83762   -425.74372   -12573.424    1269.5233    2954.5243   -41944.319    15.243659    13.201421     28.52101    5739.5102 
   54500       54.486    351.33677    14.441602    -440.1691    -425.7275   -13400.188   -2217.5848    1421.8656   -39404.844    15.243662    13.201423    28.520993    5739.5084 
   55000       54.986    343.18318    14.106451   -439.81676   -425.71031    -13746.91    1151.5346    1522.8353   -43915.099    15.243664    13.201425    28.520975    5739.5067 
   55500       55.486    357.12274    14.679432   -440.37319   -425.69376   -14008.596    1040.0013    1409.8245   -44475.613    15.243666    13.201427    28.520958     5739.505 
   56000       55.986    329.33269     13.53713   -439.21333    -425.6762   -12920.936    936.13395    1884.7165    -41583.66    15.243669     13.20143     28.52094    5739.5033 
   56500       56.486    338.45723    13.912192   -439.57232   -425.66013   -14239.973    -39.81304   -891.88207   -41788.223    15.243671    13.201432    28.520923    5739.5015 
   57000       56.986    326.79214    13.432701   -439.07608   -425.64338   -12347.818    -49.82594    1687.3247   -38680.953    15.243674    13.201434    28.520905    5739.4998 
   57500       57.486    346.70332    14.251145   -439.87832   -425.62718   -13684.884   -1135.5829    532.23776   -40451.308    15.243676    13.201436    28.520888    5739.4981 
   58000       57.986    335.48522    13.790028    -439.4005   -425.61047   -11856.407    2120.7239    -14.48619   -37675.459    15.243678    13.201438     28.52087    5739.4964 
   58500       58.486    326.90886    13.437499   -439.03151   -425.59401   -13452.218    1447.0929    197.30941   -42001.056    15.243681     13.20144    28.520853    5739.4946 
   59000       58.986    316.86335    13.024581   -438.60181   -425.57723    -13620.95   -881.07425    1650.2846   -41632.061    15.243683    13.201442    28.520835    5739.4929 
   59500       59.486    358.68448    14.743627    -440.3056   -425.56197   -13010.961   -385.91715    3372.9413   -42019.906    15.243686    13.201444    28.520818    5739.4912 
   60000       59.986     338.8674    13.929052   -439.47448   -425.54543    -12864.23    1045.8657    2109.7486   -41748.304    15.243688    13.201446      28.5208    5739.4894 
   60500       60.486    334.94992    13.768025   -439.29712   -425.52909   -12598.905   -564.16896    1802.2311   -39034.778     15.24369    13.201448    28.520783    5739.4877 
   61000       60.986    313.51237     12.88684   -438.39931   -425.51247   -12612.216    933.47048    1176.8989   -39947.017    15.243693     13.20145    28.520765     5739.486 
   61500       61.486    338.25573    13.903909   -439.40087   -425.49696   -12512.722    -1992.849     2454.055   -37999.371    15.243695    13.201452    28.520748    5739.4843 
   62000       61.986    342.57844    14.081593   -439.56273   -425.48113    -11753.63    1410.1906    2773.8323   -39444.914    15.243698    13.201454     28.52073    5739.4825 
   62500       62.486     331.5338    13.627606    -439.0924    -425.4648   -12923.104    1529.4958    1562.5867   -41861.394      15.2437    13.201456    28.520713    5739.4808 
   63000       62.986    329.48379    13.543341   -438.99243   -425.44909   -12187.353    1318.2222    2268.6486   -40148.929    15.243702    13.201458    28.520695    5739.4791 
   63500       63.486      341.164    14.023453   -439.45687   -425.43342   -12207.744    2903.1453    1676.3848   -41202.763    15.243705     13.20146    28.520678    5739.4774 
   64000       63.986    337.61046    13.877385   -439.29511   -425.41772   -12196.582     2047.089    823.90958   -39460.745    15.243707    13.201462     28.52066    5739.4756 
   64500       64.486    326.06822    13.402945   -438.80452   -425.40158   -12661.377    179.62831    2287.3718    -40451.13     15.24371    13.201464    28.520643    5739.4739 
   65000       64.986    358.15381    14.721814   -440.10798   -425.38616   -13874.361   -2028.5808    1488.6281    -41083.13    15.243712    13.201466    28.520625    5739.4722 
   65500       65.486    332.80331    13.679789   -439.04982   -425.37004   -13349.868    809.37665    1139.3291   -41998.311    15.243714    13.201468    28.520608    5739.4705 
   66000       65.986    347.76596    14.294825   -439.64972    -425.3549   -13185.396    1050.9249    2729.1552   -43336.267    15.243717    13.201471     28.52059    5739.4687 
   66500       66.486     321.1673    13.201494   -438.54003   -425.33854   -12323.061   -550.41928     1381.984   -37800.747    15.243719    13.201473    28.520573     5739.467 
   67000       66.986     338.2947    13.905511    -439.2287   -425.32319   -12652.278    108.65943    2837.4402   -40902.935    15.243722    13.201475    28.520555    5739.4653 
   67500       67.486    342.91429    14.095398   -439.40342   -425.30802    -13147.58   -583.12159    3759.5362   -42619.154    15.243724    13.201477    28.520538    5739.4635 
   68000       67.986    325.68627    13.387245   -438.67906   -425.29182    -12559.79     585.3936    3962.5385   -42227.302    15.243726    13.201479     28.52052    5739.4618 
   68500       68.486    344.93222    14.178344    -439.4548   -425.27646   -12932.581   -1625.5001    310.47087   -37482.714    15.243729    13.201481    28.520503    5739.4601 
   69000       68.986    345.98816    14.221749   -439.48254   -425.26079   -13474.217    41.886007     763.7281   -41228.267    15.243731    13.201483    28.520485    5739.4584 
   69500       69.486    332.38077    13.662421   -438.90708   -425.24466   -12813.736    3459.5783    1064.2019   -42964.989    15.243734    13.201485    28.520468    5739.4566 
   70000       69.986    336.29629    13.823367   -439.05226    -425.2289   -13432.288    1272.7824    1126.8236   -42696.471    15.243736    13.201487     28.52045    5739.4549 
   70500       70.486    322.12564    13.240886   -438.45358   -425.21269   -12842.169    643.58427    1934.9879   -41105.081    15.243738    13.201489    28.520433    5739.4532 
   71000       70.986    321.19377    13.202582   -438.39988    -425.1973   -12600.083    1084.5801    1479.9686   -40364.799    15.243741    13.201491    28.520415    5739.4515 
   71500       71.486    357.42221    14.691742   -439.87395   -425.18221   -12457.554    205.78413    3472.8533   -41051.298    15.243743    13.201493    28.520398    5739.4497 
   72000       71.986    335.19332     13.77803   -438.94395   -425.16592   -12915.243    1014.7967    3319.9338   -43080.459    15.243746    13.201495     28.52038     5739.448 
   72500       72.486    350.82035    14.420374   -439.57045   -425.15007   -13562.936    1770.9644    1655.9647   -44115.737    15.243748    13.201497    28.520363    5739.4463 
   73000       72.986    344.69475    14.168583   -439.30289   -425.13431   -14087.735   -1576.6931    1786.9953   -42473.506     15.24375    13.201499    28.520345    5739.4446 
   73500       73.486    345.44327    14.199351   -439.31755    -425.1182   -12626.013   -326.34712    635.01808   -38186.709    15.243753    13.201501    28.520328    5739.4428 
   74000       73.986    333.27487    13.699172    -438.8014   -425.10222   -12236.431    944.36232    2617.2409   -40270.898    15.243755    13.201503     28.52031    5739.4411 
   74500       74.486    337.24781    13.862479   -438.94852   -425.08605   -13105.904    -454.3033    1770.3937   -40633.802    15.243758    13.201505    28.520293    5739.4394 
   75000       74.986    345.79703    14.213892   -439.28418   -425.07029   -13210.094    1904.5017    1578.4685   -43113.252     15.24376    13.201507    28.520275    5739.4376 
   75500       75.486    346.10866    14.226702   -439.28051   -425.05381    -12627.78     1969.811    247.14836     -40100.3    15.243762    13.201509    28.520258    5739.4359 
   76000       75.986    338.50152    13.914012   -438.95092   -425.03691   -13560.546    1553.1538   -34.160443   -42200.631    15.243765    13.201512     28.52024    5739.4342 
   76500       76.486    333.19731    13.695984    -438.7166   -425.02062   -11849.584    1696.6027    2148.5848    -39393.94    15.243767    13.201514    28.520223    5739.4325 
   77000       76.986    345.00582     14.18137   -439.18593   -425.00456   -12543.146    1088.5886    875.69577   -39593.722     15.24377    13.201516    28.520205    5739.4307 
   77500       77.486    335.52144    13.791517   -438.77971   -424.98819   -12967.565   -506.48813    2937.6093   -41333.816    15.243772    13.201518    28.520188     5739.429 
   78000       77.986    336.42455    13.828639   -438.80049   -424.97185   -12761.651    1625.2836    1165.4453   -41075.681    15.243774     13.20152     28.52017    5739.4273 
   78500       78.486    340.56813     13.99896   -438.95465    -424.9557   -12602.162     2141.142    2443.1292   -42390.757    15.243777    13.201522    28.520153    5739.4256 
   79000       78.986    338.93482    13.931823   -438.87102    -424.9392     -11924.9    1549.9499    2852.0424   -40176.693    15.243779    13.201524    28.520135    5739.4238 
   79500       79.486    336.07794    13.814392    -438.7369    -424.9225   -12209.267    2799.1238    576.85529    -40003.78    15.243782    13.201526    28.520118    5739.4221 
   80000       79.986    364.11145    14.966701   -439.87304   -424.90634    -13389.24   -20.694489    2686.5403   -42833.564    15.243784    13.201528      28.5201    5739.4204 
   80500       80.486     362.3344    14.893656   -439.78348   -424.88982   -13583.028   -1765.5585    1848.8448   -40832.371    15.243786     13.20153    28.520083    5739.4186 
   81000       80.986    353.55453    14.532762   -439.40527   -424.87251   -13229.715    1912.4289    1254.6959   -42856.269    15.243789    13.201532    28.520065    5739.4169 
   81500       81.486    350.05037    14.388724   -439.24404   -424.85532   -13290.472    1274.2975    733.73252   -41879.447    15.243791    13.201534    28.520048    5739.4152 
   82000       81.986    336.55026    13.833806   -438.67219   -424.83838   -12683.577    1521.0016    2187.6785   -41759.413    15.243794    13.201536     28.52003    5739.4135 
   82500       82.486    367.72178    15.115103   -439.93716   -424.82206    -12549.52    955.04216    1483.1413   -40086.745    15.243796    13.201538    28.520013    5739.4117 
   83000       82.986     340.3219    13.988839   -438.79315   -424.80431    -12382.53     2760.058    2565.3572   -42473.005    15.243798     13.20154    28.519995      5739.41 
   83500       83.486     349.9287    14.383724   -439.17113   -424.78741   -12890.248    26.287447    1294.3919   -39991.422    15.243801    13.201542    28.519978    5739.4083 
   84000       83.986    345.13608    14.186724   -438.95695   -424.77023   -12338.322    763.60035     2415.684   -40194.252    15.243803    13.201544     28.51996    5739.4066 
   84500       84.486    330.92474    13.602571   -438.35485   -424.75228   -12412.887    2944.3943    2498.5874   -42681.644    15.243806    13.201546    28.519943    5739.4048 
   85000       84.986     344.0278    14.141169   -438.87663   -424.73546   -13084.455     1678.289   -458.77112   -40472.884    15.243808    13.201548    28.519925    5739.4031 
   85500       85.486    343.79422    14.131567   -438.84947    -424.7179   -11529.517    3189.7412    2473.6125   -40251.903     15.24381     13.20155    28.519908    5739.4014 
   86000       85.986    337.19976    13.860504   -438.56056   -424.70006   -11872.433     3250.492    1226.8396   -40094.631    15.243813    13.201553     28.51989    5739.3997 
   86500       86.486    343.49676     14.11934   -438.80149   -424.68215   -12143.443    1633.7029     2839.068   -40903.099    15.243815    13.201555    28.519873    5739.3979 
   87000       86.986    353.44267    14.528164   -439.19295   -424.66479   -12409.242    2544.5181    322.43266   -40094.675    15.243818    13.201557    28.519855    5739.3962 
   87500       87.486    329.82158    13.557226   -438.20317   -424.64595   -12448.849    600.63947    1975.0917   -39922.278     15.24382    13.201559    28.519838    5739.3945 
   88000       87.986    352.75302    14.499816   -439.12852    -424.6287   -13645.261    721.22921    1279.4162    -42936.43    15.243822    13.201561     28.51982    5739.3927 
   88500       88.486    359.63722     14.78279   -439.39334   -424.61055   -14077.404    1201.2837    893.49835   -44326.994    15.243825    13.201563    28.519803     5739.391 
   89000       88.986    341.33264    14.030385    -438.6226   -424.59222   -11031.816    2215.9267     1941.132   -37252.506    15.243827    13.201565    28.519785    5739.3893 
   89500       89.486     333.4223    13.705232   -438.27925   -424.57402   -12186.497    1621.6504    1349.0313   -39530.174     15.24383    13.201567    28.519768    5739.3876 
   90000       89.986    357.12394    14.679482   -439.23533   -424.55585   -12651.207    3209.0748    1375.2015   -42537.896    15.243832    13.201569     28.51975    5739.3858 
   90500       90.486    357.76033    14.705641   -439.24308   -424.53744   -13334.739   -1240.3072    849.41332   -39613.323    15.243834    13.201571    28.519733    5739.3841 
   91000       90.986    360.38184    14.813397   -439.33218   -424.51878   -12025.902    1935.2142    2116.4695   -40129.391    15.243837    13.201573    28.519715    5739.3824 
   91500       91.486    363.90428    14.958186   -439.45842   -424.50023   -12704.577     761.0567    1741.3127   -40616.101    15.243839    13.201575    28.519698    5739.3807 
   92000       91.986     347.4096    14.280176   -438.76101   -424.48084   -12903.763     824.9265    1730.3407   -41266.556    15.243842    13.201577     28.51968    5739.3789 
   92500       92.486    344.53452    14.161997   -438.62454   -424.46254   -11929.231    243.17841    2277.4149   -38308.285    15.243844    13.201579    28.519663    5739.3772 
   93000       92.986    334.67378    13.756674   -438.20001   -424.44334   -12298.662     2187.592     3229.361   -42312.939    15.243846    13.201581    28.519645    5739.3755 
   93500       93.486      354.191    14.558924   -438.98387   -424.42495   -13351.618    1462.3519    1111.0217   -42628.227    15.243849    13.201583    28.519628    5739.3737 
   94000       93.986    358.63631    14.741647   -439.14729   -424.40564   -12671.367   -758.69075    3219.1878   -40474.599    15.243851    13.201585     28.51961     5739.372 
   94500       94.486    340.36839    13.990749    -438.3772   -424.38645   -12147.127    1455.9724    3476.9654   -41374.318    15.243854    13.201587    28.519593    5739.3703 
   95000       94.986    339.29055    13.946445   -438.31394    -424.3675   -11526.373    1908.4268    1325.4457   -37812.992    15.243856    13.201589    28.519575    5739.3686 
   95500       95.486    336.71825    13.840712    -438.1889   -424.34819   -12064.018    2970.8574    2413.6012   -41576.511    15.243858    13.201591    28.519558    5739.3668 
   96000       95.986    361.30733    14.851439   -439.18083    -424.3294   -12548.925   -29.745975    2158.2884   -39775.317    15.243861    13.201594     28.51954    5739.3651 
   96500       96.486    340.95254    14.014761   -438.32407   -424.30931   -11991.796     1488.566    1013.4915   -38477.446    15.243863    13.201596    28.519523    5739.3634 
   97000       96.986    343.20675    14.107419   -438.39706   -424.28964   -12187.081    1983.7216     2691.985   -41236.948    15.243866    13.201598    28.519505    5739.3617 
   97500       97.486    362.99292    14.920725   -439.19136   -424.27063   -12527.275   -228.55937    4043.6326   -41396.897    15.243868      13.2016    28.519488    5739.3599 
   98000       97.986    343.13725    14.104563    -438.3552   -424.25063   -12470.941    787.41548    4643.7397   -42843.978     15.24387    13.201602     28.51947    5739.3582 
   98500       98.486    351.53979    14.449947   -438.68083   -424.23089   -11935.134    1510.0651    4425.6703   -41741.137    15.243873    13.201604    28.519453    5739.3565 
   99000       98.986    327.52852     13.46297   -437.67347    -424.2105   -11032.405    2329.0827    4634.5356   -40060.834    15.243875    13.201606    28.519435    5739.3548 
   99500       99.486    354.37524    14.566497   -438.75741   -424.19091   -12568.893    2129.3429    954.15995   -40790.183    15.243878    13.201608    28.519418     5739.353 
  100000       99.986    339.76576    13.965979    -438.1369   -424.17093   -12066.847     1387.471    1904.5087   -39492.522     15.24388     13.20161      28.5194    5739.3513 
  100500      100.486    354.95233    14.590218   -438.74114   -424.15092   -12892.064    1619.6678    338.27449   -40634.135    15.243882    13.201612    28.519383    5739.3496 
  101000      100.986    359.99619    14.797545    -438.9285   -424.13095   -11819.137    738.67559    3829.6787   -40025.767    15.243885    13.201614    28.519365    5739.3478 
  101500      101.486    353.54581    14.532404    -438.6431    -424.1107   -12595.577    1354.0639    446.18211   -39586.977    15.243887    13.201616    28.519348    5739.3461 
  102000      101.986      363.639    14.947281    -439.0374   -424.09011   -12901.944    538.09354    2569.8003   -41813.727     15.24389    13.201618     28.51933    5739.3444 
  102500      102.486    350.04264    14.388407   -438.45776   -424.06935   -12570.439    1566.2296    4242.0795   -43519.626    15.243892     13.20162    28.519313    5739.3427 
  103000      102.986    345.03495    14.182567   -438.23145   -424.04888   -11013.708    1951.5816    4420.9132    -39413.62    15.243894    13.201622    28.519295    5739.3409 
  103500      103.486    331.61921    13.631117   -437.65938   -424.02827   -11980.044   -53.707606    2422.5598   -38308.983    15.243897    13.201624    28.519278    5739.3392 
  104000      103.986    361.68257    14.866863    -438.8745   -424.00763   -12374.686    2656.9259    410.54496   -40191.529    15.243899    13.201626     28.51926    5739.3375 
  104500      104.486    349.25593    14.356069   -438.34278   -423.98671   -12144.384    1798.2387    3773.7829   -42005.172    15.243902    13.201628    28.519243    5739.3358 
  105000      104.986    367.96826    15.125235   -439.09144   -423.96621   -11907.559    2047.4734    2255.5287   -40025.681    15.243904     13.20163    28.519225     5739.334 
  105500      105.486    366.76173     15.07564   -439.02129   -423.94565   -13551.742   -265.99971    2371.6281   -42760.855    15.243906    13.201632    28.519208    5739.3323 
  106000      105.986    356.95975    14.672733    -438.5976   -423.92487   -12622.462    2280.4311    1602.1831   -41750.001    15.243909    13.201635     28.51919    5739.3306 
  106500      106.486    362.47239    14.899328   -438.80296   -423.90364   -12597.723   -92.102374    1105.4513   -38806.519    15.243911    13.201637    28.519173    5739.3288 
  107000      106.986    342.43744    14.075797   -437.95771   -423.88191   -12090.546    2565.5326    1826.5429   -40663.712    15.243914    13.201639    28.519155    5739.3271 
  107500      107.486    341.40437    14.033333   -437.89447   -423.86114   -11494.076    3548.0789    4766.9455   -42797.252    15.243916    13.201641    28.519138    5739.3254 
  108000      107.986    358.62124    14.741028   -438.58065   -423.83962   -12575.903    1491.7486    3522.8248   -42742.282    15.243918    13.201643     28.51912    5739.3237 
  108500      108.486    367.58467    15.109467   -438.92807    -423.8186   -13000.009    1405.7119    1036.9905   -41442.729    15.243921    13.201645    28.519103    5739.3219 
  109000      108.986    339.08612    13.938042   -437.73465    -423.7966   -11698.301    3959.1434    6950.8395   -46004.887    15.243923    13.201647    28.519085    5739.3202 
  109500      109.486     341.6924    14.045172   -437.82052   -423.77535   -11576.802    3176.3799    1819.1681   -39725.954    15.243926    13.201649    28.519068    5739.3185 
  110000      109.986    344.92054    14.177865   -437.93122   -423.75335   -11266.125    4678.3157    4207.6125   -42684.303    15.243928    13.201651     28.51905    5739.3168 
  110500      110.486      380.247    15.629949   -439.36245    -423.7325   -13138.814    1018.6473      557.391   -40992.479     15.24393    13.201653    28.519033     5739.315 
  111000      110.986    372.76495    15.322401   -439.03347   -423.71106   -11951.701    3276.7929    1763.0982   -40894.994    15.243933    13.201655    28.519015    5739.3133 
  111500      111.486    342.90136    14.094867   -437.78306    -423.6882   -11499.098     4853.623    2863.8768   -42214.795    15.243935    13.201657    28.518998    5739.3116 
  112000      111.986    355.89907    14.629134   -438.29572   -423.66658   -12570.553    2422.1278    3184.5526   -43318.339    15.243938    13.201659     28.51898    5739.3099 
  112500      112.486    372.05516    15.293225   -438.93904   -423.64582   -11836.211    1128.6919    2848.5668   -39485.892     15.24394    13.201661    28.518963    5739.3081 
  113000      112.986    359.30121    14.768978   -438.39217    -423.6232   -11336.671    2660.3641    3969.7314   -40640.107    15.243942    13.201663    28.518945    5739.3064 
  113500      113.486    367.23926    15.095269   -438.69684   -423.60157     -12576.1   -297.12738     3900.241   -41331.413    15.243945    13.201665    28.518928    5739.3047 
  114000      113.986     357.9313    14.712668   -438.29207    -423.5794   -11466.734    2696.8398    1314.1161   -38411.158    15.243947    13.201667     28.51891    5739.3029 
  114500      114.486    357.23495    14.684045    -438.2417   -423.55765   -11198.152    1362.7169    2933.1452   -37890.319     15.24395    13.201669    28.518893    5739.3012 
  115000      114.986    360.68756    14.825963   -438.36125   -423.53528   -10958.483    2727.6782    3798.2276   -39401.355    15.243952    13.201671    28.518875    5739.2995 
  115500      115.486    347.27746    14.274745   -437.78852   -423.51378   -10980.128     6185.694    1820.9968   -40947.074    15.243954    13.201673    28.518858    5739.2978 
  116000      115.986    373.91817    15.369804   -438.86128   -423.49147   -11994.593    562.81915    2264.2506    -38810.85    15.243957    13.201676     28.51884     5739.296 
  116500      116.486     373.3637    15.347012   -438.81652    -423.4695   -11652.765    1549.5505    1880.3377   -38388.183    15.243959    13.201678    28.518823    5739.2943 
  117000      116.986    349.74015    14.375973   -437.82242   -423.44645   -11362.354    3436.5656    2523.1859   -40046.812    15.243962     13.20168    28.518805    5739.2926 
  117500      117.486    363.13716    14.926654   -438.35123   -423.42458     -12113.6    850.80161    2257.0971     -39448.7    15.243964    13.201682    28.518788    5739.2909 
  118000      117.986    357.14952    14.680533   -438.08222   -423.40169    -11918.36    3333.7683    2929.7182   -42018.566    15.243966    13.201684     28.51877    5739.2891 
  118500      118.486    372.27171    15.302127   -438.68203    -423.3799   -11782.895    2643.1986    2949.9539   -40941.836    15.243969    13.201686    28.518753    5739.2874 
  119000      118.986    372.20597    15.299424   -438.65683   -423.35741    -12030.33    1174.3563    1756.7161   -39022.063    15.243971    13.201688    28.518735    5739.2857 
  119500      119.486    348.15573    14.310846   -437.64594    -423.3351   -9522.2794    2894.1502    4459.7928   -35920.781    15.243974     13.20169    28.518718    5739.2839 
  120000      119.986    363.14015    14.926777   -438.23877     -423.312   -10650.764    5248.0474    3299.9196    -40500.26    15.243976    13.201692      28.5187    5739.2822 
  120500      120.486    367.53511     15.10743   -438.39745   -423.29002   -11646.504    2450.8322    516.79202   -37907.138    15.243978    13.201694    28.518683    5739.2805 
  121000      120.986    373.21693     15.34098   -438.60854   -423.26756   -11660.309    1719.8474    1692.8215   -38393.597    15.243981    13.201696    28.518665    5739.2788 
  121500      121.486    362.48911    14.900015   -438.14493   -423.24492    -11864.12    3401.7465    1985.4498   -40979.557    15.243983    13.201698    28.518648     5739.277 
  122000      121.986    347.31783    14.276404   -437.49811    -423.2217   -11688.607    1263.7368    2831.4748   -39161.032    15.243986      13.2017     28.51863    5739.2753 
  122500      122.486     371.7859    15.282158   -438.48163   -423.19947    -11294.21    2077.6625    3275.2597   -39235.552    15.243988    13.201702    28.518613    5739.2736 
  123000      122.986    362.97189     14.91986   -438.09628   -423.17642   -11247.221   -509.22403    4559.4823   -37791.922     15.24399    13.201704    28.518595    5739.2719 
  123500      123.486    360.92977     14.83592   -437.98939   -423.15347   -11923.802    1098.4973    1600.3411   -38470.245    15.243993    13.201706    28.518578    5739.2701 
  124000      123.986    360.70955    14.826867   -437.95768   -423.13081   -12022.624    1577.6978    2932.7188   -40578.289    15.243995    13.201708     28.51856    5739.2684 
  124500      124.486    351.18006     14.43516   -437.54232   -423.10716    -10297.62    4375.0041    1682.0549   -36949.919    15.243998     13.20171    28.518543    5739.2667 
  125000      124.986    360.06915    14.800544   -437.88506   -423.08452   -11606.275   -87.955136    3277.8906   -38008.761       15.244    13.201712    28.518525    5739.2649 
  125500      125.486    369.14493    15.173601   -438.23576   -423.06216   -12599.754    2369.5701    596.32725   -40765.159    15.244002    13.201714    28.518508    5739.2632 
  126000      125.986     367.5521    15.108128   -438.14643    -423.0383   -12231.683    3518.9768    3482.2095   -43696.235    15.244005    13.201717     28.51849    5739.2615 
  126500      126.486    369.46664    15.186825   -438.20205   -423.01522   -12156.588    2090.9467      548.399    -39109.11    15.244007    13.201719    28.518473    5739.2598 
  127000      126.986    357.09737     14.67839    -437.6707   -422.99231   -11700.841     2645.967    1406.5657   -39155.056     15.24401    13.201721    28.518455     5739.258 
  127500      127.486    384.68163    15.812233   -438.78204   -422.96981   -10865.721    4767.9286    3863.9317   -41229.022    15.244012    13.201723    28.518438    5739.2563 
  128000      127.986    365.36971    15.018422   -437.96492    -422.9465   -12354.662    1595.6598    5468.2443   -44127.889    15.244014    13.201725     28.51842    5739.2546 
  128500      128.486     374.6763    15.400967   -438.32409   -422.92312    -11943.05     3923.285    3194.1054   -42946.542    15.244017    13.201727    28.518403    5739.2529 
  129000      128.986    353.87794    14.546056   -437.44571   -422.89966   -11773.131    886.38818    4155.8457   -40361.627    15.244019    13.201729    28.518385    5739.2511 
  129500      129.486     360.0452    14.799559   -437.67562   -422.87606   -11761.257    1500.4141    2414.2785   -39198.464    15.244022    13.201731    28.518368    5739.2494 
  130000      129.986    379.84693    15.613504   -438.46698   -422.85348   -12383.163    1247.1614    4184.1797    -42580.83    15.244024    13.201733     28.51835    5739.2477 
  130500      130.486    413.66199    17.003463   -439.83462   -422.83116   -13048.377    4.2024934    410.11965   -39559.454    15.244026    13.201735    28.518333     5739.246 
  131000      130.986    376.20284    15.463715   -438.27135   -422.80764   -11039.739    5091.2524    1256.7238   -39467.193    15.244029    13.201737    28.518315    5739.2442 
  131500      131.486    377.96974    15.536343   -438.32069   -422.78435   -11679.835    2448.4034    4094.9277   -41582.836    15.244031    13.201739    28.518298    5739.2425 
  132000      131.986    382.57084    15.725469   -438.48694   -422.76147   -11101.454   -317.48518     4878.967   -37865.843    15.244034    13.201741     28.51828    5739.2408 
  132500      132.486    369.62358    15.193276   -437.93151   -422.73824   -12187.149    3785.4649    3163.5003   -43510.411    15.244036    13.201743    28.518263     5739.239 
  133000      132.986    355.22124    14.601272   -437.31541   -422.71414   -11230.523    66.566207    3670.6797   -37428.815    15.244038    13.201745    28.518245    5739.2373 
  133500      133.486    381.58597    15.684987   -438.37614   -422.69116   -12054.663    6.5844696     2974.848   -39145.421    15.244041    13.201747    28.518228    5739.2356 
  134000      133.986    360.71401     14.82705   -437.49461   -422.66756   -11172.895    1997.3786    1976.2173   -37492.282    15.244043    13.201749     28.51821    5739.2339 
  134500      134.486    362.15898    14.886446   -437.53034   -422.64389    -10491.74    4789.8532    4016.6708   -40281.745    15.244046    13.201751    28.518193    5739.2321 
  135000      134.986    367.69436    15.113976    -437.7349   -422.62092   -12070.948    872.66565    3523.5617    -40609.07    15.244048    13.201753    28.518175    5739.2304 
  135500      135.486    369.73991    15.198058   -437.79514   -422.59708   -11893.651    1656.2428    2699.3756   -40036.573     15.24405    13.201755    28.518158    5739.2287 
  136000      135.986      372.748    15.321704   -437.89518   -422.57347   -12181.637    1840.8504    3829.7895    -42215.55    15.244053    13.201758     28.51814     5739.227 
  136500      136.486    383.55817    15.766054   -438.31687   -422.55082   -12629.633    2689.7275    4387.9199   -44966.548    15.244055     13.20176    28.518123    5739.2252 
  137000      136.986    362.19318    14.887852   -437.41433   -422.52648   -10547.281    2201.2677    4733.6723   -38576.784    15.244058    13.201762    28.518105    5739.2235 
  137500      137.486     370.7339    15.238915    -437.7418   -422.50289   -11486.576     1270.044     2049.705   -37779.477     15.24406    13.201764    28.518088    5739.2218 
  138000      137.986    383.10048     15.74724   -438.22768   -422.48044   -13034.521     1490.344    1819.8901   -42413.797    15.244062    13.201766     28.51807      5739.22 
  138500      138.486    369.51294    15.188728   -437.64532    -422.4566   -11208.539    2967.4595    2943.9613   -39537.038    15.244065    13.201768    28.518053    5739.2183 
  139000      138.986    373.62471    15.357741   -437.79022   -422.43248    -11230.63    2704.9738     3674.469   -40071.332    15.244067     13.20177    28.518035    5739.2166 
  139500      139.486    372.46295    15.309988   -437.71909   -422.40911    -11066.11    672.97696    4199.7935     -38071.1     15.24407    13.201772    28.518018    5739.2149 
  140000      139.986    391.15208    16.078199   -438.46364   -422.38544   -11049.294    3470.8573    3141.4562   -39760.194    15.244072    13.201774       28.518    5739.2131 
  140500      140.486    365.68898    15.031545   -437.39263   -422.36108   -10857.362    969.49635    3426.0222   -36967.605    15.244074    13.201776    28.517983    5739.2114 
  141000      140.986    369.81629    15.201197   -437.53855   -422.33735   -10520.686    2209.5157    441.58705   -34213.161    15.244077    13.201778    28.517965    5739.2097 
  141500      141.486    378.06841    15.540398   -437.85374   -422.31335   -11752.427    1972.2185    2245.4947   -39474.994    15.244079     13.20178    28.517948     5739.208 
  142000      141.986    379.55259    15.601405   -437.89134   -422.28994   -11709.557    3313.0311    2382.2633   -40823.965    15.244082    13.201782     28.51793    5739.2062 
  142500      142.486    369.28208    15.179239   -437.44515   -422.26591   -11690.905    3092.7698    2330.8919   -40496.378    15.244084    13.201784    28.517913    5739.2045 
  143000      142.986    368.90169    15.163603   -437.40528   -422.24168   -10351.795    2438.9461    3801.2399   -37295.572    15.244086    13.201786    28.517895    5739.2028 
  143500      143.486    371.68553    15.278032   -437.49565   -422.21762   -10872.417    3490.3388     1581.476   -37689.067    15.244089    13.201788    28.517878     5739.201 
  144000      143.986    391.86748    16.107605   -438.30138   -422.19378   -13102.648    1251.6164    4362.4742   -44922.034    15.244091     13.20179     28.51786    5739.1993 
  144500      144.486    372.13052    15.296323   -437.46604   -422.16972   -10897.142    1259.4206    1570.7008   -35521.546    15.244094    13.201792    28.517843    5739.1976 
  145000      144.986    388.00037    15.948649   -438.09492   -422.14627   -11739.204     574.5133    3794.2132   -39586.337    15.244096    13.201794    28.517825    5739.1959 
  145500      145.486    382.54279    15.724317   -437.84633   -422.12202   -11075.638    2132.4603    3271.2676   -38630.641    15.244098    13.201796    28.517808    5739.1941 
  146000      145.986     391.1663    16.078784   -438.17685   -422.09806   -11394.511    3914.4701      2278.43   -40376.432    15.244101    13.201799     28.51779    5739.1924 
  146500      146.486    378.75345    15.568557   -437.64234   -422.07378   -11866.639    2576.3035    440.38006     -38616.6    15.244103    13.201801    28.517773    5739.1907 
  147000      146.986    385.03565    15.826785   -437.87625   -422.04946    -11527.68      2491.88     4027.249   -41102.169    15.244106    13.201803    28.517755     5739.189 
  147500      147.486    368.74428    15.157133   -437.18212   -422.02499   -10539.757    2626.7471    4090.2883   -38336.306    15.244108    13.201805    28.517738    5739.1872 
  148000      147.986    367.25421    15.095884    -437.0964   -422.00052   -11018.758    655.61242    3321.6539   -37033.539     15.24411    13.201807     28.51772    5739.1855 
  148500      148.486    378.90641    15.574844    -437.5516   -421.97675   -12123.072    2013.4086    823.07091   -39205.694    15.244113    13.201809    28.517703    5739.1838 
  149000      148.986     361.1699     14.84579   -436.79783   -421.95204   -11010.907    3684.5132    6278.5678   -42995.801    15.244115    13.201811    28.517685    5739.1821 
  149500      149.486    389.19153    15.997611   -437.92621   -421.92859   -10551.197    3891.0623    1660.5744   -37205.227    15.244118    13.201813    28.517668    5739.1803 
  150000      149.986    368.10015    15.130656   -437.03484   -421.90419   -9741.9531    4158.7111    4177.0704   -37561.641     15.24412    13.201815     28.51765    5739.1786 
  150500      150.486    371.82079    15.283592   -437.16321   -421.87962   -10562.685    3805.0229    5206.0687   -40699.147    15.244122    13.201817    28.517633    5739.1769 
  151000      150.986    382.53594    15.724035   -437.57974   -421.85571    -12084.66    1394.1565    217.17862   -37865.315    15.244125    13.201819    28.517615    5739.1751 
  151500      151.486    374.63157    15.399128      -437.23   -421.83087   -9722.7143    5055.2187    3187.1142   -37410.476    15.244127    13.201821    28.517598    5739.1734 
  152000      151.986    374.20458    15.381577   -437.18797    -421.8064     -11741.5    1246.9089    2938.7033   -39410.113     15.24413    13.201823     28.51758    5739.1717 
  152500      152.486    368.82797    15.160573   -436.94232   -421.78175   -11076.036    4247.8603   -252.70797    -37223.26    15.244132    13.201825    28.517563      5739.17 
  153000      152.986    385.32105    15.838516   -437.59687   -421.75836   -11281.366    2650.5632    2086.9045   -38581.564    15.244134    13.201827    28.517545    5739.1682 
  153500      153.486    384.68566    15.812399   -437.54581   -421.73341   -10419.993    4205.7816    4596.0656   -40061.826    15.244137    13.201829    28.517528    5739.1665 
  154000      153.986    363.33811    14.934913   -436.64304   -421.70812   -10070.922    2946.8426    4244.9407   -37404.548    15.244139    13.201831     28.51751    5739.1648 
  154500      154.486     387.8453    15.942275   -437.62658   -421.68431   -11251.025    1987.4446    2768.9885   -38509.508    15.244142    13.201833    28.517493    5739.1631 
  155000      154.986    386.61934    15.891882   -437.55177   -421.65989   -10724.754    1918.7086    4194.0516   -38287.023    15.244144    13.201835    28.517475    5739.1613 
  155500      155.486    378.79763    15.570373   -437.20546   -421.63508   -10508.387     4334.543    3236.6065   -39096.309    15.244146    13.201837    28.517458    5739.1596 
  156000      155.986    403.40802    16.581976   -438.19234   -421.61037   -12055.134    1414.3606     2980.932   -40560.696    15.244149     13.20184     28.51744    5739.1579 
  156500      156.486    385.82015    15.859032   -437.44441   -421.58538   -10345.553    3858.8285    4458.3037   -39353.793    15.244151    13.201842    28.517423    5739.1561 
  157000      156.986    400.07926    16.445148   -438.00631   -421.56116   -11202.003    858.39156    3193.1001   -37657.502    15.244154    13.201844    28.517405    5739.1544 
  157500      157.486    389.76357    16.021125    -437.5574   -421.53628   -11232.122    2217.0768     2621.033   -38534.477    15.244156    13.201846    28.517388    5739.1527 
  158000      157.986    373.90269    15.369168    -436.8798   -421.51063   -10988.203    672.61829    5351.6239   -38988.852    15.244158    13.201848     28.51737     5739.151 
  158500      158.486    367.62531    15.111138   -436.59736   -421.48623   -11437.831    2103.6978    3662.6657   -40079.856    15.244161     13.20185    28.517353    5739.1492 
  159000      158.986    379.88687    15.615146   -437.07644    -421.4613    -11582.73    2211.3016    2812.0269   -39771.518    15.244163    13.201852    28.517335    5739.1475 
  159500      159.486    387.25044    15.917823   -437.35458   -421.43676   -9999.2996    2672.9135    6705.0891   -39375.901    15.244166    13.201854    28.517318    5739.1458 
  160000      159.986    350.63609    14.412801   -435.82367   -421.41086   -10326.731    2593.1298    3743.9299   -37317.251    15.244168    13.201856      28.5173    5739.1441 
  160500      160.486    372.09565     15.29489   -436.68173   -421.38684   -10613.393    2630.5254    4760.3831   -39231.088     15.24417    13.201858    28.517283    5739.1423 
  161000      160.986    394.69248    16.223726   -437.58638   -421.36265   -11832.411    2586.3849    3106.2985   -41189.917    15.244173     13.20186    28.517265    5739.1406 
  161500      161.486    400.59515    16.466354   -437.80413   -421.33777   -10580.849    5911.2958    3492.4695   -41146.312    15.244175    13.201862    28.517248    5739.1389 
  162000      161.986     383.5431    15.765434   -437.07702   -421.31158   -10321.483    2168.8263    4910.8448   -38044.121    15.244178    13.201864     28.51723    5739.1371 
  162500      162.486    364.63373     14.98817   -436.27492   -421.28675    -8797.202    5353.8433    4347.0114   -36092.461     15.24418    13.201866    28.517213    5739.1354 
  163000      162.986    391.05092    16.074041   -437.33594   -421.26189   -9952.6164    1722.3403    3131.7095   -34711.899    15.244182    13.201868    28.517195    5739.1337 
  163500      163.486    401.62217    16.508569   -437.74549   -421.23693   -10507.973    2801.5959    5091.3592   -39416.874    15.244185     13.20187    28.517178     5739.132 
  164000      163.986    384.26767    15.795218   -437.00709   -421.21187   -10831.316    2765.3294     5320.171   -40579.448    15.244187    13.201872     28.51716    5739.1302 
  164500      164.486    389.64705    16.016335   -437.20385   -421.18751   -11290.801    1187.5843    2132.0812   -37192.069     15.24419    13.201874    28.517143    5739.1285 
  165000      164.986    372.61867    15.316389   -436.47828   -421.16189   -11041.375    2648.9716    5833.0652   -41606.161    15.244192    13.201876    28.517125    5739.1268 
  165500      165.486    391.66181    16.099152   -437.23639   -421.13724   -10172.897     3110.738    5470.8964   -39100.326    15.244194    13.201878    28.517108    5739.1251 
  166000      165.986    400.36415    16.456859   -437.56879   -421.11193   -11081.426    1054.8278    3773.1587   -38072.265    15.244197    13.201881     28.51709    5739.1233 
  166500      166.486    385.33173    15.838955   -436.92603   -421.08707   -10806.145    3337.2271    4395.1409   -40150.804    15.244199    13.201883    28.517073    5739.1216 
  167000      166.986     408.8614    16.806136   -437.86777   -421.06163   -11570.012    1583.0733    4020.8012    -40313.91    15.244202    13.201885    28.517055    5739.1199 
  167500      167.486    387.87324    15.943423   -436.97881   -421.03539   -10549.019    2213.9523    5709.4094   -39570.418    15.244204    13.201887    28.517038    5739.1181 
  168000      167.986    386.83076    15.900572   -436.91131   -421.01074   -10958.178    2501.8022    2756.3213   -38132.659    15.244206    13.201889     28.51702    5739.1164 
  168500      168.486    394.47328    16.214716   -437.20078   -420.98607   -11832.788    1040.0889    4366.0575    -40904.51    15.244209    13.201891    28.517003    5739.1147 
  169000      168.986    376.84257    15.490011   -436.44987   -420.95986   -9811.7309    3496.6499    6151.1833   -39083.026    15.244211    13.201893    28.516985     5739.113 
  169500      169.486    417.97125    17.180594    -438.1161    -420.9355   -11265.659    2141.3952    4406.9531   -40345.324    15.244214    13.201895    28.516968    5739.1112 
  170000      169.986      389.137     15.99537    -436.9051   -420.90973   -11294.222    1807.7705    2451.5347   -38141.972    15.244216    13.201897     28.51695    5739.1095 
  170500      170.486     397.0766    16.321725   -437.20624   -420.88452   -10933.909    1501.3014    3020.2204   -37323.249    15.244218    13.201899    28.516933    5739.1078 
  171000      170.986    384.34547    15.798415   -436.65794   -420.85953   -10790.472    3691.0374    1259.3566    -37321.81    15.244221    13.201901    28.516915    5739.1061 
  171500      171.486    363.97458    14.961075   -435.79435   -420.83327   -10973.495    1078.6281    3089.7716   -37088.886    15.244223    13.201903    28.516898    5739.1043 
  172000      171.986    408.05335    16.772921   -437.58155   -420.80863   -10453.783    1169.1575    4380.1755   -36910.683    15.244226    13.201905     28.51688    5739.1026 
  172500      172.486    382.56697    15.725311   -436.50763   -420.78232   -10973.795    427.05645    3732.8714   -37081.313    15.244228    13.201907    28.516863    5739.1009 
  173000      172.986    409.37771    16.827358   -437.58493   -420.75758   -11362.633    3594.3602    2197.7202    -39879.98     15.24423    13.201909    28.516845    5739.0991 
  173500      173.486     411.3906    16.910098   -437.64218   -420.73209   -12040.289    1345.6669    291.03029   -37757.563    15.244233    13.201911    28.516828    5739.0974 
  174000      173.986     401.3683    16.498134   -437.20505   -420.70691   -10721.933     5098.535    4621.1929   -41885.527    15.244235    13.201913     28.51681    5739.0957 
  174500      174.486    381.21321    15.669665   -436.35065   -420.68098   -11345.068    2568.7002    5387.1487   -41991.054    15.244238    13.201915    28.516793     5739.094 
  175000      174.986    391.24145    16.081873   -436.73757    -420.6557   -10553.053    2522.6596     3374.838   -37556.656     15.24424    13.201917    28.516775    5739.0922 
  175500      175.486    388.01752    15.949354   -436.57942   -420.63007   -10756.076    915.79725    3525.6199   -36709.646    15.244242    13.201919    28.516758    5739.0905 
  176000      175.986    408.64945    16.797424   -437.40217   -420.60475   -11351.353    3066.6648    5928.8736   -43049.599    15.244245    13.201922     28.51674    5739.0888 
  176500      176.486    386.93466    15.904843   -436.48353   -420.57868   -9655.9185    2117.0249    4681.1016   -35765.882    15.244247    13.201924    28.516723    5739.0871 
  177000      176.986     389.9255    16.027781   -436.58098    -420.5532   -10114.044    3770.2998    4688.5777   -38801.009     15.24425    13.201926    28.516705    5739.0853 
  177500      177.486    401.49365    16.503287   -437.03103   -420.52775   -10540.201    4142.4392    1888.3559   -37651.398    15.244252    13.201928    28.516688    5739.0836 
  178000      177.986     375.1251    15.419414   -435.92098   -420.50156    -10763.14     3228.465    6413.9213   -41931.808    15.244254     13.20193     28.51667    5739.0819 
  178500      178.486    418.06126    17.184294   -437.66084   -420.47655   -10593.518    4801.7657    4752.2512    -41334.57    15.244257    13.201932    28.516653    5739.0801 
  179000      178.986    391.64845    16.098602    -436.5493    -420.4507   -10140.567    150.04402    5659.6196   -36231.363    15.244259    13.201934    28.516635    5739.0784 
  179500      179.486    392.20569    16.121507   -436.54666   -420.42515   -11283.314     4822.896    2369.1765   -41042.014    15.244262    13.201936    28.516618    5739.0767 
  180000      179.986    413.45589    16.994991   -437.39468   -420.39969    -10980.96    2265.6293    3297.8339   -38506.344    15.244264    13.201938      28.5166     5739.075 
  180500      180.486    416.82074    17.133302   -437.50741    -420.3741   -10397.512    2059.8256    4350.7266   -37603.088    15.244266     13.20194    28.516583    5739.0732 
  181000      180.986    410.73916    16.883321    -437.2315   -420.34818   -10389.165    5087.1955     3297.678   -39552.368    15.244269    13.201942    28.516565    5739.0715 
  181500      181.486    382.19553    15.710042   -436.03155    -420.3215   -9816.6032    2417.1849    7636.7013   -39503.696    15.244271    13.201944    28.516548    5739.0698 
  182000      181.986    371.74676    15.280549   -435.57624   -420.29569   -8820.8913    6009.7314    4389.2611   -36861.666    15.244274    13.201946     28.51653    5739.0681 
  182500      182.486    410.50385    16.873648   -437.14399   -420.27034   -10306.156    3198.9697    5332.2475   -39449.684    15.244276    13.201948    28.516513    5739.0663 
  183000      182.986    400.52083    16.463299   -436.70768   -420.24438   -10184.334     4957.022    4283.6594   -39793.684    15.244278     13.20195    28.516495    5739.0646 
  183500      183.486    393.25268    16.164544    -436.3826   -420.21806   -11247.714    1239.5054    4373.6435   -39356.291    15.244281    13.201952    28.516478    5739.0629 
  184000      183.986    396.40439    16.294094   -436.48631   -420.19221   -9974.8136    2801.5653    4252.4024   -36978.408    15.244283    13.201954     28.51646    5739.0611 
  184500      184.486    401.95223    16.522136   -436.68807   -420.16593   -9019.9423    3342.5906    6009.6906   -36412.108    15.244286    13.201956    28.516443    5739.0594 
  185000      184.986    415.98207    17.098829    -437.2385   -420.13967   -10493.716    1727.4958     4367.551   -37576.196    15.244288    13.201958    28.516425    5739.0577 
  185500      185.486    412.98596    16.975675   -437.08971   -420.11404   -11829.541    1320.6779    2756.4021   -39565.703     15.24429     13.20196    28.516408     5739.056 
  186000      185.986    401.64641    16.509566   -436.59691   -420.08734   -9964.1746    4186.4145    2996.8246   -37075.763    15.244293    13.201963     28.51639    5739.0542 
  186500      186.486     420.9279    17.302126    -437.3639   -420.06177   -9975.8638    3570.9296    6801.3274   -40299.848    15.244295    13.201965    28.516373    5739.0525 
  187000      186.986    400.55938    16.464884   -436.49952   -420.03464   -9954.6118      3128.72    3769.0124   -36761.568    15.244298    13.201967    28.516355    5739.0508 
  187500      187.486    417.66602    17.168047   -437.17661   -420.00856   -10758.877    2392.1898    4062.0302   -38730.852      15.2443    13.201969    28.516338    5739.0491 
  188000      187.986    397.06174    16.321114   -436.30372   -419.98261   -10966.197    2199.1257    4410.9077   -39508.623    15.244302    13.201971     28.51632    5739.0473 
  188500      188.486    422.33306    17.359885   -437.31604   -419.95616   -10818.946    2842.8075    4090.4997   -39390.145    15.244305    13.201973    28.516303    5739.0456 
  189000      188.986    375.85382    15.449368   -435.37831   -419.92895   -8170.0075    6418.2246    5211.6014   -36139.849    15.244307    13.201975    28.516285    5739.0439 
  189500      189.486    418.14905    17.187902    -437.0912    -419.9033   -11817.052    1800.6549    3623.9716   -40875.784     15.24431    13.201977    28.516268    5739.0421 
  190000      189.986    411.05161    16.896164   -436.77325   -419.87709   -10773.801    5228.6471     1435.915   -38985.964    15.244312    13.201979     28.51625    5739.0404 
  190500      190.486    408.35979    16.785518   -436.63701   -419.85149   -10900.226    2070.1657    4540.3108   -39311.155    15.244314    13.201981    28.516233    5739.0387 
  191000      190.986     405.1471     16.65346     -436.479   -419.82554   -9487.1526    4497.9839    3029.7352   -35989.177    15.244317    13.201983    28.516215     5739.037 
  191500      191.486    395.93402     16.27476   -436.07359   -419.79883   -10146.344     2756.105    4295.0514   -37490.188    15.244319    13.201985    28.516198    5739.0352 
  192000      191.986    423.55852    17.410257   -437.18339   -419.77313   -10048.603    5325.9834    3110.2276   -38582.019    15.244322    13.201987     28.51618    5739.0335 
  192500      192.486    408.27842    16.782173   -436.52881   -419.74664   -10547.469    3971.1373    5144.5542   -40758.098    15.244324    13.201989    28.516163    5739.0318 
  193000      192.986    399.10849    16.405245   -436.12511   -419.71987   -10616.455     5210.444      2695.24    -39755.05    15.244326    13.201991    28.516145    5739.0301 
  193500      193.486    411.52927    16.915798   -436.60904   -419.69324   -10172.978    3646.4355     4804.438   -38969.809    15.244329    13.201993    28.516128    5739.0283 
  194000      193.986    399.54567    16.423215   -436.08985   -419.66664   -10641.756     3060.763     5486.515   -40472.547    15.244331    13.201995     28.51611    5739.0266 
  194500      194.486    411.91618    16.931702   -436.57153   -419.63983   -9702.6675     2484.526    4320.2619    -35912.79    15.244334    13.201997    28.516093    5739.0249 
  195000      194.986    413.59642    17.000768   -436.61475   -419.61398   -10229.031     1964.565    3979.5536    -36631.21    15.244336    13.201999    28.516075    5739.0231 
  195500      195.486    417.16986    17.147653   -436.73471   -419.58705   -10315.263    4388.0072    4152.2873   -39486.083    15.244338    13.202001    28.516058    5739.0214 
  196000      195.986    408.51513    16.791903   -436.35306   -419.56116   -10266.113    2128.5641    2639.6166   -35566.519    15.244341    13.202004     28.51604    5739.0197 
  196500      196.486     423.6975     17.41597   -436.95087    -419.5349   -10682.499    2613.3746    6614.0523   -41274.925    15.244343    13.202006    28.516023     5739.018 
  197000      196.986    412.20861    16.943722   -436.45179   -419.50807   -9850.7843    4500.7339    2602.0481   -36655.135    15.244346    13.202008    28.516005    5739.0162 
  197500      197.486    427.67249    17.579361   -437.06041   -419.48105   -9727.9539    4479.8233    4218.9664   -37882.651    15.244348     13.20201    28.515988    5739.0145 
  198000      197.986    446.75714     18.36383   -437.81837   -419.45454   -9547.3889    4630.8683    4413.6016   -37686.636     15.24435    13.202012     28.51597    5739.0128 
  198500      198.486    405.27038    16.658528     -436.086   -419.42747   -10321.876    4184.7922    5807.6477   -40958.069    15.244353    13.202014    28.515953    5739.0111 
  199000      198.986    435.17296    17.887666   -437.28923   -419.40157   -11814.779   -92.781002     2134.108   -37485.665    15.244355    13.202016    28.515935    5739.0093 
  199500      199.486    419.26638     17.23383   -436.60788   -419.37405   -9633.7045    3532.4613    5499.5421   -37933.117    15.244358    13.202018    28.515918    5739.0076 
  200000      199.986    416.87095    17.135366   -436.48259   -419.34722   -8986.9531    5772.0577    5240.7717   -37973.689     15.24436     13.20202      28.5159    5739.0059 
  200500      200.486    427.66519    17.579061   -436.89982   -419.32076   -10041.085    4311.8125     3011.044   -37446.113    15.244362    13.202022    28.515883    5739.0041 
  201000      200.986    419.11843    17.227748   -436.52184   -419.29409    -10598.25    2116.1783    4959.8612    -38870.79    15.244365    13.202024    28.515865    5739.0024 
  201500      201.486    398.71572      16.3891   -435.65573   -419.26663   -10118.659    938.60666     6748.196   -38042.779    15.244367    13.202026    28.515848    5739.0007 
  202000      201.986    415.77148    17.090173   -436.33067   -419.24049   -9706.2193     4376.822    4238.6407   -37734.121     15.24437    13.202028     28.51583     5738.999 
  202500      202.486    417.19835    17.148824    -436.3621   -419.21328   -11545.821    4478.0312    2696.5261   -41812.021    15.244372     13.20203    28.515813    5738.9972 
  203000      202.986    434.72418    17.869218   -437.05596   -419.18674   -9096.7917    4610.8975     6156.416   -38057.689    15.244374    13.202032    28.515795    5738.9955 
  203500      203.486    442.77678    18.200218   -437.36066   -419.16044   -11435.976    1307.2555    5818.8288   -41434.013    15.244377    13.202034    28.515778    5738.9938 
  204000      203.986    432.89651    17.794092   -436.92735   -419.13325   -10413.735    5023.4662    4701.5623   -40966.234    15.244379    13.202036     28.51576    5738.9921 
  204500      204.486    456.20981    18.752379   -437.85971   -419.10733   -11007.554    2493.7105     3409.193   -38925.565    15.244382    13.202038    28.515743    5738.9903 
  205000      204.986    420.21272    17.272729   -436.35218   -419.07945   -9726.0824    3085.4904    6610.1309   -38873.868    15.244384     13.20204    28.515725    5738.9886 
  205500      205.486    401.74385    16.513571   -435.56515   -419.05158   -9264.0882    3311.7968    5297.2825   -36401.344    15.244386    13.202042    28.515708    5738.9869 
  206000      205.986    411.42838    16.911651   -435.93696   -419.02531   -10198.437    5119.1262    3976.7875   -39691.226    15.244389    13.202045     28.51569    5738.9851 
  206500      206.486    415.38578    17.074319   -436.07261   -418.99829   -9896.4787    4045.9477    5350.2385   -39085.622    15.244391    13.202047    28.515673    5738.9834 
  207000      206.986    431.14383    17.722049   -436.69349   -418.97144   -10611.163    705.77824    5577.0059   -38116.272    15.244394    13.202049    28.515655    5738.9817 
  207500      207.486    437.20939    17.971372     -436.916   -418.94463   -9902.4234    3030.4822    5408.2442   -38145.997    15.244396    13.202051    28.515638      5738.98 
  208000      207.986    407.82982    16.763733   -435.68108   -418.91735   -10052.853    3223.4842     6522.874   -39904.918    15.244398    13.202053     28.51562    5738.9782 
  208500      208.486     430.3602    17.689838   -436.58078   -418.89094   -11950.128    84.196424     4177.271   -40111.851    15.244401    13.202055    28.515603    5738.9765 
  209000      208.986    400.26496    16.452781   -435.31618   -418.86339   -10299.998     3562.606    4455.3116   -38917.911    15.244403    13.202057    28.515585    5738.9748 
  209500      209.486    390.16197    16.037501   -434.87393   -418.83643   -8975.7067    5394.5832    4543.5687   -36865.272    15.244406    13.202059    28.515568    5738.9731 
  210000      209.986    392.44973    16.131539    -434.9411   -418.80956   -8732.5821    4377.4283     5059.887   -35635.062    15.244408    13.202061     28.51555    5738.9713 
  210500      210.486    419.41536    17.239953   -436.02314   -418.78319   -10475.054    4790.0866    1548.5467   -37763.795     15.24441    13.202063    28.515533    5738.9696 
  211000      210.986    422.93405    17.384588   -436.14049    -418.7559   -10332.159    5212.8459    7096.5581   -43305.882    15.244413    13.202065    28.515515    5738.9679 
  211500      211.486    416.06924    17.102412   -435.83098   -418.72856   -8333.1762    5322.3895    5868.2412   -36190.159    15.244415    13.202067    28.515498    5738.9661 
  212000      211.986    391.60184    16.096686   -434.79754   -418.70085   -7616.3962    5183.0326    7809.1572   -35841.378    15.244418    13.202069     28.51548    5738.9644 
[...]
  948500      948.486    561.46619    23.078914   -430.45366   -407.37474   -4473.1522    9046.9967    10952.221   -33418.674    15.247953    13.205089    28.489703    5736.4179 
  949000      948.986    544.26807     22.37199   -429.74409    -407.3721   -4978.3733    9584.0431     5655.526   -30174.689    15.247955    13.205091    28.489685    5736.4162 
  949500      949.486    577.14294    23.723303   -431.09273   -407.36943   -3567.0702    10280.394    10564.689   -31546.294    15.247958    13.205093    28.489668    5736.4145 
  950000      949.986    558.99147    22.977191   -430.34405   -407.36686   -5045.4294    9532.9692    9571.5166   -34240.774     15.24796    13.205095     28.48965    5736.4127 
  950500      950.486    562.73017    23.130869    -430.4944   -407.36353   -5642.9961    8288.4815    4511.0081   -29728.478    15.247962    13.205097    28.489633     5736.411 
  951000      950.986    604.36731    24.842353   -432.20265    -407.3603   -5003.3257     10491.23    3473.9591   -28975.166    15.247965    13.205099    28.489615    5736.4093 
  951500      951.486    558.31147     22.94924   -430.30627   -407.35703   -3757.4097    10773.222    9426.9326   -31472.384    15.247967    13.205101    28.489598    5736.4075 
  952000      951.986    563.82337    23.175805   -430.53206   -407.35625   -3897.8592    13491.661    9564.5229   -34749.761     15.24797    13.205103     28.48958    5736.4058 
  952500      952.486    560.29385    23.030725   -430.38135   -407.35063    -4291.524    12176.645    8443.9801   -33495.197    15.247972    13.205105    28.489563    5736.4041 
  953000      952.986    556.64842    22.880881   -430.22768    -407.3468   -5538.4315       8068.3    10420.073   -35103.668    15.247974    13.205107    28.489545    5736.4024 
  953500      953.486    548.88337    22.561701   -429.90508   -407.34338   -4381.9712    10220.245    6934.1097   -30300.268    15.247977    13.205109    28.489528    5736.4006 
  954000      953.986    592.33567    24.347795   -431.68903   -407.34123   -4492.0874    9275.6627    7041.0428   -29792.968    15.247979    13.205111     28.48951    5736.3989 
  954500      954.486    567.66316    23.333639   -430.67131   -407.33767   -4091.7177    13105.024    6422.4185   -31802.595    15.247982    13.205113    28.489493    5736.3972 
  955000      954.986    559.37988    22.993157   -430.32713   -407.33398   -3191.2678    15144.364    11445.828   -36163.996    15.247984    13.205115    28.489475    5736.3954 
  955500      955.486    555.87297    22.849006   -430.17875   -407.32975   -4658.4691    11587.949    8406.9196   -33970.276    15.247986    13.205117    28.489458    5736.3937 
  956000      955.986    573.97518    23.593093   -430.91901   -407.32592   -3507.2819    13706.338    9078.7228   -33306.906    15.247989     13.20512     28.48944     5736.392 
  956500      956.486    571.26174    23.481557   -430.80366   -407.32211   -4922.6693    11453.349    11669.535   -37890.892    15.247991    13.205122    28.489423    5736.3902 
  957000      956.986    545.11001    22.406598   -429.72571   -407.31911    -5330.359    11250.651    6692.5499   -33934.278    15.247994    13.205124    28.489405    5736.3885 
  957500      957.486    567.06267    23.308956   -430.62398   -407.31502   -3825.5486    12641.501     8647.232   -32765.379    15.247996    13.205126    28.489388    5736.3868 
  958000      957.986    581.67441    23.909567   -431.22117    -407.3116     -5381.51    8431.9235     6250.829   -30827.282    15.247998    13.205128     28.48937    5736.3851 
  958500      958.486    534.18456     21.95751   -429.26343   -407.30592   -5042.2238    9902.0343    9153.6853   -34182.391    15.248001     13.20513    28.489353    5736.3833 
  959000      958.986    546.87929    22.479324   -429.78258   -407.30325   -5070.3328    12892.655    6340.3881   -34444.041    15.248003    13.205132    28.489335    5736.3816 
  959500      959.486    567.61243    23.331553   -430.63048   -407.29893   -3557.0605    13540.894    8247.2053    -32459.28    15.248006    13.205134    28.489318    5736.3799 
  960000      959.986    545.03355    22.403455   -429.69755    -407.2941   -4580.1426     12635.37     8422.371   -34798.168    15.248008    13.205136      28.4893    5736.3781 
  960500      960.486    584.64386    24.031626   -431.32251   -407.29088   -5511.7667    9402.0366     6573.985   -32511.322     15.24801    13.205138    28.489283    5736.3764 
  961000      960.986    565.35917    23.238934   -430.52587   -407.28694   -5328.4788    12819.672     3781.242   -32586.351    15.248013     13.20514    28.489265    5736.3747 
  961500      961.486    585.28286    24.057892   -431.34077   -407.28288   -4751.0284    10757.535    7361.9292   -32372.549    15.248015    13.205142    28.489248    5736.3729 
  962000      961.986     592.7819    24.366138   -431.64498   -407.27885   -5135.2097    10212.057    7264.6614   -32882.347    15.248018    13.205144     28.48923    5736.3712 
  962500      962.486    553.61251    22.756091    -430.0307   -407.27461   -5130.2045    12360.433    7617.5784   -35368.625     15.24802    13.205146    28.489213    5736.3695 
  963000      962.986    586.97067    24.127269   -431.39718   -407.26991   -4664.0301    13076.914    5599.8861   -32668.891    15.248022    13.205148    28.489195    5736.3678 
  963500      963.486    562.91474    23.138456   -430.40315   -407.26469   -4172.2237    9894.8837    7927.5668   -30339.122    15.248025     13.20515    28.489178     5736.366 
  964000      963.986    563.95899     23.18138   -430.44092   -407.25954   -5515.4556    8732.4589    7383.0283   -32661.854    15.248027    13.205152     28.48916    5736.3643 
  964500      964.486    558.67457    22.964165   -430.21747    -407.2533   -4161.6715    11879.317    7435.9217   -31800.253     15.24803    13.205154    28.489143    5736.3626 
  965000      964.986    589.82618    24.244644   -431.49331   -407.24867   -4472.1128    9988.5189    10125.671   -33530.528    15.248032    13.205156    28.489125    5736.3608 
  965500      965.486    567.28762    23.318202   -430.56095   -407.24275   -4171.1324    11721.187    6804.8431   -31039.428    15.248034    13.205158    28.489108    5736.3591 
  966000      965.986    576.88934    23.712878   -430.95164   -407.23876   -4602.1451    11744.675    7713.3427   -33264.453    15.248037    13.205161     28.48909    5736.3574 
  966500      966.486    552.52208    22.711269   -429.94474   -407.23348    -6317.336    8750.2093    9865.0198   -37567.237    15.248039    13.205163    28.489073    5736.3556 
  967000      966.986     614.2654    25.249211   -432.47754   -407.22832   -5323.0976    10214.928    6986.8127   -33171.034    15.248042    13.205165    28.489055    5736.3539 
  967500      967.486    554.10036    22.776144   -429.99748   -407.22133   -3333.9522     10540.16    8442.7438    -28984.76    15.248044    13.205167    28.489038    5736.3522 
  968000      967.986    565.82115    23.257923   -430.47411   -407.21619   -3827.9151    11034.232    9121.6406   -31639.618    15.248046    13.205169     28.48902    5736.3504 
  968500      968.486    584.64163    24.031534    -431.2431   -407.21157   -5001.1355    9845.8595    9210.2871   -34059.553    15.248049    13.205171    28.489003    5736.3487 
  969000      968.986    574.30691    23.606728   -430.81316   -407.20643   -4355.0116    14399.265    8487.1831   -35951.482    15.248051    13.205173    28.488985     5736.347 
  969500      969.486     572.3868    23.527803   -430.72872   -407.20092   -3149.8554    15780.282    7359.1473   -32588.996    15.248054    13.205175    28.488968    5736.3453 
  970000      969.986    556.95332    22.893414   -430.08898   -407.19557   -3994.1876    12648.227     8321.771   -32952.561    15.248056    13.205177     28.48895    5736.3435 
  970500      970.486    573.86014    23.588364   -430.77822   -407.18985   -5008.6765    10430.013    10066.528   -35522.571    15.248058    13.205179    28.488933    5736.3418 
  971000      970.986     582.5607    23.945998    -431.1303    -407.1843   -3691.3065    8691.1905     10114.09     -29879.2    15.248061    13.205181    28.488915    5736.3401 
  971500      971.486     578.6779    23.786397   -430.96636   -407.17996   -5639.0502    10200.456     4554.136   -31671.743    15.248063    13.205183    28.488898    5736.3383 
  972000      971.986    572.96461    23.551554   -430.72532   -407.17376   -4640.5714     8828.592    7443.6222   -30193.928    15.248066    13.205185     28.48888    5736.3366 
  972500      972.486    555.91577    22.850765    -430.0187   -407.16793   -4545.1187    8863.5817    9632.5674   -32131.505    15.248068    13.205187    28.488863    5736.3349 
  973000      972.986    573.30437    23.565519   -430.72812    -407.1626   -5372.4004    12865.946    5167.3023   -34150.449     15.24807    13.205189    28.488845    5736.3331 
  973500      973.486    559.56888    23.000926   -430.15736   -407.15643   -4954.7508     10512.01    8549.1707   -33925.433    15.248073    13.205191    28.488828    5736.3314 
  974000      973.986     592.4238    24.351418   -431.50109   -407.14967   -5242.0527    7723.3054    7893.3297   -31342.793    15.248075    13.205193     28.48881    5736.3297 
  974500      974.486    564.09106    23.186808   -430.33067   -407.14386   -3686.5785    12282.791    6820.3622   -30162.889    15.248078    13.205195    28.488793     5736.328 
  975000      974.986     568.9269    23.385584   -430.52478   -407.13919   -1924.0448    11915.949    12156.528   -29844.611     15.24808    13.205197    28.488775    5736.3262 
  975500      975.486    563.45758    23.160769    -430.2935   -407.13273   -4581.5134    10056.039     11169.85    -34970.43    15.248082    13.205199    28.488758    5736.3245 
  976000      975.986    564.38005    23.198687   -430.32618    -407.1275   -5365.5401    11084.244    7006.4182   -34187.282    15.248085    13.205202     28.48874    5736.3228 
  976500      976.486    592.96977     24.37386   -431.49491   -407.12105   -4333.1086     12429.62    4526.2488   -29955.195    15.248087    13.205204    28.488723     5736.321 
  977000      976.986    568.10305     23.35172   -430.46544   -407.11372   -3704.2617    12732.311    8851.2179   -32696.314     15.24809    13.205206    28.488705    5736.3193 
  977500      977.486    556.01711    22.854931   -429.96311   -407.10818   -3371.1407    10016.345     8465.101   -28594.868    15.248092    13.205208    28.488688    5736.3176 
  978000      977.986     573.2863    23.564776   -430.66749   -407.10271   -5290.7284    10413.308     6473.853   -32759.346    15.248094     13.20521     28.48867    5736.3158 
  978500      978.486    587.23459    24.138117   -431.23465   -407.09653   -5734.0558    10874.825    7306.0725   -35383.065    15.248097    13.205212    28.488653    5736.3141 
  979000      978.986    532.88571    21.904121   -428.99334   -407.08922   -1779.7624    11996.876    13077.935   -30414.098    15.248099    13.205214    28.488635    5736.3124 
  979500      979.486    570.56146    23.452773   -430.53568   -407.08291   -4224.6699    10004.603    8092.5089   -30771.122    15.248102    13.205216    28.488618    5736.3107 
  980000      979.986    566.71548    23.294685   -430.36953   -407.07484   -5304.4696    9328.6319    6310.0722   -31552.113    15.248104    13.205218      28.4886    5736.3089 
  980500      980.486    568.53681     23.36955   -430.43709   -407.06754   -4472.2939    10960.909    7187.7581   -31565.549    15.248106     13.20522    28.488583    5736.3072 
  981000      980.986    568.00747    23.347792   -430.40957   -407.06178   -4882.9673    10979.918     8668.311   -34297.131    15.248109    13.205222    28.488565    5736.3055 
  981500      981.486    593.56432    24.398299    -431.4531    -407.0548   -5649.3856    8662.9431    9906.5203    -35517.62    15.248111    13.205224    28.488548    5736.3037 
  982000      981.986    567.13603    23.311971   -430.35965   -407.04767   -3646.6516    11136.496    8974.6817   -31051.133    15.248114    13.205226     28.48853     5736.302 
  982500      982.486    585.97573    24.086372   -431.12677    -407.0404   -4881.6457    11608.546    6169.8566   -32423.339    15.248116    13.205228    28.488513    5736.3003 
  983000      982.986     591.8251    24.326809   -431.36052   -407.03371   -4665.8029    12713.842    6575.9408   -33287.192    15.248118     13.20523    28.488495    5736.2985 
  983500      983.486    555.11033    22.817658     -429.844   -407.02634   -2158.6516    13406.888    6066.2711   -25949.113    15.248121    13.205232    28.488478    5736.2968 
  984000      983.986    558.74031    22.966868   -429.98636    -407.0195   -4140.9947    9947.4082    7849.7469   -30220.139    15.248123    13.205234     28.48846    5736.2951 
  984500      984.486    601.86229    24.739384   -431.75284   -407.01346    -5306.367    9627.0233    5846.0471   -31392.171    15.248126    13.205236    28.488443    5736.2933 
  985000      984.986    561.93428    23.098155   -430.10373   -407.00557   -4400.3067    13061.821    10934.242   -37196.982    15.248128    13.205238    28.488425    5736.2916 
  985500      985.486    566.24176    23.275212   -430.27381    -406.9986   -5024.6501    9298.0723    8345.0431   -32717.066     15.24813     13.20524    28.488408    5736.2899 
  986000      985.986    573.35947    23.567784   -430.55801   -406.99023   -5000.9719    9710.4904    9262.6877   -33976.094    15.248133    13.205243     28.48839    5736.2882 
  986500      986.486    522.24425    21.466707   -428.44949   -406.98278   -3496.7399    15295.587    8781.6713   -34567.478    15.248135    13.205245    28.488373    5736.2864 
  987000      986.986    580.07976     23.84402   -430.81931   -406.97529   -5032.5989    5129.7447    12926.379   -33153.921    15.248138    13.205247    28.488355    5736.2847 
  987500      987.486    583.50393    23.984769   -430.95248   -406.96771   -4816.4757    11273.893    10557.011   -36280.331     15.24814    13.205249    28.488338     5736.283 
  988000      987.986    566.62184    23.290836   -430.25064    -406.9598   -5812.2427    7891.7548    10072.502   -35400.985    15.248142    13.205251     28.48832    5736.2812 
  988500      988.486    593.75621    24.406186   -431.35743   -406.95124    -4626.751    10967.963    8289.8265   -33138.042    15.248145    13.205253    28.488303    5736.2795 
  989000      988.986    585.37519    24.061687   -431.00403   -406.94234   -5134.8514     10590.34    10820.715   -36815.609    15.248147    13.205255    28.488285    5736.2778 
  989500      989.486    545.51237    22.423137   -429.35853   -406.93539   -4486.6735    12061.528    9033.7866   -34555.335     15.24815    13.205257    28.488268     5736.276 
  990000      989.986    529.61761    21.769787   -428.69624   -406.92645   -3570.5639    12287.176    6208.9855   -29207.853    15.248152    13.205259     28.48825    5736.2743 
  990500      990.486    568.24623    23.357606    -430.2762   -406.91859   -5316.7947    12475.893    5941.7269   -34368.004    15.248154    13.205261    28.488233    5736.2726 
  991000      990.986    571.12636    23.475992   -430.38678   -406.91078   -5045.4574    11316.083     8904.263   -35356.718    15.248157    13.205263    28.488215    5736.2709 
  991500      991.486    561.14931    23.065889    -429.9685   -406.90261   -4345.4341    12065.611    7781.8347   -32883.748    15.248159    13.205265    28.488198    5736.2691 
  992000      991.986    579.97945    23.839896   -430.73394   -406.89404   -4546.4392     8974.544    11226.693   -33840.554    15.248162    13.205267     28.48818    5736.2674 
  992500      992.486    569.26478    23.399473   -430.28485   -406.88537   -4253.9413    14360.659    7597.5966   -34720.079    15.248164    13.205269    28.488163    5736.2657 
  993000      992.986    588.35679    24.184245   -431.06156   -406.87731   -4266.1564    11714.685    8083.3842   -32596.538    15.248166    13.205271    28.488145    5736.2639 
  993500      993.486     580.2844    23.852431   -430.72126   -406.86882    -6140.069     9138.722    5592.7413    -33151.67    15.248169    13.205273    28.488128    5736.2622 
  994000      993.986    588.90289    24.206692   -431.06737   -406.86068   -5389.0379    9267.0716    10089.007   -35523.192    15.248171    13.205275     28.48811    5736.2605 
  994500      994.486    557.90751    22.932635   -429.78407   -406.85143   -4632.0639    13314.611    6197.1783   -33407.981    15.248174    13.205277    28.488093    5736.2587 
  995000      994.986    610.74584     25.10454   -431.94853   -406.84399    -5817.981    9761.1123    9067.6148    -36282.67    15.248176    13.205279    28.488075     5736.257 
  995500      995.486    601.89272    24.740635   -431.57561   -406.83497   -5096.5251    13816.799    9437.4474   -38543.822    15.248178    13.205281    28.488058    5736.2553 
  996000      995.986    579.67313    23.827305   -430.65459   -406.82729   -5633.0634    10974.651    8480.0454   -36353.886    15.248181    13.205284     28.48804    5736.2536 
  996500      996.486    573.74937    23.583811    -430.4028   -406.81899   -2295.7944    14555.248    8287.8411   -29730.472    15.248183    13.205286    28.488023    5736.2518 
  997000      996.986    559.31431    22.990462   -429.80054   -406.81008   -4317.1457    11091.297    7256.7053    -31299.44    15.248186    13.205288    28.488005    5736.2501 
  997500      997.486     554.5391    22.794178   -429.59497   -406.80079   -4531.3866    15411.524     4490.622   -33496.306    15.248188     13.20529    28.487988    5736.2484 
  998000      997.986    592.18673    24.341674   -431.13485   -406.79318   -5787.8201    12451.648    4519.2731   -34334.381     15.24819    13.205292     28.48797    5736.2466 
  998500      998.486    566.09644    23.269239   -430.05239   -406.78315   -4048.7481    11195.752     8126.183    -31468.18    15.248193    13.205294    28.487953    5736.2449 
  999000      998.986    550.73634    22.637866   -429.41199   -406.77413   -4270.9578    14692.048    6019.1528   -33524.074    15.248195    13.205296    28.487935    5736.2432 
  999500      999.486    551.12854    22.653988   -429.41877   -406.76478   -3542.0337    9995.6469    6197.1092   -26818.857    15.248198    13.205298    28.487918    5736.2414 
 1000000      999.986    570.60902    23.454727   -430.21057   -406.75585   -5959.8328    7041.0246    7193.3232   -32113.846      15.2482      13.2053      28.4879    5736.2397 
 1000014         1000    566.80316    23.298289   -430.05478   -406.75649   -5878.8999    8575.4529    5704.3296   -31916.482      15.2482      13.2053      28.4879    5736.2397 
Loop time of 869.957 on 28 procs for 1000000 steps with 319 atoms

Performance: 99.315 ns/day, 0.242 hours/ns, 1149.482 timesteps/s
86.6% CPU use with 28 MPI tasks x no OpenMP threads

MPI task timing breakdown:
Section |  min time  |  avg time  |  max time  |%varavg| %total
---------------------------------------------------------------
Pair    | 726.88     | 757.34     | 782.28     |  58.4 | 87.05
Neigh   | 0.035235   | 0.051431   | 0.066781   |   3.8 |  0.01
Comm    | 76.08      | 99.14      | 127.81     | 150.9 | 11.40
Output  | 0.10103    | 0.10322    | 0.12578    |   1.4 |  0.01
Modify  | 5.144      | 8.2508     | 11.175     |  71.5 |  0.95
Other   |            | 5.076      |            |       |  0.58

Nlocal:    11.3929 ave 17 max 7 min
Histogram: 3 3 2 1 5 3 5 3 1 2
Nghost:    653.893 ave 710 max 600 min
Histogram: 5 3 0 5 1 4 1 3 1 5
Neighs:    690.143 ave 997 max 407 min
Histogram: 4 3 2 1 3 4 4 3 2 2
FullNghs:  1380.29 ave 2095 max 831 min
Histogram: 5 2 2 3 4 5 1 4 1 1

Total # of neighbors = 38648
Ave neighs/atom = 121.154
Neighbor list builds = 763
Dangerous builds = 0

write_restart   POSCAR_1x1x1.rest

#unfix    1
#undump   1
Total wall time: 0:14:30
