LAMMPS (7 Dec 2015)
#----------- Initialize Simulation ------------ restart01
#processors	2 2 2
units		metal
boundary	p p p     ## periodic boundary condition  on x y z axis ##
atom_style atomic
#atom_modify map array sort 0 0.0

read_data	POSCAR_1x1x1.lammps
  triclinic box = (0 0 0) to (15.429 13.3619 27.1583) with tilt (-7.7144 0 0)
  2 by 2 by 7 MPI processor grid
  reading atoms ...
  319 atoms

#----------- Define Potential -----------------
pair_style meam
pair_coeff * * MgAlZn.library.meam Mg Al Zn MgAlZn.parameter.meam Mg Al Zn 	#1=Mg 2=Al 3=Zn	#atoms/mass

#----------- Neighbor List --------------------
neighbor 2.0 bin
neigh_modify delay 10 check yes

#--------------  Run a simulation (minimization) ---------------------------------------
minimize       1.0e-4   1.0e-6   100   1000          #結構優化的條件
WARNING: Resetting reneighboring criteria during minimization (../min.cpp:168)
Neighbor list info ...
  2 neighbor list requests
  update every 1 steps, delay 0 steps, check yes
  max neighbors/atom: 2000, page size: 100000
  master list distance cutoff = 8
  ghost atom cutoff = 8
  binsize = 4 -> bins = 6 4 7
Memory usage per processor = 8.65115 Mbytes
Step Temp E_pair E_mol TotEng Press 
       0            0   -434.63376            0   -434.63376    -2762.789 
      16            0   -457.56583            0   -457.56583   -19707.079 
Loop time of 0.0231004 on 28 procs for 16 steps with 319 atoms

88.8% CPU use with 28 MPI tasks x no OpenMP threads

Minimization stats:
  Stopping criterion = energy tolerance
  Energy initial, next-to-last, final = 
        -434.633760428     -457.531131354     -457.565829615
  Force two-norm initial, final = 20.6365 0.590674
  Force max component initial, final = 3.73463 0.145029
  Final line search alpha, max atom move = 0.257209 0.0373027
  Iterations, force evaluations = 16 24

MPI task timing breakdown:
Section |  min time  |  avg time  |  max time  |%varavg| %total
---------------------------------------------------------------
Pair    | 0.017948   | 0.019336   | 0.020899   |   0.5 | 83.70
Neigh   | 0          | 0          | 0          |   0.0 |  0.00
Comm    | 0.0012874  | 0.0028688  | 0.0042085  |   1.3 | 12.42
Output  | 0          | 0          | 0          |   0.0 |  0.00
Modify  | 0          | 0          | 0          |   0.0 |  0.00
Other   |            | 0.0008959  |            |       |  3.88

Nlocal:    11.3929 ave 17 max 6 min
Histogram: 4 1 2 3 6 1 4 3 1 3
Nghost:    648.036 ave 692 max 585 min
Histogram: 2 3 1 2 1 2 3 7 5 2
Neighs:    709.429 ave 1089 max 360 min
Histogram: 3 2 2 1 8 2 6 0 3 1
FullNghs:  1418.86 ave 2135 max 738 min
Histogram: 4 1 2 3 6 1 5 2 2 2

Total # of neighbors = 39728
Ave neighs/atom = 124.539
Neighbor list builds = 0
Dangerous builds = 0
velocity all  create 600.0 4928459 #rot yes dist gaussian

#--------------  Run a simulation (Relaxation)  ----------------------------------------
fix  1  all  nvt   temp  600.0  600.0  100				#damping constant
#fix  2  all  npt   temp  393.0  393.0  50 iso 0.0 0.0 1000.0
fix  2  all deform 1 x final 0 15.4337 y final 0 13.366 z final 0 27.1233 xy final -7.71675 units lattice
#fix  3  all  npt   temp  393.0  393.0  50 z 0.0 0.0 1000.0

#variable b equal 1
#fix 2 all efield  0.0  0.0  v_b
#compute pot all pe/atom


#----------- Output --------------------------
thermo	 500
timestep  0.001		#1.0 fs
thermo_style	custom step time temp ke pe etotal press pxx pyy pzz lx ly lz vol

dump 1 all custom 10000 dump.eq id type x y z
dump_modify 1 sort  id

run        1000000	#1000 ps
Neighbor list info ...
  2 neighbor list requests
  update every 1 steps, delay 10 steps, check yes
  max neighbors/atom: 2000, page size: 100000
  master list distance cutoff = 8
  ghost atom cutoff = 8
  binsize = 4 -> bins = 6 4 7
Memory usage per processor = 7.55709 Mbytes
Step Time Temp KinEng PotEng TotEng Press Pxx Pyy Pzz Lx Ly Lz Volume 
      16            0          600    24.662836   -457.56583   -432.90299   -15002.145   -10211.566   -9797.1818   -24997.687       15.429      13.3619      27.1583    5598.9756 
     500        0.484    334.17388    13.736126   -446.63517   -432.89905   -8290.0185   -3577.6567   -4266.0987     -17026.3    15.429002    13.361902    27.158283    5598.9738 
    1000        0.984     312.8916    12.861324   -445.75961   -432.89829   -7446.3269   -3539.2205   -2125.2885   -16674.472    15.429005    13.361904    27.158266    5598.9719 
    1500        1.484    329.89782    13.560359   -446.45808   -432.89772   -8413.3788   -3812.0288   -4614.5209   -16813.587    15.429007    13.361906    27.158248      5598.97 
    2000        1.984    308.80449    12.693324   -445.58916   -432.89584    -8611.472   -5360.5628   -3743.6549   -16730.198    15.429009    13.361908    27.158231    5598.9681 
    2500        2.484    297.74617    12.238775    -445.1338   -432.89503   -9277.0133   -6662.0444   -3582.6489   -17586.347    15.429012     13.36191    27.158213    5598.9662 
    3000        2.984    288.36499    11.853164   -444.74604   -432.89287   -8605.9577   -5768.5717   -6915.4459   -13133.856    15.429014    13.361912    27.158196    5598.9643 
    3500        3.484    334.90219    13.766063   -446.65721   -432.89115   -8136.0345   -6719.7686   -3274.7214   -14413.613    15.429016    13.361914    27.158178    5598.9624 
    4000        3.984    324.04428    13.319751   -446.20856   -432.88881   -8015.2593    -2963.142   -5934.8303   -15147.806    15.429019    13.361916    27.158161    5598.9605 
    4500        4.484    322.71407    13.265074   -446.15115   -432.88608    -8530.042   -4041.2315   -3920.2886   -17628.606    15.429021    13.361918    27.158143    5598.9586 
    5000        4.984    319.96742    13.152173   -446.03569   -432.88352   -8177.7964   -3681.7121   -5492.8094   -15358.868    15.429023     13.36192    27.158126    5598.9567 
    5500        5.484    313.97834    12.905994   -445.78582   -432.87982   -8514.6704   -6439.1948   -3903.9472   -15200.869    15.429026    13.361922    27.158108    5598.9548 
    6000        5.984    338.02705    13.894509   -446.77186   -432.87735   -8603.8362   -5799.0031   -3828.2457    -16184.26    15.429028    13.361925    27.158091    5598.9529 
    6500        6.484    304.52327    12.517346   -445.38986   -432.87251   -8030.3635   -4509.1686   -4133.8008   -15448.121     15.42903    13.361927    27.158073     5598.951 
    7000        6.984     336.4468    13.829554   -446.69855     -432.869   -8668.5888   -6620.3111   -3767.6086   -15617.847    15.429033    13.361929    27.158056    5598.9492 
    7500        7.484    320.30907    13.166217   -446.03011    -432.8639    -8589.865   -4892.3602   -5712.9288   -15164.306    15.429035    13.361931    27.158038    5598.9473 
    8000        7.984    314.70712     12.93595   -445.79523   -432.85928   -7029.6185   -3260.9751   -2740.0339   -15087.847    15.429038    13.361933    27.158021    5598.9454 
    8500        8.484    304.42983    12.513505   -445.36762   -432.85412     -9008.23   -4184.4823   -4922.2198   -17917.988     15.42904    13.361935    27.158003    5598.9435 
    9000        8.984    319.15081    13.118607   -445.96729   -432.84868   -8460.7283     -3773.17   -4927.2126   -16681.802    15.429042    13.361937    27.157986    5598.9416 
    9500        9.484     315.7686    12.979582    -445.8229   -432.84332   -7888.1917   -3171.8296   -2416.9125   -18075.833    15.429045    13.361939    27.157968    5598.9397 
   10000        9.984    304.55429    12.518621   -445.35554   -432.83692   -7627.5545   -4851.8646   -4364.4134   -13666.386    15.429047    13.361941    27.157951    5598.9378 
   10500       10.484    316.62794    13.014905   -445.84609   -432.83119   -7892.0496   -3141.7437   -5280.9289   -15253.476    15.429049    13.361943    27.157933    5598.9359 
   11000       10.984    305.11441    12.541644   -445.36567   -432.82402   -7535.7709   -3030.0308   -2686.0401   -16891.242    15.429052    13.361945    27.157916     5598.934 
   11500       11.484     329.1068    13.527845   -446.34539   -432.81754   -9205.3381   -7008.9013   -4457.9694   -16149.143    15.429054    13.361947    27.157898    5598.9321 
   12000       11.984    336.48158    13.830983   -446.64128    -432.8103   -7759.7264   -3463.3913   -4755.8378    -15059.95    15.429056    13.361949    27.157881    5598.9302 
   12500       12.484    313.73121    12.895835   -445.69817   -432.80234   -7479.8262   -3947.5785   -3841.4553   -14650.445    15.429059    13.361951    27.157863    5598.9283 
   13000       12.984    305.25722    12.547514   -445.34179   -432.79427   -8022.4401   -5608.1228   -2944.4808   -15514.717    15.429061    13.361953    27.157846    5598.9264 
   13500       13.484    328.06838    13.485161   -446.27155   -432.78639   -9813.3904   -7347.7395   -2282.5863   -19809.845    15.429063    13.361955    27.157828    5598.9245 
   14000       13.984    311.52276    12.805058   -445.58296    -432.7779   -8174.6984   -3799.8918   -3019.2849   -17704.918    15.429066    13.361957    27.157811    5598.9226 
   14500       14.484    321.40954    13.211451   -445.98066   -432.76921   -8375.6369   -6125.4112   -5541.6429   -13459.857    15.429068    13.361959    27.157793    5598.9207 
   15000       14.984    326.36796    13.415266   -446.17595   -432.76069   -9117.7461    -4863.257   -3026.8369   -19463.144     15.42907    13.361961    27.157776    5598.9188 
   15500       15.484    334.12292    13.734031   -446.48546   -432.75143   -8247.0323   -5809.3209     -2858.59   -16073.186    15.429073    13.361963    27.157758    5598.9169 
   16000       15.984    302.83078    12.447776   -445.18877     -432.741   -7351.9704   -2594.0895   -1779.5188   -17682.303    15.429075    13.361966    27.157741     5598.915 
   16500       16.484    327.61478    13.466516   -446.19759   -432.73108   -9104.5325   -4940.9163   -4597.6513    -17775.03    15.429077    13.361968    27.157723    5598.9131 
   17000       16.984    315.40041    12.964447   -445.68529   -432.72084    -7807.642   -3040.5075    -6095.758   -14286.661     15.42908     13.36197    27.157706    5598.9112 
   17500       17.484    319.85272    13.147458   -445.85758   -432.71013   -7420.5723   -3368.8004    -2875.514   -16017.402    15.429082    13.361972    27.157688    5598.9093 
   18000       17.984    309.17776    12.708667   -445.40815   -432.69948   -8157.7418   -4326.1785   -4490.5458   -15656.501    15.429085    13.361974    27.157671    5598.9074 
   18500       18.484    307.00862    12.619505    -445.3075     -432.688   -8325.0231   -3062.6167   -2344.4063   -19568.046    15.429087    13.361976    27.157653    5598.9055 
   19000       18.984    317.24336    13.040201   -445.71684   -432.67664    -9378.185   -5484.2473   -4854.8862   -17795.421    15.429089    13.361978    27.157636    5598.9036 
   19500       19.484    300.45921    12.350293   -445.01469    -432.6644   -8160.3029   -5146.6526   -4460.8547   -14873.401    15.429092     13.36198    27.157618    5598.9017 
   20000       19.984    328.91293    13.519876   -446.17308    -432.6532   -7981.1877     -4892.79   -4602.5865   -14448.187    15.429094    13.361982    27.157601    5598.8999 
   20500       20.484    313.81575    12.899311   -445.53947   -432.64016   -8168.9651   -5517.8833   -3641.6669   -15347.345    15.429096    13.361984    27.157583     5598.898 
   21000       20.984    320.30321    13.165976   -445.79392   -432.62795   -7587.7883   -3119.0386   -2844.1352   -16800.191    15.429099    13.361986    27.157566    5598.8961 
   21500       21.484    318.39418    13.087505   -445.70185   -432.61434   -8416.9933   -7038.3737   -7188.0648   -11024.541    15.429101    13.361988    27.157548    5598.8942 
   22000       21.984    311.52637    12.805206   -445.40642   -432.60121   -8700.5938   -6858.2657   -5466.2408   -13777.275    15.429103     13.36199    27.157531    5598.8923 
   22500       22.484    325.03211    13.360356   -445.94829   -432.58794   -8453.1436   -4692.9558   -2901.9349    -17764.54    15.429106    13.361992    27.157513    5598.8904 
   23000       22.984    318.86355    13.106799   -445.68079   -432.57399   -7954.7173   -9004.3723   -3496.1289   -11363.651    15.429108    13.361994    27.157496    5598.8885 
   23500       23.484    333.35043    13.702278   -446.26275   -432.56047   -7915.6958   -5030.3777   -1303.4546   -17413.255     15.42911    13.361996    27.157478    5598.8866 
   24000       23.984    309.62961     12.72724   -445.27304    -432.5458   -8429.0865   -3931.0111   -5584.3649   -15771.884    15.429113    13.361998    27.157461    5598.8847 
   24500       24.484    345.83157    14.215312   -446.74713   -432.53182   -8804.0746   -4991.9105   -3538.1967   -17882.117    15.429115       13.362    27.157443    5598.8828 
   25000       24.984    324.22703    13.327263   -445.84376    -432.5165   -7350.7223    -4240.866   -3375.2854   -14436.016    15.429117    13.362002    27.157426    5598.8809 
   25500       25.484    320.89561    13.190326   -445.69162   -432.50129   -7342.3788   -1489.3798   -5890.7172   -14647.039     15.42912    13.362004    27.157408     5598.879 
   26000       25.984    320.09766    13.157527   -445.64373   -432.48621   -8101.5367   -6156.0236   -4482.8065    -13665.78    15.429122    13.362007    27.157391    5598.8771 
   26500       26.484    324.22678    13.327253    -445.7976   -432.47034   -7620.1471   -2503.2579   -6427.1932    -13929.99    15.429124    13.362009    27.157373    5598.8752 
   27000       26.984    321.37477    13.210022   -445.66436   -432.45433   -8512.8169   -2901.3593   -6040.6943   -16596.397    15.429127    13.362011    27.157356    5598.8733 
   27500       27.484    302.56753    12.436956   -444.87523   -432.43828    -7418.324   -3119.0247   -4128.1744   -15007.773    15.429129    13.362013    27.157338    5598.8714 
   28000       27.984    309.84854    12.736239   -445.15843   -432.42219   -7502.3689   -2630.5878   -5505.0647   -14371.454    15.429132    13.362015    27.157321    5598.8695 
   28500       28.484    325.14361    13.364939   -445.77093   -432.40599   -8175.2139   -4110.8554    -4624.699   -15790.087    15.429134    13.362017    27.157303    5598.8676 
   29000       28.984    316.43547    13.006993   -445.39624   -432.38925   -6989.8338   -4034.1788   -3440.2936   -13495.029    15.429136    13.362019    27.157286    5598.8657 
   29500       29.484    334.98624    13.769517    -446.1421   -432.37258    -9477.846   -5524.0182   -4986.4931   -17923.027    15.429139    13.362021    27.157268    5598.8638 
   30000       29.984    309.49256    12.721607   -445.07662   -432.35502   -7305.4927   -4532.2236   -3991.8494   -13392.405    15.429141    13.362023    27.157251    5598.8619 
   30500       30.484    322.61092    13.260834   -445.59901   -432.33817   -7800.2156   -3174.4137    -5388.811   -14837.422    15.429143    13.362025    27.157233      5598.86 
   31000       30.984    326.38175    13.415832   -445.73664   -432.32081   -8173.6825   -5856.5859    -6658.307   -12006.155    15.429146    13.362027    27.157216    5598.8581 
   31500       31.484    323.23295    13.286402   -445.58937   -432.30297   -7162.1181   -4190.7108   -3817.6112   -13478.032    15.429148    13.362029    27.157198    5598.8562 
   32000       31.984    308.53632    12.682301   -444.96712   -432.28481   -7715.2377   -4828.3146   -2666.8282    -15650.57     15.42915    13.362031    27.157181    5598.8543 
   32500       32.484    323.20533    13.285267   -445.55248   -432.26722   -7230.7723   -4851.0766   -5195.3075   -11645.933    15.429153    13.362033    27.157163    5598.8524 
   33000       32.984    306.78314    12.610237   -444.85858   -432.24834    -7602.702   -4550.0784   -4971.8256   -13286.202    15.429155    13.362035    27.157146    5598.8506 
   33500       33.484    318.70793    13.100402   -445.33063   -432.23023   -8514.1421   -6146.6814   -3760.5912   -15635.154    15.429157    13.362037    27.157128    5598.8487 
   34000       33.984    326.33699    13.413992   -445.62634   -432.21235   -8245.7548   -6870.9726   -2096.2689   -15770.023     15.42916    13.362039    27.157111    5598.8468 
   34500       34.484    332.11367    13.651442   -445.84513   -432.19369   -7760.0584   -4564.3339   -2636.4092   -16079.432    15.429162    13.362041    27.157093    5598.8449 
   35000       34.984    332.08939    13.650444   -445.82592   -432.17548   -8537.5787   -7489.6393    -3843.741   -14279.356    15.429164    13.362043    27.157076     5598.843 
   35500       35.484    325.42126    13.376352   -445.53283   -432.15647   -6779.3297   -2688.0834   -3692.6918   -13957.214    15.429167    13.362045    27.157058    5598.8411 
   36000       35.984    325.60093    13.383737    -445.5216   -432.13787   -7105.0513   -4254.6986    -2756.181   -14304.274    15.429169    13.362048    27.157041    5598.8392 
   36500       36.484    327.36077    13.456075   -445.57488    -432.1188   -7821.7332   -3825.3304   -5010.4089    -14629.46    15.429171     13.36205    27.157023    5598.8373 
   37000       36.984    310.77168    12.774185   -444.87355   -432.09936   -8254.1064   -4621.2052    -4668.941   -15472.173    15.429174    13.362052    27.157006    5598.8354 
   37500       37.484    347.91638    14.301007    -446.3821   -432.08109   -8425.3704   -6302.9549   -1669.3238   -17303.832    15.429176    13.362054    27.156988    5598.8335 
   38000       37.984    329.48231     13.54328   -445.60479   -432.06151   -7486.8392   -4265.4971   -1545.3872   -16649.633    15.429179    13.362056    27.156971    5598.8316 
   38500       38.484    336.32471    13.824535   -445.86773    -432.0432   -8544.7093   -3951.5555   -4170.3236   -17512.249    15.429181    13.362058    27.156953    5598.8297 
   39000       38.984    317.14522    13.036167   -445.05929   -432.02312   -6908.6685   -1923.7451   -4969.5779   -13832.682    15.429183     13.36206    27.156936    5598.8278 
   39500       39.484    351.51141     14.44878   -446.45329   -432.00451   -7659.2789   -2394.4816   -6045.6158   -14537.739    15.429186    13.362062    27.156918    5598.8259 
   40000       39.984    335.33746    13.783954   -445.76907   -431.98512    -8095.411   -4742.5611   -5208.8665   -14334.805    15.429188    13.362064    27.156901     5598.824 
   40500       40.484     342.6619    14.085024   -446.05109   -431.96607   -8004.5239   -3825.0961   -2539.8265   -17648.649     15.42919    13.362066    27.156883    5598.8221 
   41000       40.984    312.88481    12.861044   -444.80715    -431.9461   -6848.5005   -3040.8956   -2590.0812   -14914.525    15.429193    13.362068    27.156866    5598.8202 
   41500       41.484    336.28271    13.822809   -445.75032   -431.92751   -8243.1437   -3573.0675   -2150.6831    -19005.68    15.429195     13.36207    27.156848    5598.8183 
   42000       41.984    340.30018    13.987946   -445.89621   -431.90827   -7514.0433   -6477.8704   -331.05363   -15733.206    15.429197    13.362072    27.156831    5598.8164 
   42500       42.484    339.63465    13.960589   -445.84965   -431.88906   -8761.5492   -4294.4023   -5135.7699   -16854.475      15.4292    13.362074    27.156813    5598.8145 
   43000       42.984    324.23632    13.327645   -445.19745    -431.8698   -7826.1966   -5907.4197    -4995.794   -12575.376    15.429202    13.362076    27.156796    5598.8126 
   43500       43.484    319.96976    13.152269    -445.0026   -431.85033   -7750.8523   -4530.8879   -4862.1484    -13859.52    15.429204    13.362078    27.156778    5598.8107 
   44000       43.984    324.90713    13.355219   -445.18682    -431.8316   -8576.8806   -4045.1464   -5492.7335   -16192.762    15.429207     13.36208    27.156761    5598.8088 
   44500       44.484    353.71208    14.539238   -446.35236   -431.81312   -7833.1668   -5117.8768   -5998.7518   -12382.872    15.429209    13.362082    27.156743    5598.8069 
   45000       44.984    336.31828    13.824271   -445.61823   -431.79396   -8016.7765   -5002.8091   -1294.4194   -17753.101    15.429211    13.362084    27.156726     5598.805 
   45500       45.484    339.45229    13.953093   -445.72775   -431.77466    -7531.432   -5942.4944   -2761.1546   -13890.647    15.429214    13.362086    27.156708    5598.8031 
   46000       45.984     326.6148    13.425412   -445.18154   -431.75613   -7684.3242   -2474.6519   -4605.5217   -15972.799    15.429216    13.362089    27.156691    5598.8013 
   46500       46.484    325.37972    13.374644   -445.11188   -431.73723   -8016.5299   -5168.4315   -4022.7906   -14858.368    15.429218    13.362091    27.156673    5598.7994 
   47000       46.984    325.11656    13.363827    -445.0825   -431.71867   -6625.3984   -2401.8466   -149.54892     -17324.8    15.429221    13.362093    27.156656    5598.7975 
   47500       47.484    334.76113    13.760264   -445.45996   -431.69969   -7712.6928   -3762.2702   -3749.9073   -15625.901    15.429223    13.362095    27.156638    5598.7956 
   48000       47.984    334.26049    13.739686   -445.42154   -431.68185   -8093.3356    -5959.481   -4779.6337   -13540.892    15.429226    13.362097    27.156621    5598.7937 
   48500       48.484    331.58748    13.629812    -445.2935   -431.66368   -8533.6012   -5325.1383   -5802.9646   -14472.701    15.429228    13.362099    27.156603    5598.7918 
   49000       48.984    329.02557    13.524506   -445.16922   -431.64472   -7330.9748   -3223.1829   -3349.2707   -15420.471     15.42923    13.362101    27.156586    5598.7899 
   49500       49.484    337.03823    13.853864   -445.48087   -431.62701    -7733.742   -3443.9177   -6693.5005   -13063.808    15.429233    13.362103    27.156568     5598.788 
   50000       49.984    341.88624     14.05314   -445.66211   -431.60897    -8641.225    -4330.552   -6043.4933    -15549.63    15.429235    13.362105    27.156551    5598.7861 
   50500       50.484    335.97734    13.810257   -445.40076    -431.5905   -7844.6936   -3111.0167   -3086.8074   -17336.257    15.429237    13.362107    27.156533    5598.7842 
   51000       50.984    308.39279    12.676401   -444.24866   -431.57226   -6184.9152    -3234.203   -3369.7216   -11950.821     15.42924    13.362109    27.156516    5598.7823 
   51500       51.484    343.73257    14.129033   -445.68405   -431.55502   -8257.1978   -2828.4932   -4838.4885   -17104.612    15.429242    13.362111    27.156498    5598.7804 
   52000       51.984    322.94975    13.274761   -444.81125   -431.53649   -7573.7845   -4283.8572   -2169.1881   -16268.308    15.429244    13.362113    27.156481    5598.7785 
   52500       52.484     340.4445    13.993878   -445.51342   -431.51954   -7163.9743    -3609.135    -4922.035   -12960.753    15.429247    13.362115    27.156463    5598.7766 
   53000       52.984    345.76065    14.212397   -445.71432   -431.50192   -7567.9398   -3499.5526   -5346.2811   -13857.986    15.429249    13.362117    27.156446    5598.7747 
   53500       53.484    324.26145    13.328678   -444.81258    -431.4839   -7122.6599    -3908.182   -2400.4489   -15059.349    15.429251    13.362119    27.156428    5598.7728 
   54000       53.984    322.84549    13.270475   -444.73631   -431.46583   -7521.9069   -4745.5022   -2782.8238   -15037.395    15.429254    13.362121    27.156411    5598.7709 
   54500       54.484    325.30637    13.371629   -444.82061   -431.44898   -7041.3006   -3969.9717   -1225.0603    -15928.87    15.429256    13.362123    27.156393     5598.769 
   55000       54.984     341.7844    14.048954   -445.48128   -431.43232   -7940.5973   -1118.8326   -4493.6826   -18209.277    15.429258    13.362125    27.156376    5598.7671 
   55500       55.484    364.54105     14.98436   -446.40019   -431.41583   -9064.2271   -5512.3422   -3852.3084   -17828.031    15.429261    13.362127    27.156358    5598.7652 
   56000       55.984    338.76632    13.924897   -445.32295   -431.39806   -8790.5187     -6020.11   -2377.6427   -17973.804    15.429263     13.36213    27.156341    5598.7633 
   56500       56.484    348.86486    14.339994   -445.72156   -431.38156   -7253.8966   -5360.9818   -1001.9529   -15398.755    15.429265    13.362132    27.156323    5598.7614 
   57000       56.984    332.44858    13.665208    -445.0298   -431.36459   -8573.1406   -3290.3291    -4234.205   -18194.888    15.429268    13.362134    27.156306    5598.7595 
   57500       57.484    342.05898    14.060241   -445.40801   -431.34777    -7821.052   -5612.1476   -4348.4953   -13502.513     15.42927    13.362136    27.156288    5598.7576 
   58000       57.984    341.83494    14.051031   -445.38241   -431.33138   -6782.8046   -5764.4096   -2343.1223   -12240.882    15.429273    13.362138    27.156271    5598.7557 
   58500       58.484    315.52177    12.969436   -444.28402   -431.31458    -7290.988   -3579.8621   -3820.0975   -14473.004    15.429275     13.36214    27.156253    5598.7538 
   59000       58.984    340.52196    13.997062    -445.2957   -431.29864   -7492.8837   -2004.3395   -2316.4782   -18157.833    15.429277    13.362142    27.156236     5598.752 
   59500       59.484     348.5429     14.32676   -445.60886    -431.2821   -8725.1491   -5032.3536   -5471.1528   -15671.941     15.42928    13.362144    27.156218    5598.7501 
   60000       59.984    330.13574    13.570139   -444.83585   -431.26571   -6642.3003   -4123.1885   -5869.6096   -9934.1028    15.429282    13.362146    27.156201    5598.7482 
   60500       60.484    352.60613    14.493778   -445.74368    -431.2499   -8274.0132   -6552.1425   -2438.6366    -15831.26    15.429284    13.362148    27.156183    5598.7463 
   61000       60.984    325.53915    13.381198   -444.61384   -431.23264   -7377.8368   -1392.6625   -4313.2117   -16427.636    15.429287     13.36215    27.156166    5598.7444 
   61500       61.484    342.69662    14.086451   -445.30306   -431.21661   -6896.2801   -4706.7113   -1809.6547   -14172.474    15.429289    13.362152    27.156148    5598.7425 
   62000       61.984    337.03313    13.853654    -445.0541   -431.20044    -7094.891   -3741.6877    -2201.343   -15341.642    15.429291    13.362154    27.156131    5598.7406 
   62500       62.484    327.62823    13.467069   -444.65108   -431.18401   -7413.5763   -2513.0133    -3425.264   -16302.452    15.429294    13.362156    27.156113    5598.7387 
   63000       62.984    317.29189    13.042196   -444.21016   -431.16797   -8476.0551   -5425.1086   -1052.0379   -18951.019    15.429296    13.362158    27.156096    5598.7368 
   63500       63.484    334.79077    13.761483    -444.9138   -431.15231   -8095.3952   -6930.0302   -672.48976   -16683.666    15.429298     13.36216    27.156078    5598.7349 
   64000       63.984    330.40537    13.581222   -444.71772    -431.1365   -7700.1118   -5953.6672   -6798.9459   -10347.722    15.429301    13.362162    27.156061     5598.733 
   64500       64.484    337.38716    13.868207   -444.98862   -431.12042   -8168.5377   -5898.7074   -3427.5915   -15179.314    15.429303    13.362164    27.156043    5598.7311 
   65000       64.984    343.31276    14.111777   -445.21656   -431.10479   -8193.4013   -4970.3351   -5993.8937   -13615.975    15.429305    13.362166    27.156026    5598.7292 
   65500       65.484    357.05121    14.676492   -445.76562   -431.08913   -8395.8513   -6262.1322   -3712.5901   -15212.832    15.429308    13.362168    27.156008    5598.7273 
   66000       65.984    353.25875    14.520604   -445.59375   -431.07315   -7266.8302   -6046.9156   -2834.3689   -12919.206     15.42931    13.362171    27.155991    5598.7254 
   66500       66.484    343.12334    14.103991   -445.16131   -431.05732   -7332.7951   -4332.1027   -1619.7535   -16046.529    15.429312    13.362173    27.155973    5598.7235 
   67000       66.984    346.90658      14.2595   -445.30106   -431.04156   -7946.6611   -5286.4545   -4458.0905   -14095.438    15.429315    13.362175    27.155956    5598.7216 
   67500       67.484    339.19796    13.942639   -444.96836   -431.02572   -7174.6834   -4468.7482   -5428.5698   -11626.732    15.429317    13.362177    27.155938    5598.7197 
   68000       67.984    331.64626    13.632229    -444.6418   -431.00957   -6707.6246    -2112.524   -2623.5889   -15386.761     15.42932    13.362179    27.155921    5598.7178 
   68500       68.484    335.81999    13.803789   -444.79793   -430.99414   -7515.3955   -2408.5207   -5380.1314   -14757.534    15.429322    13.362181    27.155903    5598.7159 
   69000       68.984    328.61037    13.507439   -444.48542   -430.97799   -7162.9016   -3222.5031   -4494.0352   -13772.166    15.429324    13.362183    27.155886     5598.714 
   69500       69.484    340.32305    13.988886   -444.95129   -430.96241   -7348.9918   -3291.4848   -5251.4365   -13504.054    15.429327    13.362185    27.155868    5598.7121 
   70000       69.984    351.92117    14.465623   -445.41248   -430.94685   -6768.0814   -4585.3621   -2808.1288   -12910.753    15.429329    13.362187    27.155851    5598.7102 
   70500       70.484    329.39366    13.539636   -444.47002   -430.93039   -7403.2491   -3568.8045   -2189.2848   -16451.658    15.429331    13.362189    27.155833    5598.7083 
   71000       70.984    339.70436    13.963455   -444.87817   -430.91472   -6438.8167   -2278.1393   -2350.5582   -14687.753    15.429334    13.362191    27.155816    5598.7064 
   71500       71.484    338.25831    13.904015   -444.80327   -430.89925    -7859.249   -4838.0447   -3261.0529   -15478.649    15.429336    13.362193    27.155798    5598.7045 
   72000       71.984    351.73833    14.458108   -445.34147   -430.88337     -7797.71   -4479.2818   -1683.9112   -17229.937    15.429338    13.362195    27.155781    5598.7026 
   72500       72.484    336.59247    13.835541   -444.70297   -430.86743    -7355.079    -3131.154   -4966.4117   -13967.671    15.429341    13.362197    27.155763    5598.7008 
   73000       72.984    347.97467    14.303404   -445.15493   -430.85153   -8180.8597   -7570.3161    -3519.425   -13452.838    15.429343    13.362199    27.155746    5598.6989 
   73500       73.484    332.42228    13.664127   -444.49889   -430.83477   -7211.2742   -3526.5829   -4753.2606   -13353.979    15.429345    13.362201    27.155728     5598.697 
   74000       73.984    342.84829    14.092685   -444.91189   -430.81921   -6769.7129   -2519.5754   -1893.4465   -15896.117    15.429348    13.362203    27.155711    5598.6951 
   74500       74.484    353.26671    14.520931   -445.32456   -430.80363    -7356.212   -1790.0617   -3253.0985   -17025.476     15.42935    13.362205    27.155693    5598.6932 
   75000       74.984    327.72192     13.47092   -444.25805   -430.78713   -6983.3857   -4665.0033    -1079.014    -15206.14    15.429352    13.362207    27.155676    5598.6913 
   75500       75.484     350.8826    14.422933   -445.19413   -430.77119   -8088.1645   -4502.2751   -2546.4838   -17215.735    15.429355    13.362209    27.155658    5598.6894 
   76000       75.984    338.82456    13.927291   -444.68209    -430.7548   -7781.7827   -4540.7653   -3211.9099   -15592.673    15.429357    13.362212    27.155641    5598.6875 
   76500       76.484     344.7791    14.172051     -444.911   -430.73895   -7341.9715   -1603.7518   -2584.1835   -17837.979    15.429359    13.362214    27.155623    5598.6856 
   77000       76.984    340.88123    14.011829   -444.73444   -430.72261   -6717.1415   -4762.4317   -2333.6836   -13055.309    15.429362    13.362216    27.155606    5598.6837 
   77500       77.484     343.6571    14.125931   -444.83255   -430.70662    -7938.984   -4229.7405   -5212.8503   -14374.361    15.429364    13.362218    27.155588    5598.6818 
   78000       77.984    338.66615    13.920779   -444.61108    -430.6903   -7045.5457   -2267.5826   -3798.8423   -15070.212    15.429367     13.36222    27.155571    5598.6799 
   78500       78.484    321.20568    13.203072   -443.87656   -430.67349   -7094.8157   -4619.1611   -737.70564    -15927.58    15.429369    13.362222    27.155553     5598.678 
   79000       78.984    357.79485    14.707059   -445.36474   -430.65769   -7966.0012   -4870.8753   -2118.4692   -16908.659    15.429371    13.362224    27.155536    5598.6761 
   79500       79.484    342.00624    14.058073   -444.69903   -430.64095   -7533.1148   -3638.1346   -2681.9535   -16279.256    15.429374    13.362226    27.155518    5598.6742 
   80000       79.984    342.29983    14.070141   -444.69359   -430.62345   -7932.7413   -5446.5987   -4813.9512   -13537.674    15.429376    13.362228    27.155501    5598.6723 
   80500       80.484    334.65077    13.755728   -444.36217   -430.60644   -6597.1838   -577.13026   -1650.1414    -17564.28    15.429378     13.36223    27.155483    5598.6704 
   81000       80.984    349.29547    14.357695   -444.94792   -430.59023   -7454.6423   -3485.9961   -1874.3517   -17003.579    15.429381    13.362232    27.155466    5598.6685 
   81500       81.484    339.98685    13.975066   -444.54757    -430.5725   -7448.1063   -4391.8585    -2213.553   -15738.907    15.429383    13.362234    27.155448    5598.6666 
   82000       81.984    347.44465    14.281617   -444.83676   -430.55514   -6175.1057   -2671.7501   -3456.4455   -12397.121    15.429385    13.362236    27.155431    5598.6647 
   82500       82.484    348.27935    14.315927   -444.85466   -430.53873   -6846.3067   -3584.8751   -2690.3645    -14263.68    15.429388    13.362238    27.155413    5598.6628 
   83000       82.984    340.02737    13.976732   -444.49864   -430.52191   -8380.8377   -6236.2012   -4362.7373   -14543.574     15.42939     13.36224    27.155396    5598.6609 
   83500       83.484    355.96339    14.631778   -445.13637    -430.5046   -6607.2919   -2447.9992   -3101.3706   -14272.506    15.429392    13.362242    27.155378     5598.659 
   84000       83.984    358.26168    14.726248   -445.21382   -430.48757   -6586.0279   -4729.6876   -1403.4511   -13624.945    15.429395    13.362244    27.155361    5598.6571 
   84500       84.484    354.30606    14.563653   -445.03396   -430.47031   -6909.3904   -4651.8303   -1613.6306    -14462.71    15.429397    13.362246    27.155343    5598.6552 
   85000       84.984    351.64592    14.454309   -444.90691    -430.4526   -7445.4431   -2108.2101   -3025.4544   -17202.665    15.429399    13.362248    27.155326    5598.6533 
   85500       85.484    344.95633    14.179335   -444.61497   -430.43563   -6625.1233   -1294.3514     -4750.42   -13830.599    15.429402     13.36225    27.155308    5598.6514 
   86000       85.984    345.70202    14.209987   -444.62758   -430.41759   -7734.2007   -5129.1424   -3810.1294    -14263.33    15.429404    13.362253    27.155291    5598.6496 
   86500       86.484    324.34271    13.332018    -443.7317   -430.39968   -6792.0344   -3959.6638   -1842.8798    -14573.56    15.429406    13.362255    27.155273    5598.6477 
   87000       86.984    348.73145    14.334511   -444.71679   -430.38228    -7117.844   -4808.9675   -3067.4634   -13477.101    15.429409    13.362257    27.155256    5598.6458 
   87500       87.484     343.1792    14.106287   -444.47083   -430.36454   -6926.6479   -5135.7865   -4238.4888   -11405.668    15.429411    13.362259    27.155238    5598.6439 
   88000       87.984    350.66778    14.414103   -444.76079   -430.34669   -7034.4816   -5092.4238    860.67765   -16871.699    15.429414    13.362261    27.155221     5598.642 
   88500       88.484    344.14507    14.145989   -444.47467   -430.32868   -7101.7648   -4056.5095   -2247.5587   -15001.226    15.429416    13.362263    27.155203    5598.6401 
   89000       88.984    366.70256    15.073208   -445.38462   -430.31141    -7889.983   -5381.8971   -4223.2549   -14064.797    15.429418    13.362265    27.155186    5598.6382 
   89500       89.484    375.78882    15.446696   -445.73973   -430.29304   -6880.3011   -3947.4229   -4049.5247   -12643.955    15.429421    13.362267    27.155168    5598.6363 
   90000       89.984     358.2709    14.726627   -445.00124   -430.27462   -8506.7222   -7326.6492   -4319.8055   -13873.712    15.429423    13.362269    27.155151    5598.6344 
   90500       90.484    363.19509    14.929035    -445.1858   -430.25676   -7987.9097   -3352.6833    -3810.962   -16800.084    15.429425    13.362271    27.155133    5598.6325 
   91000       90.984    344.99303    14.180844   -444.41797   -430.23713   -7914.8395    -3495.876   -1612.5319   -18636.111    15.429428    13.362273    27.155116    5598.6306 
   91500       91.484    351.04873    14.429762   -444.64848   -430.21872   -6150.9321   -1633.1108   -1686.2335   -15133.452     15.42943    13.362275    27.155098    5598.6287 
   92000       91.984    353.50264    14.530629   -444.73126   -430.20063    -7208.324   -2952.1961    -2247.193   -16425.583    15.429432    13.362277    27.155081    5598.6268 
   92500       92.484    349.61139     14.37068   -444.55233   -430.18165   -6144.3848   -2545.8364    -2107.077   -13780.241    15.429435    13.362279    27.155063    5598.6249 
   93000       92.984    347.93664     14.30184   -444.46464    -430.1628   -7462.6414   -4123.3448   -4797.1775   -13467.402    15.429437    13.362281    27.155046     5598.623 
   93500       93.484    359.46642    14.775769   -444.91955   -430.14378   -7419.2215   -5471.7619   -4131.9723    -12653.93    15.429439    13.362283    27.155028    5598.6211 
   94000       93.984    355.96389    14.631798   -444.75699   -430.12519   -7572.3465   -2975.4933   -3881.5555   -15859.991    15.429442    13.362285    27.155011    5598.6192 
   94500       94.484    333.05023    13.689939   -443.79608   -430.10614   -7091.8238    -3233.748   -2970.4591   -15071.264    15.429444    13.362287    27.154993    5598.6173 
   95000       94.984    327.86211    13.476682   -443.56286   -430.08618   -5388.9323   -3307.2972    -3056.332   -9803.1677    15.429446    13.362289    27.154976    5598.6154 
   95500       95.484    345.79603    14.213851   -444.28126   -430.06741   -6407.1147   -3640.6603   -3240.3261   -12340.358    15.429449    13.362291    27.154958    5598.6135 
   96000       95.984    376.28124    15.466937   -445.51537   -430.04844   -7694.4235   -6119.6644    -4372.291   -12591.315    15.429451    13.362294    27.154941    5598.6116 
   96500       96.484    336.53587    13.833215   -443.86188   -430.02867   -7302.4263    -4580.291   -3208.6878     -14118.3    15.429453    13.362296    27.154923    5598.6097 
   97000       96.984    345.66215    14.208348   -444.21723   -430.00889    -7162.187   -5244.6038    -4503.871   -11738.086    15.429456    13.362298    27.154906    5598.6078 
   97500       97.484    346.07872    14.225471   -444.21484   -429.98937   -6430.2643   -3430.5362   -2725.5851   -13134.672    15.429458      13.3623    27.154888    5598.6059 
   98000       97.984    338.32003    13.906552   -443.87615    -429.9696   -6641.5196   -5274.2418   -1397.0112   -13253.306    15.429461    13.362302    27.154871     5598.604 
   98500       98.484    357.03459    14.675809   -444.62563   -429.94983    -7354.588   -3090.1268    -2702.717    -16270.92    15.429463    13.362304    27.154853    5598.6021 
   99000       98.984    338.25871    13.904032    -443.8338   -429.92977   -7708.8355    -5340.981   -2170.4055    -15615.12    15.429465    13.362306    27.154836    5598.6002 
   99500       99.484    368.17904    15.133899   -445.04476   -429.91087   -7117.4173   -5004.0217   -2568.6925   -13779.538    15.429468    13.362308    27.154818    5598.5983 
  100000       99.984    347.44704    14.281715   -444.17155   -429.88983   -6885.2915    -2823.131   -910.72483   -16922.019     15.42947     13.36231    27.154801    5598.5965 
  100500      100.484    364.81736    14.995718   -444.86585   -429.87014    -7373.144   -4823.5079     -4013.39   -13282.534    15.429472    13.362312    27.154783    5598.5946 
  101000      100.984    364.06749    14.964895   -444.81444   -429.84954   -6585.4307    -2857.683   -3009.2111   -13889.398    15.429475    13.362314    27.154766    5598.5927 
  101500      101.484    355.13319    14.597652    -444.4271   -429.82945   -7312.5383   -3129.4931   -5468.1375   -13339.984    15.429477    13.362316    27.154748    5598.5908 
  102000      101.984    367.48469    15.105358   -444.91441   -429.80905   -6988.2704   -4670.4481   -220.65448   -16073.709    15.429479    13.362318    27.154731    5598.5889 
  102500      102.484    372.64635    15.317526   -445.10656   -429.78903   -7608.7782   -4181.4292   -2656.5978   -15988.308    15.429482     13.36232    27.154713     5598.587 
  103000      102.984    364.34286    14.976213   -444.74441    -429.7682   -7075.6983   -2393.2838   -4555.5828   -14278.228    15.429484    13.362322    27.154696    5598.5851 
  103500      103.484    345.69336    14.209631   -443.95645   -429.74682   -5799.0064   -4300.9479   -1674.0652   -11422.006    15.429486    13.362324    27.154678    5598.5832 
  104000      103.984    356.20964      14.6419   -444.36844   -429.72654   -6293.7159    -2288.282   -3050.6958    -13542.17    15.429489    13.362326    27.154661    5598.5813 
  104500      104.484    372.11633     15.29574    -445.0022   -429.70646   -7632.5814   -4187.5667   -3046.3449   -15663.833    15.429491    13.362328    27.154643    5598.5794 
  105000      104.984    347.88574    14.299748   -443.98465   -429.68491   -5616.2293    -597.6737   -2944.5921   -13306.422    15.429493     13.36233    27.154626    5598.5775 
  105500      105.484    345.21676     14.19004   -443.85408   -429.66404   -6204.7821   -3641.9862   -2490.4293   -12481.931    15.429496    13.362332    27.154608    5598.5756 
  106000      105.984    384.52616    15.805842   -445.44948   -429.64363   -7934.9283   -5276.2521   -3150.5426    -15377.99    15.429498    13.362335    27.154591    5598.5737 
  106500      106.484    354.66892    14.578569   -444.20061   -429.62204   -7725.2776   -2096.9092   -5286.6064   -15792.317      15.4295    13.362337    27.154573    5598.5718 
  107000      106.984    359.68085    14.784583   -444.38533   -429.60074   -6720.0362   -3401.0226   -3603.6058    -13155.48    15.429503    13.362339    27.154556    5598.5699 
  107500      107.484    361.11791    14.843653   -444.42386   -429.58021   -7173.0882   -4575.1269   -1497.1904   -15446.947    15.429505    13.362341    27.154538     5598.568 
  108000      107.984    357.48607    14.694367   -444.25363   -429.55926   -6092.7843   -2882.0198    -3456.159   -11940.174    15.429508    13.362343    27.154521    5598.5661 
  108500      108.484    357.54825    14.696923   -444.23389   -429.53697   -6436.1179   -3275.9333   -2986.6801    -13045.74     15.42951    13.362345    27.154503    5598.5642 
  109000      108.984    368.00141    15.126597   -444.64247   -429.51588   -5390.2882   -1981.7008   -2890.8776   -11298.286    15.429512    13.362347    27.154486    5598.5623 
  109500      109.484    356.39454      14.6495   -444.14371   -429.49421   -7060.9899   -3990.1382     -3002.34   -14190.492    15.429515    13.362349    27.154468    5598.5604 
  110000      109.984    375.15098    15.420478   -444.89302   -429.47254   -7657.0101   -4431.3114   -3529.1943   -15010.524    15.429517    13.362351    27.154451    5598.5585 
  110500      110.484    350.92829    14.424811   -443.87541    -429.4506   -6485.6589   -4213.4968   -2331.1305   -12912.349    15.429519    13.362353    27.154433    5598.5566 
  111000      110.984    339.02465    13.935515   -443.36443   -429.42891   -6681.2069   -5251.6384   -3111.9178   -11680.065    15.429522    13.362355    27.154416    5598.5547 
  111500      111.484    362.57683    14.903621   -444.31195   -429.40833   -6716.7298   -3135.3988   -3643.7124   -13371.078    15.429524    13.362357    27.154398    5598.5528 
  112000      111.984    365.61381    15.028455   -444.41456    -429.3861   -7157.9686   -5183.8373   -1728.7603   -14561.308    15.429526    13.362359    27.154381    5598.5509 
  112500      112.484    361.31053     14.85157   -444.21589   -429.36432   -6226.4646   -3012.1295   -1125.1986   -14542.066    15.429529    13.362361    27.154363     5598.549 
  113000      112.984    330.22036    13.573618   -442.91577   -429.34215   -5913.2889   -673.61718   -2967.9581   -14098.291    15.429531    13.362363    27.154346    5598.5471 
  113500      113.484    386.80996    15.899718   -445.22053   -429.32081   -6755.3221   -2755.7549   -3222.0654   -14288.146    15.429533    13.362365    27.154328    5598.5452 
  114000      113.984    346.20575    14.230692   -443.52908   -429.29839   -6275.9646    -5322.449   -2638.4855   -10866.959    15.429536    13.362367    27.154311    5598.5434 
  114500      114.484    372.14999    15.297124    -444.5741   -429.27698   -7624.5198   -6827.3529   -1915.9104   -14130.296    15.429538    13.362369    27.154293    5598.5415 
  115000      114.984    369.09349    15.171487   -444.42617   -429.25468   -7379.1967   -3719.8061   -3024.6278   -15393.156     15.42954    13.362371    27.154276    5598.5396 
  115500      115.484    368.47667    15.146133   -444.37914   -429.23301   -6390.1924   -3583.5618    -1656.855   -13930.161    15.429543    13.362373    27.154258    5598.5377 
  116000      115.984    354.91246    14.588579   -443.79907   -429.21049    -6957.679    -4283.394   -1381.9452   -15207.698    15.429545    13.362376    27.154241    5598.5358 
  116500      116.484    350.99616    14.427601   -443.61542   -429.18782   -6204.5024   -1332.7288    -270.9708   -17009.808    15.429547    13.362378    27.154223    5598.5339 
  117000      116.984    364.85029    14.997071   -444.16275   -429.16568   -5722.4786   -2870.2808   -1393.3772   -12903.778     15.42955     13.36238    27.154206     5598.532 
  117500      117.484    391.78986    16.104415   -445.24807   -429.14366   -7412.5451   -2700.7015   -3591.4922   -15945.442    15.429552    13.362382    27.154188    5598.5301 
  118000      117.984    383.93699    15.781625   -444.90348   -429.12186   -6322.7511   -4059.2372   -2308.8368   -12600.179    15.429555    13.362384    27.154171    5598.5282 
  118500      118.484    365.36401    15.018188   -444.11655   -429.09836   -6117.0301   -1410.0108   -4530.2296    -12410.85    15.429557    13.362386    27.154153    5598.5263 
  119000      118.984    364.45163    14.980685   -444.05662   -429.07593   -7220.5482   -4250.0334   -2361.4768   -15050.134    15.429559    13.362388    27.154136    5598.5244 
  119500      119.484    389.39618    16.006023   -445.05999   -429.05396   -7490.5887   -3927.0855   -3298.6277   -15246.053    15.429562     13.36239    27.154118    5598.5225 
  120000      119.984      380.335    15.633566   -444.66458   -429.03101    -6843.411   -3278.5466   -3087.5805   -14164.106    15.429564    13.362392    27.154101    5598.5206 
  120500      120.484    362.24168    14.889845   -443.89801   -429.00816   -7058.5794   -4120.9571   -2763.3665   -14291.414    15.429566    13.362394    27.154083    5598.5187 
  121000      120.984    377.39298    15.512635   -444.49787   -428.98523   -6346.2135   -2825.3864   -3251.1302   -12962.124    15.429569    13.362396    27.154066    5598.5168 
  121500      121.484     359.0896     14.76028   -443.72278    -428.9625   -6204.2068   -5320.6421   -1190.1545   -12101.824    15.429571    13.362398    27.154048    5598.5149 
  122000      121.984    378.77694    15.569523   -444.50968   -428.94016   -5467.1748   -1150.6397     1219.597   -16470.482    15.429573      13.3624    27.154031     5598.513 
  122500      122.484    372.05665    15.293287   -444.21044   -428.91716   -6118.8273   -2654.0545   -3638.3374    -12064.09    15.429576    13.362402    27.154013    5598.5111 
  123000      122.984    370.38021    15.224377   -444.11824   -428.89386   -7915.6823   -4615.1128   -1627.8087   -17504.125    15.429578    13.362404    27.153996    5598.5092 
  123500      123.484    363.88727    14.957487    -443.8285   -428.87102   -6430.1308   -5680.3489   -615.80742   -12994.236     15.42958    13.362406    27.153978    5598.5073 
  124000      123.984    365.40109    15.019712   -443.86836   -428.84865   -7112.9489   -4163.3166   -3617.6311   -13557.899    15.429583    13.362408    27.153961    5598.5054 
  124500      124.484    370.72843    15.238691   -444.06416   -428.82547   -6355.7109   -3384.0626   -2786.2065   -12896.864    15.429585     13.36241    27.153943    5598.5035 
  125000      124.984    383.47767    15.762745   -444.56562   -428.80288   -6030.3692   -2871.7043    -2181.091   -13038.312    15.429587    13.362412    27.153926    5598.5016 
  125500      125.484    368.57321    15.150101   -443.92952   -428.77942   -7784.8737   -5215.6794   -3426.8327   -14712.109     15.42959    13.362414    27.153908    5598.4997 
  126000      125.984    375.14719    15.420322   -444.17755   -428.75723    -5823.573   -4726.7157   -1112.9484   -11631.055    15.429592    13.362417    27.153891    5598.4978 
  126500      126.484    363.79601    14.953735   -443.68738   -428.73364   -6937.0995   -1748.1193   -3759.8146   -15303.365    15.429594    13.362419    27.153873    5598.4959 
  127000      126.984    366.11633    15.049111   -443.75987   -428.71076   -5087.0549   -1622.9972   -332.34697   -13305.821    15.429597    13.362421    27.153856     5598.494 
  127500      127.484    390.21551    16.039702   -444.72743   -428.68772   -6075.8121   -1406.0044   -3943.1563   -12878.276    15.429599    13.362423    27.153838    5598.4921 
  128000      127.984    358.85147    14.750491   -443.41498   -428.66449   -5730.7748   -3966.9051    1303.3573   -14528.777    15.429602    13.362425    27.153821    5598.4902 
  128500      128.484    365.37606    15.018683   -443.65966   -428.64098   -6313.1963   -3582.1641   -2569.2835   -12788.141    15.429604    13.362427    27.153803    5598.4884 
  129000      128.984    370.14654    15.214772   -443.83352   -428.61875   -5661.5283    -2748.614    -1927.335   -12308.636    15.429606    13.362429    27.153786    5598.4865 
  129500      129.484    373.17791    15.339376   -443.93481   -428.59543   -6881.9689   -4548.5414   -1299.1284   -14798.237    15.429609    13.362431    27.153768    5598.4846 
  130000      129.984    367.76947    15.117063   -443.68912   -428.57206   -6849.0745   -4371.1932   -2849.1703    -13326.86    15.429611    13.362433    27.153751    5598.4827 
  130500      130.484    379.22988     15.58814   -444.13728   -428.54914   -6062.4521   -4334.2732   -1635.8969   -12217.186    15.429613    13.362435    27.153733    5598.4808 
  131000      130.984    356.77447    14.665117   -443.19038   -428.52526   -6763.1925   -1918.8307   -6501.7575   -11868.989    15.429616    13.362437    27.153716    5598.4789 
  131500      131.484    369.18656    15.175312   -443.67752   -428.50221   -7181.7583   -3674.8042   -3488.7919   -14381.679    15.429618    13.362439    27.153698     5598.477 
  132000      131.984    372.79814    15.323765    -443.8024   -428.47864   -6679.4872   -4956.5736   -1709.3845   -13372.504     15.42962    13.362441    27.153681    5598.4751 
  132500      132.484    376.46256    15.474391   -443.93048   -428.45609   -6476.0202   -2511.1491   -3768.0153   -13148.896    15.429623    13.362443    27.153663    5598.4732 
  133000      132.984    364.63166    14.988085    -443.4205   -428.43242   -6066.5005   -5358.5057    -2236.327   -10604.669    15.429625    13.362445    27.153646    5598.4713 
  133500      133.484    354.09783    14.555094   -442.96315   -428.40805   -5469.8517   -3762.4466    -5618.196   -7028.9124    15.429627    13.362447    27.153628    5598.4694 
  134000      133.984    364.56853    14.985489   -443.37047   -428.38498   -6157.6471   -4172.3981     -4496.23   -9804.3133     15.42963    13.362449    27.153611    5598.4675 
  134500      134.484    377.41095    15.513374   -443.87497    -428.3616   -6117.3786   -3799.7201   -5248.9881   -9303.4276    15.429632    13.362451    27.153593    5598.4656 
  135000      134.984    379.14906    15.584818   -443.92311   -428.33829   -6190.4658   -2747.6007   -930.87267   -14892.924    15.429634    13.362453    27.153576    5598.4637 
  135500      135.484    365.11075    15.007777   -443.32201   -428.31423   -5998.6926    -1518.976    -4469.379   -12007.723    15.429637    13.362455    27.153558    5598.4618 
  136000      135.984    381.29022     15.67283   -443.96394   -428.29111   -6220.3005   -1536.5248   -1076.1536   -16048.223    15.429639    13.362458    27.153541    5598.4599 
  136500      136.484    365.36458    15.018211   -443.28487   -428.26666   -5100.9846   -1078.4464   -3970.2184   -10254.289    15.429641     13.36246    27.153523     5598.458 
  137000      136.984    348.95435    14.343673   -442.58628   -428.24261   -5308.5714   -2192.6228   -4357.1698   -9375.9215    15.429644    13.362462    27.153506    5598.4561 
  137500      137.484     378.7382     15.56793   -443.78746   -428.21953   -6557.3055   -3751.7231    -2438.952   -13481.241    15.429646    13.362464    27.153488    5598.4542 
  138000      137.984    380.40893    15.636605   -443.83264   -428.19603   -5720.3546   -1043.2193   -496.50999   -15621.335    15.429649    13.362466    27.153471    5598.4523 
  138500      138.484    361.91905    14.876583   -443.04878    -428.1722   -5173.2924    -2738.618   -5351.3531   -7429.9062    15.429651    13.362468    27.153453    5598.4504 
  139000      138.984    379.24018    15.588564    -443.7369   -428.14834   -5629.0322    -949.7961   -2202.7429   -13734.558    15.429653     13.36247    27.153436    5598.4485 
  139500      139.484    384.24098     15.79412   -443.91946   -428.12534   -7254.4397   -4261.4352   -2449.8508   -15052.033    15.429656    13.362472    27.153418    5598.4466 
  140000      139.984    383.81998    15.776815   -443.87863   -428.10181   -4574.4216   -1788.0442   -2073.5775    -9861.643    15.429658    13.362474    27.153401    5598.4447 
  140500      140.484    395.09562    16.240297   -444.31776   -428.07747   -6905.6356   -3110.9774   -3886.9145   -13719.015     15.42966    13.362476    27.153383    5598.4428 
  141000      140.984    383.58023     15.76696   -443.82053   -428.05357   -5675.7861    -2383.653   -5180.3816   -9463.3236    15.429663    13.362478    27.153366    5598.4409 
  141500      141.484    368.91405    15.164111   -443.19366   -428.02955   -6746.8507    -2910.408    396.67673   -17726.821    15.429665     13.36248    27.153348     5598.439 
  142000      141.984    384.85606    15.819403   -443.82455   -428.00515   -6841.8408   -2818.7276   -2369.9895   -15336.805    15.429667    13.362482    27.153331    5598.4371 
  142500      142.484    402.49251    16.544344   -444.52627   -427.98192   -6101.4908   -1888.0639   -1753.9528   -14662.456     15.42967    13.362484    27.153313    5598.4352 
  143000      142.984    373.73747    15.362376   -443.31951   -427.95713   -5815.5652   -494.68567   -2825.8511   -14126.159    15.429672    13.362486    27.153296    5598.4334 
  143500      143.484    394.16163    16.201906   -444.13531    -427.9334   -6639.4225   -4325.1435   -422.84555   -15170.278    15.429674    13.362488    27.153278    5598.4315 
  144000      143.984    398.18151    16.367142    -444.2759   -427.90876   -6118.8391   -2431.0593   -591.87764    -15333.58    15.429677     13.36249    27.153261    5598.4296 
  144500      144.484    379.96829    15.618492   -443.50403   -427.88554   -6450.5679   -3167.8887   -1237.8234   -14945.992    15.429679    13.362492    27.153243    5598.4277 
  145000      144.984    379.79902    15.611535   -443.47296   -427.86143   -6031.4912   -3300.3345   -555.06384   -14239.075    15.429681    13.362494    27.153226    5598.4258 
  145500      145.484    372.71909    15.320516    -443.1573   -427.83678   -6279.8502   -2733.1638   -3924.1764   -12182.211    15.429684    13.362496    27.153208    5598.4239 
  146000      145.984    391.09554    16.075875   -443.88859   -427.81271   -6971.9803   -4096.2061   -2377.0094   -14442.725    15.429686    13.362499    27.153191     5598.422 
  146500      146.484    379.94889    15.617695   -443.40603   -427.78833   -6247.9681   -2249.1726   -2241.7582   -14252.974    15.429688    13.362501    27.153173    5598.4201 
  147000      146.984    379.13345    15.584177   -443.34777   -427.76359   -6060.7965    -3434.087   -2677.6069   -12070.696    15.429691    13.362503    27.153156    5598.4182 
  147500      147.484    372.77184    15.322684   -443.06211   -427.73942   -6880.2344   -3261.9134     -2653.69     -14725.1    15.429693    13.362505    27.153138    5598.4163 
  148000      147.984     399.8657     16.43637   -444.15165   -427.71528   -4280.4893    -892.7012   -1019.0024   -10929.764    15.429696    13.362507    27.153121    5598.4144 
  148500      148.484    348.75822    14.335611   -442.02609   -427.69047   -5582.5498   -200.88424   -1218.6893   -15328.076    15.429698    13.362509    27.153103    5598.4125 
  149000      148.984    388.10435    15.952923    -443.6196   -427.66668    -5715.065   -1145.9339   -3122.7068   -12876.554      15.4297    13.362511    27.153086    5598.4106 
  149500      149.484    391.91364    16.109503   -443.75216   -427.64265   -5920.8379   -3216.2601   -385.34617   -14160.907    15.429703    13.362513    27.153068    5598.4087 
  150000      149.984    388.84384     15.98332   -443.60152    -427.6182   -5936.1476   -2843.8785   -1762.6388   -13201.925    15.429705    13.362515    27.153051    5598.4068 
  150500      150.484    393.07089    16.157071   -443.75144   -427.59437   -5634.5637   -2847.3833   -432.91657   -13623.391    15.429707    13.362517    27.153033    5598.4049 
  151000      150.984    382.24685    15.712152   -443.28114   -427.56899   -6697.5357   -4332.2433   -3085.3482   -12675.015     15.42971    13.362519    27.153016     5598.403 
  151500      151.484    377.80268    15.529476   -443.07413   -427.54465    -4833.739    261.34397   -3210.2837   -11552.277    15.429712    13.362521    27.152998    5598.4011 
  152000      151.984    379.01595    15.579347   -443.09999   -427.52064   -5864.8924   -4495.4758    -1320.635   -11778.567    15.429714    13.362523    27.152981    5598.3992 
  152500      152.484    381.54083    15.683131   -443.17918   -427.49605   -6200.7203    -2111.518   -3422.8076   -13067.835    15.429717    13.362525    27.152963    5598.3973 
  153000      152.984     381.0489    15.662911   -443.13461    -427.4717   -6515.6867   -4956.9766   -864.63109   -13725.452    15.429719    13.362527    27.152946    5598.3954 
  153500      153.484     392.2082    16.121611   -443.56887   -427.44725   -5696.0224   -2766.0302    -1874.424   -12447.613    15.429721    13.362529    27.152928    5598.3935 
  154000      153.984    378.73191    15.567671   -442.99026   -427.42259   -5690.3387   -5961.8944    2169.7842   -13278.906    15.429724    13.362531    27.152911    5598.3916 
  154500      154.484    384.45183    15.802787   -443.20142   -427.39863   -5753.6098   -2671.5385   -2502.1527   -12087.138    15.429726    13.362533    27.152893    5598.3897 
  155000      154.984    392.14913    16.119182   -443.49416   -427.37498   -6915.7063   -2780.7349   -4015.6872   -13950.697    15.429728    13.362535    27.152876    5598.3878 
  155500      155.484    386.66808    15.893886   -443.24343   -427.34954   -4383.0494   -3085.8068    3305.1561   -13368.497    15.429731    13.362537    27.152858    5598.3859 
  156000      155.984    391.29196    16.083949   -443.40837   -427.32442   -5529.4288   -704.75517   -229.18392   -15654.347    15.429733     13.36254    27.152841     5598.384 
  156500      156.484    390.65406    16.057728   -443.35844   -427.30071   -5500.5313   -1493.7109   -984.94028   -14022.943    15.429735    13.362542    27.152823    5598.3821 
  157000      156.984    400.85939    16.477215   -443.75329   -427.27608   -6597.6178   -4935.2168    853.27243   -15710.909    15.429738    13.362544    27.152806    5598.3802 
  157500      157.484    388.90525    15.985844    -443.2372   -427.25135   -5790.1304    -4429.613   -687.50535   -12253.273     15.42974    13.362546    27.152788    5598.3784 
  158000      157.984    371.44583    15.268179   -442.49439   -427.22621    -4321.449   -4366.8092   -3391.7575   -5205.7804    15.429743    13.362548    27.152771    5598.3765 
  158500      158.484    392.89658    16.149906   -443.35202   -427.20211   -5821.6384   -4043.2809   -3237.4569   -10184.177    15.429745     13.36255    27.152753    5598.3746 
  159000      158.984    396.12556    16.282633   -443.45982   -427.17719   -5317.9049   -2709.6936   -4800.8775   -8443.1437    15.429747    13.362552    27.152736    5598.3727 
  159500      159.484    391.33725    16.085811   -443.23768   -427.15187   -5071.5044   -3379.3309     1314.474   -13149.656     15.42975    13.362554    27.152718    5598.3708 
  160000      159.984    398.01935    16.360476    -443.4876   -427.12712   -6440.1384   -3175.6558    -2129.323   -14015.436    15.429752    13.362556    27.152701    5598.3689 
  160500      160.484    409.69549    16.840421   -443.94358   -427.10315    -5596.944   -2775.6594   -2380.6209   -11634.552    15.429754    13.362558    27.152683     5598.367 
  161000      160.984    398.72472     16.38947   -443.46677    -427.0773   -6388.6165   -4573.9189   -1047.8565   -13544.074    15.429757     13.36256    27.152666    5598.3651 
  161500      161.484    390.73453    16.061036    -443.1135   -427.05246   -5778.1841   -5529.2538   -2115.2521   -9690.0462    15.429759    13.362562    27.152648    5598.3632 
  162000      161.984    384.57464    15.807835   -442.83545   -427.02762   -5526.0677    -2123.289   -2629.7808   -11825.133    15.429761    13.362564    27.152631    5598.3613 
  162500      162.484    413.79183      17.0088    -444.0117    -427.0029   -5718.9587   -4205.6207    -3160.249   -9791.0063    15.429764    13.362566    27.152613    5598.3594 
  163000      162.984       378.89     15.57417   -442.55161   -426.97744   -4159.2993   -2268.0204   -1406.4122   -8803.4653    15.429766    13.362568    27.152596    5598.3575 
  163500      163.484    401.74646    16.513678   -443.46684   -426.95316   -5340.5561   -1681.0496   -3298.3164   -11042.302    15.429768     13.36257    27.152578    5598.3556 
  164000      163.984    383.35556    15.757725   -442.68567   -426.92794   -4676.9304   -1186.7941   -1081.2854   -11762.712    15.429771    13.362572    27.152561    5598.3537 
  164500      164.484    390.62791    16.056653   -442.96023   -426.90358   -6167.1324   -2792.9677   -3975.8845   -11732.545    15.429773    13.362574    27.152543    5598.3518 
  165000      164.984    407.81559    16.763148   -443.64117   -426.87802    -6773.983   -4678.8603   -3680.9396   -11962.149    15.429775    13.362576    27.152526    5598.3499 
  165500      165.484    407.47744    16.749249   -443.60292   -426.85367   -5521.2222   -2202.0705   -1950.9751   -12410.621    15.429778    13.362578    27.152508     5598.348 
  166000      165.984    386.07233    15.869398   -442.69759   -426.82819   -4841.9845   -2740.3636     1756.322   -13541.912     15.42978    13.362581    27.152491    5598.3461 
  166500      166.484    398.49908    16.380195    -443.1824   -426.80221   -5462.2057   -1546.5386   -187.79725   -14652.281    15.429782    13.362583    27.152473    5598.3442 
  167000      166.984    402.91172    16.561576   -443.33894   -426.77736   -5979.0504   -5488.6727    217.39686   -12665.875    15.429785    13.362585    27.152456    5598.3423 
  167500      167.484    381.84807     15.69576   -442.44687   -426.75111   -4451.2989    -2661.272    608.56851   -11301.193    15.429787    13.362587    27.152438    5598.3404 
  168000      167.984     400.9658    16.481589   -443.20763   -426.72604   -6181.0026   -3595.6996   -2282.5044   -12664.804     15.42979    13.362589    27.152421    5598.3385 
  168500      168.484    401.52195     16.50445   -443.20456   -426.70011   -5187.7868   -1257.2499   -4473.0375    -9833.073    15.429792    13.362591    27.152403    5598.3366 
  169000      168.984     410.8671    16.888579   -443.56417   -426.67559   -5425.1507   -3475.7552   -2470.9365    -10328.76    15.429794    13.362593    27.152386    5598.3347 
  169500      169.484    402.97102    16.564013   -443.21404   -426.65003   -6094.4107   -3629.6239    -3778.765   -10874.843    15.429797    13.362595    27.152368    5598.3328 
  170000      169.984    388.76693    15.980158    -442.6043   -426.62414   -4428.5958    -1561.931    1074.2177   -12798.074    15.429799    13.362597    27.152351    5598.3309 
  170500      170.484    389.51416    16.010873   -442.60927   -426.59839   -4281.6245   -1762.5596    1627.8234   -12710.137    15.429801    13.362599    27.152333     5598.329 
  171000      170.984    409.02585    16.812896   -443.38667   -426.57377   -5625.4386   -2905.7438   -2370.2108   -11600.361    15.429804    13.362601    27.152316    5598.3271 
  171500      171.484    427.47583    17.571277   -444.11993   -426.54865   -6274.9899   -2135.8898   -1996.5819   -14692.498    15.429806    13.362603    27.152298    5598.3252 
  172000      171.984    414.79989    17.050236   -443.57347   -426.52324   -6410.6646   -4207.9847   -1698.7003   -13325.309    15.429808    13.362605    27.152281    5598.3233 
  172500      172.484    384.14515    15.790181   -442.28762   -426.49743    -4725.193   -1250.8356   -1984.6868   -10940.057    15.429811    13.362607    27.152263    5598.3215 
  173000      172.984    401.47678    16.502593   -442.97399    -426.4714    -5133.696   -2346.0434   -2312.2395   -10742.805    15.429813    13.362609    27.152246    5598.3196 
  173500      173.484     397.4922    16.338808   -442.78548   -426.44667   -5903.2889   -2036.7031   -3874.6757   -11798.488    15.429815    13.362611    27.152228    5598.3177 
  174000      173.984     404.7722     16.63805   -443.05917   -426.42112   -5237.7926   -4611.9148   -1419.6361    -9681.827    15.429818    13.362613    27.152211    5598.3158 
  174500      174.484     403.6005    16.589888   -442.98548   -426.39559   -5854.3214   -3755.8147   -2827.6504   -10979.499     15.42982    13.362615    27.152193    5598.3139 
  175000      174.984    383.73061    15.773142   -442.14239   -426.36925   -4308.7552   -2865.2216   -1356.8937   -8704.1503    15.429822    13.362617    27.152176     5598.312 
  175500      175.484    407.76517    16.761075   -443.10523   -426.34415   -5194.5976   -2824.3914   -1406.9083   -11352.493    15.429825    13.362619    27.152158    5598.3101 
  176000      175.984    395.50683      16.2572   -442.57526   -426.31806   -6130.6268   -5407.6036   -993.20671    -11991.07    15.429827    13.362622    27.152141    5598.3082 
  176500      176.484    398.00716    16.359975   -442.65262   -426.29264   -5356.9686   -1375.8612   -2779.8489   -11915.196    15.429829    13.362624    27.152123    5598.3063 
  177000      176.984    409.63566    16.837962   -443.10505   -426.26709   -5156.7876   -2657.7567   -1522.6951   -11289.911    15.429832    13.362626    27.152106    5598.3044 
  177500      177.484    385.78972    15.857781   -442.09898   -426.24119   -5302.8923   -1915.5307   -2677.9651   -11315.181    15.429834    13.362628    27.152088    5598.3025 
  178000      177.984     392.8825    16.149327    -442.3657   -426.21637   -5545.2356   -1826.1677    -2371.498   -12438.041    15.429837     13.36263    27.152071    5598.3006 
  178500      178.484    397.34032    16.332565    -442.5223   -426.18974   -5498.4238    -3498.016    -367.7378   -12629.518    15.429839    13.362632    27.152053    5598.2987 
  179000      178.984    399.75647     16.43188   -442.59613   -426.16425   -4370.1825   -1271.5243   -2268.9413    -9570.082    15.429841    13.362634    27.152036    5598.2968 
  179500      179.484    405.82053    16.681142   -442.81905   -426.13791   -6906.3648   -5540.1598   -46.185729   -15132.749    15.429844    13.362636    27.152018    5598.2949 
  180000      179.984    421.61587    17.330405   -443.44327   -426.11287   -5005.2842   -3650.9387   -1326.4397   -10038.474    15.429846    13.362638    27.152001     5598.293 
  180500      180.484    414.61252    17.042534   -443.12965   -426.08712   -6293.9103   -2801.5038    -3464.112   -12616.115    15.429848     13.36264    27.151983    5598.2911 
  181000      180.984    398.67639    16.387484   -442.44807   -426.06059   -5471.0486    -3204.061   -873.69643   -12335.388    15.429851    13.362642    27.151966    5598.2892 
  181500      181.484     426.8784     17.54672   -443.58211   -426.03539   -6451.3444   -3667.6039   -3908.3502   -11778.079    15.429853    13.362644    27.151948    5598.2873 
  182000      181.984    398.81908    16.393349   -442.40167   -426.00832   -5417.4527   -5676.9195   -1470.1182   -9105.3203    15.429855    13.362646    27.151931    5598.2854 
  182500      182.484     378.6777    15.565443   -441.54757   -425.98212   -3934.4354   -1430.3661   -2306.0564   -8066.8838    15.429858    13.362648    27.151913    5598.2835 
  183000      182.984    386.04409    15.868236   -441.82417   -425.95594   -4481.5572   -2466.8819   -1293.4992   -9684.2904     15.42986     13.36265    27.151896    5598.2816 
  183500      183.484      415.442    17.076629   -443.00781   -425.93118   -5598.5772   -2392.7891   -4089.0838   -10313.859    15.429862    13.362652    27.151878    5598.2797 
  184000      183.984    407.32205    16.742861   -442.64742   -425.90456   -4499.3161   -64.191755   -1320.1655   -12113.591    15.429865    13.362654    27.151861    5598.2778 
  184500      184.484    405.67432    16.675132   -442.55415   -425.87902   -4321.1651   -656.78039   -1405.8799   -10900.835    15.429867    13.362656    27.151843    5598.2759 
  185000      184.984    417.43621    17.158601   -443.01173   -425.85313   -5609.4622   -5371.1113   -441.73374   -11015.541    15.429869    13.362658    27.151826     5598.274 
  185500      185.484    402.51949    16.545454   -442.37221   -425.82676   -5495.9174    883.71041    -3562.814   -13808.649    15.429872     13.36266    27.151808    5598.2721 
  186000      185.984    392.89644      16.1499   -441.95077   -425.80087   -5611.5736   -2948.2373   -3130.8834     -10755.6    15.429874    13.362663    27.151791    5598.2702 
  186500      186.484    394.38869    16.211239   -441.98613   -425.77489   -4382.2181   -2038.7972   -196.42437   -10911.433    15.429876    13.362665    27.151773    5598.2683 
  187000      186.984    417.40043     17.15713   -442.90589   -425.74876   -5567.8367   -3558.5915    469.42709   -13614.346    15.429879    13.362667    27.151756    5598.2664 
  187500      187.484    429.62429    17.659589   -443.38205   -425.72247   -4542.4493   -1234.2759   -1144.1981   -11248.874    15.429881    13.362669    27.151738    5598.2645 
  188000      187.984    406.64215    16.714914   -442.41104   -425.69612   -4156.7083   -468.19894   -3181.8775   -8820.0484    15.429884    13.362671    27.151721    5598.2627 
  188500      188.484     410.3156    16.865911   -442.53573   -425.66982   -4200.5805   -721.31353   -229.60956   -11650.819    15.429886    13.362673    27.151703    5598.2608 
  189000      188.984    382.38388    15.717784   -441.36074   -425.64296   -3707.5844   -1122.5281   -1137.6784   -8862.5468    15.429888    13.362675    27.151686    5598.2589 
  189500      189.484    389.29393     16.00182   -441.61899   -425.61717   -4656.8596   -1415.3089   -794.66511   -11760.605    15.429891    13.362677    27.151668     5598.257 
  190000      189.984    407.69385    16.758144   -442.34921   -425.59106   -5678.4171   -1333.3769   -3712.7464   -11989.128    15.429893    13.362679    27.151651    5598.2551 
  190500      190.484    403.59389    16.589616   -442.15491   -425.56529   -3941.3425    -4053.077    540.02831   -8310.9788    15.429895    13.362681    27.151633    5598.2532 
  191000      190.984    417.46792    17.159905   -442.69932   -425.53942    -6511.848   -3030.1951   -274.67601   -16230.673    15.429898    13.362683    27.151616    5598.2513 
  191500      191.484     425.3356    17.483303   -442.99646   -425.51316   -4740.7891   -635.03807   -798.99454   -12788.335      15.4299    13.362685    27.151598    5598.2494 
  192000      191.984    405.44778     16.66582   -442.15169   -425.48587   -5076.5576    669.26396   -4108.6319   -11790.305    15.429902    13.362687    27.151581    5598.2475 
  192500      192.484    408.84898    16.805625   -442.26556   -425.45994   -4949.8175   -2760.9196   -2199.8234   -9888.7095    15.429905    13.362689    27.151563    5598.2456 
  193000      192.984    427.47486    17.571237   -443.00446   -425.43322   -4147.4391   -1009.2941   -1791.8747   -9641.1485    15.429907    13.362691    27.151546    5598.2437 
  193500      193.484    407.57041     16.75307   -442.15898   -425.40591   -5799.6613   -4346.8079   -3270.9172   -9781.2587    15.429909    13.362693    27.151528    5598.2418 
  194000      193.984    413.31545    16.989218   -442.36933   -425.38011    -5289.813    375.78422   -4528.0376   -11717.186    15.429912    13.362695    27.151511    5598.2399 
  194500      194.484    411.23228     16.90359   -442.25649    -425.3529   -4230.3095   -1042.3013   -1430.5696   -10218.057    15.429914    13.362697    27.151493     5598.238 
  195000      194.984    422.12391    17.351288   -442.67844   -425.32716   -5086.8612   -1998.8721   -1562.7922   -11698.919    15.429916    13.362699    27.151476    5598.2361 
  195500      195.484    405.36464    16.662402   -441.96267   -425.30027   -4911.2059   -1451.7322   -3552.4435   -9729.4419    15.429919    13.362701    27.151458    5598.2342 
  196000      195.984    402.42348    16.541507   -441.81569   -425.27418    -5532.238   -3983.9844   -2145.6155   -10467.114    15.429921    13.362704    27.151441    5598.2323 
  196500      196.484    402.18302    16.531623    -441.7791   -425.24747   -4397.7794   -459.95021   -2153.6529   -10579.735    15.429923    13.362706    27.151423    5598.2304 
  197000      196.984     418.8896    17.218342   -442.43968   -425.22134   -5998.4685   -2960.7956   -2684.2376   -12350.372    15.429926    13.362708    27.151406    5598.2285 
  197500      197.484    426.27011    17.521716   -442.71696   -425.19524   -6092.2001   -5215.9763    -1742.641   -11317.983    15.429928     13.36271    27.151388    5598.2266 
  198000      197.984    425.70621    17.498537   -442.66675   -425.16821   -5924.8811   -3120.2653   -3839.8594   -10814.519    15.429931    13.362712    27.151371    5598.2247 
  198500      198.484    435.86108     17.91595   -443.05764   -425.14169   -5277.7007     -3234.25    9.2716429   -12608.124    15.429933    13.362714    27.151353    5598.2228 
  199000      198.984    402.52873    16.545833   -441.65969   -425.11386   -4320.5707   -3136.3326    980.55439   -10805.934    15.429935    13.362716    27.151336    5598.2209 
  199500      199.484    425.53187    17.491371   -442.57951   -425.08814    -4879.659    186.52577   -973.18012   -13852.323    15.429938    13.362718    27.151318     5598.219 
  200000      199.984    414.95655    17.056676   -442.11798    -425.0613   -4389.0729    1236.2213   -3468.9988   -10934.441     15.42994     13.36272    27.151301    5598.2171 
  200500      200.484    423.30016    17.399637   -442.43411   -425.03447   -4651.2234   -3660.2004   -1881.2673   -8412.2025    15.429942    13.362722    27.151283    5598.2152 
  201000      200.984    416.22025    17.108619   -442.11618   -425.00756   -3721.7099    444.50367   -2477.8118   -9131.8215    15.429945    13.362724    27.151266    5598.2133 
  201500      201.484    423.33479    17.401061   -442.38175   -424.98069   -5326.3452   -512.07711   -2755.3099   -12711.648    15.429947    13.362726    27.151248    5598.2114 
  202000      201.984    436.96857    17.961473   -442.91553   -424.95406   -4806.0162   -46.352242    -2342.341   -12029.355    15.429949    13.362728    27.151231    5598.2095 
  202500      202.484    399.41581    16.417878   -441.34493   -424.92705    -3862.427   -1209.0241    926.07898   -11304.336    15.429952     13.36273    27.151213    5598.2076 
  203000      202.984    403.55099    16.587853   -441.48816   -424.90031   -3628.0133    -3744.229    2035.1188   -9174.9297    15.429954    13.362732    27.151196    5598.2057 
  203500      203.484    386.93512    15.904862   -440.77833   -424.87347   -5131.9533   -2745.8592    2634.1947   -15284.195    15.429956    13.362734    27.151178    5598.2039 
  204000      203.984    421.21746    17.314028   -442.16152   -424.84749   -5277.0935   -2427.7657   -94.475896   -13309.039    15.429959    13.362736    27.151161     5598.202 
  204500      204.484    409.04621    16.813732    -441.6338   -424.82007   -4591.4591   -1283.7056    92.233303   -12582.905    15.429961    13.362738    27.151143    5598.2001 
  205000      204.984        432.2    17.765463   -442.55918   -424.79372   -5150.5052   -2362.4765    113.02566   -13202.065    15.429963     13.36274    27.151126    5598.1982 
  205500      205.484    437.25262    17.973149   -442.73972   -424.76657   -5646.1856   -4219.9114   -1243.2847   -11475.361    15.429966    13.362742    27.151108    5598.1963 
  206000      205.984    423.21262    17.396039   -442.13584    -424.7398   -5526.3403   -411.40291   -3411.9762   -12755.642    15.429968    13.362745    27.151091    5598.1944 
  206500      206.484    414.24523    17.027437   -441.74005   -424.71261    -4441.486    1335.7541   -4644.8592   -10015.353     15.42997    13.362747    27.151073    5598.1925 
  207000      206.984    416.40846    17.116356   -441.80255    -424.6862   -3873.2601   -2030.3406   -157.79978   -9431.6399    15.429973    13.362749    27.151056    5598.1906 
  207500      207.484    422.92031    17.384023   -442.04332    -424.6593   -5691.6294   -334.27758   -2438.3835   -14302.227    15.429975    13.362751    27.151038    5598.1887 
  208000      207.984       434.59    17.863703   -442.49588   -424.63218   -4397.4854   -1389.8722    -2658.269   -9144.3151    15.429978    13.362753    27.151021    5598.1868 
  208500      208.484    393.27698    16.165543   -440.77127   -424.60573   -4560.9661   -2746.1175   -956.56675    -9980.214     15.42998    13.362755    27.151003    5598.1849 
  209000      208.984    410.05004    16.854995   -441.43361   -424.57862   -4600.7445   -2097.1608   -707.61963   -10997.453    15.429982    13.362757    27.150986     5598.183 
  209500      209.484    421.73724    17.335394   -441.88705   -424.55165   -4218.6671   -2271.3606     2058.071   -12442.712    15.429985    13.362759    27.150968    5598.1811 
  210000      209.984    428.30303    17.605279   -442.12984   -424.52456   -3981.4808   -1481.6847   -180.40773    -10282.35    15.429987    13.362761    27.150951    5598.1792 
  210500      210.484    402.28064    16.535636   -441.03275   -424.49712   -3529.0717   -2021.6253   -53.315967   -8512.2737    15.429989    13.362763    27.150933    5598.1773 
  211000      210.984    433.86207    17.833782   -442.30472   -424.47094    -3986.024   -1423.3968   -1807.6489   -8727.0263    15.429992    13.362765    27.150916    5598.1754 
  211500      211.484    407.57079    16.753086   -441.19619   -424.44311    -4227.856   -3864.7078   -477.91257   -8340.9475    15.429994    13.362767    27.150898    5598.1735 
  212000      211.984    415.96795    17.098248   -441.51402   -424.41577   -5238.3034   -5140.4974   -2783.2762   -7791.1367    15.429996    13.362769    27.150881    5598.1716 
[...]
  948500      948.484    560.22806    23.028021   -436.07448   -413.04646    607.19271    4660.5456    969.32769   -3808.2952    15.433458    13.365789    27.125103    5595.3754 
  949000      948.984    562.72545    23.130675   -436.17439   -413.04371   -296.56072    2170.9161    869.71959   -3930.3178     15.43346    13.365791    27.125086    5595.3735 
  949500      949.484    557.79741     22.92811    -435.9701   -413.04199    1076.9869   -33.778354    1411.7491    1852.9899    15.433463    13.365793    27.125068    5595.3716 
  950000      949.984    574.97724    23.634282   -436.67146   -413.03718    1033.4705    1789.5947    6464.8988   -5154.0822    15.433465    13.365795    27.125051    5595.3697 
  950500      950.484    572.37386    23.527271   -436.56144   -413.03417   -35.306323    776.50125   -929.13343    46.713206    15.433467    13.365797    27.125033    5595.3678 
  951000      950.984    559.20519    22.985976   -436.01633   -413.03036    2124.9092    2255.9116    3770.9902    347.82566     15.43347    13.365799    27.125016    5595.3659 
  951500      951.484    549.52853     22.58822   -435.61655   -413.02833    266.45905    474.21479    2903.9695   -2578.8071    15.433472    13.365801    27.124998     5595.364 
  952000      951.984    586.05131    24.089479     -437.113   -413.02352    1287.0759    4631.6557     738.0886   -1508.5165    15.433474    13.365803    27.124981    5595.3621 
  952500      952.484      548.242    22.535337   -435.55499   -413.01965    1343.2108    5346.7838    1807.9108   -3125.0623    15.433477    13.365805    27.124963    5595.3602 
  953000      952.984    563.45051    23.160479   -436.17877   -413.01829    749.14323    1456.8494    2828.1383    -2037.558    15.433479    13.365807    27.124946    5595.3583 
  953500      953.484    549.08089     22.56982    -435.5846   -413.01478    1738.3821    3502.0209    5936.7113   -4223.5857    15.433481    13.365809    27.124928    5595.3564 
  954000      953.984    554.67116    22.799606   -435.81148   -413.01187    622.67191    1135.0394    3696.9799   -2964.0036    15.433484    13.365811    27.124911    5595.3545 
  954500      954.484    557.66763    22.922775    -435.9328   -413.01003     1270.274    3015.5468    5673.5814   -4878.3063    15.433486    13.365813    27.124893    5595.3526 
  955000      954.984    564.54176    23.205334   -436.21116   -413.00582   -526.96382    2618.1344    3068.4769   -7267.5028    15.433488    13.365815    27.124876    5595.3507 
  955500      955.484    578.49255    23.778778   -436.78111   -413.00233    1399.6035    3197.2212    2725.6379   -1724.0486    15.433491    13.365817    27.124858    5595.3488 
  956000      955.984    569.76216    23.419918   -436.41816   -412.99824    51.201116   -3054.6659   -98.604219    3306.8734    15.433493     13.36582    27.124841    5595.3469 
  956500      956.484    545.48843    22.422152   -435.41655   -412.99439   -180.68962    374.69153    6210.9635   -7127.7238    15.433495    13.365822    27.124823     5595.345 
  957000      956.984    564.09339    23.186904   -436.17988   -412.99298    1485.5152    959.06134    6196.1177   -2698.6335    15.433498    13.365824    27.124806    5595.3431 
  957500      957.484    614.16358    25.245026    -438.2349   -412.98987    1257.5566   -153.30022     6117.132   -2191.1621      15.4335    13.365826    27.124788    5595.3412 
  958000      957.984    593.55234    24.397806    -437.3825   -412.98469    366.95281   -198.99932    4363.4606   -3063.6028    15.433503    13.365828    27.124771    5595.3393 
  958500      958.484    579.02014    23.800464   -436.78133   -412.98086   -417.04874    1683.1833    934.76033   -3869.0899    15.433505     13.36583    27.124753    5595.3374 
  959000      958.984    599.83454    24.656034   -437.63282   -412.97678    177.34525    2214.6204    5561.7989   -7244.3836    15.433507    13.365832    27.124736    5595.3355 
  959500      959.484    574.57047    23.617562   -436.59002   -412.97246    640.86164    2222.2004    3135.3093   -3434.9248     15.43351    13.365834    27.124718    5595.3336 
  960000      959.984    551.15618    22.655124   -435.62322   -412.96809    1617.4693    2811.3335    5052.0221   -3010.9478    15.433512    13.365836    27.124701    5595.3317 
  960500      960.484     545.9614    22.441594   -435.40357   -412.96197    1699.3057     2598.183    4372.9119   -1873.1777    15.433514    13.365838    27.124683    5595.3298 
  961000      960.984    550.81146    22.640954   -435.60092   -412.95996    440.89037    2879.8244    4282.7669   -5839.9201    15.433517     13.36584    27.124666    5595.3279 
  961500      961.484     586.2278    24.096733   -437.05326   -412.95652    431.17415    1269.3755    1649.8453   -1625.6983    15.433519    13.365842    27.124648     5595.326 
  962000      961.984    543.44348    22.338096   -435.29051   -412.95241    746.58352    2007.2071    4362.2932   -4129.7497    15.433521    13.365844    27.124631    5595.3241 
  962500      962.484    536.95078    22.071215   -435.01911   -412.94789    893.74778    4012.7952    2436.7767   -3768.3286    15.433524    13.365846    27.124613    5595.3222 
  963000      962.984    536.77373    22.063937   -435.00824    -412.9443    1590.1726    2171.3559     2880.864   -281.70208    15.433526    13.365848    27.124596    5595.3203 
  963500      963.484    571.34668    23.485049   -436.42471   -412.93967    193.48559     1331.807    3675.7809   -4427.1311    15.433528     13.36585    27.124578    5595.3184 
  964000      963.984    570.31923    23.442816   -436.37751    -412.9347    1633.2354    779.81827    8604.5558   -4484.6678    15.433531    13.365852    27.124561    5595.3165 
  964500      964.484      581.811    23.915182   -436.84411   -412.92893   -2.6819713    1167.6358    317.81247   -1493.4942    15.433533    13.365854    27.124543    5595.3146 
  965000      964.984    582.33657    23.936785   -436.85996   -412.92317    442.89244    1086.2497    7979.4848   -7737.0571    15.433535    13.365856    27.124526    5595.3127 
  965500      965.484    591.66633    24.320283   -437.23874   -412.91845    1362.5246    2308.9588     6384.237   -4605.6221    15.433538    13.365858    27.124508    5595.3108 
  966000      965.984    581.42912    23.899485   -436.81166   -412.91217    1438.2788    2430.9226    5173.2478   -3289.3339     15.43354    13.365861    27.124491    5595.3089 
  966500      966.484    571.86739    23.506453   -436.41382   -412.90736    1414.2421    1907.1425     4752.993   -2417.4091    15.433542    13.365863    27.124473     5595.307 
  967000      966.984    589.11225    24.215298   -437.11856   -412.90326    1321.8677    1805.9283    4746.6536   -2586.9789    15.433545    13.365865    27.124456    5595.3051 
  967500      967.484     589.6559    24.237644   -437.13781   -412.90016   -1160.2247    2142.8512    1472.8089   -7096.3343    15.433547    13.365867    27.124438    5595.3032 
  968000      967.984    566.08652    23.268832   -436.16139   -412.89256    329.62599    2584.8715    4492.1661   -6088.1597     15.43355    13.365869    27.124421    5595.3013 
  968500      968.484    538.36986    22.129546   -435.01616   -412.88661    1862.1683    3584.1134    7382.8053   -5380.4138    15.433552    13.365871    27.124403    5595.2994 
  969000      968.984    573.42045    23.570291   -436.45379    -412.8835   -422.69887    2669.3324   -240.34038   -3697.0887    15.433554    13.365873    27.124386    5595.2975 
  969500      969.484    545.51657    22.423309   -435.30103   -412.87772    1618.0024    1.9755292    7416.3445   -2564.3128    15.433557    13.365875    27.124368    5595.2956 
  970000      969.984    588.94115    24.208265   -437.08305   -412.87478   -931.99036    2410.4554    23.197469   -5229.6239    15.433559    13.365877    27.124351    5595.2937 
  970500      970.484    559.08084    22.980865   -435.85041   -412.86955    2555.6589    2106.3225    5424.9256    135.72844    15.433561    13.365879    27.124333    5595.2918 
  971000      970.984    575.64008    23.661528   -436.52489   -412.86336    1008.1578    4977.0338    3609.8637   -5562.4241    15.433564    13.365881    27.124316    5595.2899 
  971500      971.484    596.54477    24.520809   -437.38006   -412.85925      356.154    3914.0751    732.07622   -3577.6893    15.433566    13.365883    27.124298     5595.288 
  972000      971.984    565.85113    23.259156   -436.11254   -412.85338    1069.8626    4576.3328    2816.6307   -4183.3757    15.433568    13.365885    27.124281    5595.2861 
  972500      972.484    582.25741    23.933532   -436.78213    -412.8486     445.9277    2783.9451    4086.3685   -5532.5306    15.433571    13.365887    27.124263    5595.2842 
  973000      972.984    577.11936    23.722333    -436.5653   -412.84297    1085.9584    -801.6587    5346.4217    -1286.888    15.433573    13.365889    27.124246    5595.2823 
  973500      973.484    559.73403    23.007714   -435.84659   -412.83887    1720.8048    2999.5701    4532.1159   -2369.2716    15.433575    13.365891    27.124228    5595.2804 
  974000      973.984    565.41695    23.241309   -436.07377   -412.83246    2015.4875    3205.2882    4791.1882   -1950.0141    15.433578    13.365893    27.124211    5595.2785 
  974500      974.484    560.98427    23.059105   -435.88615   -412.82704    1138.3113    2916.4246    2723.3847   -2224.8753     15.43358    13.365895    27.124193    5595.2766 
  975000      974.984    578.33097    23.772136   -436.59283   -412.82069    634.37675    4619.8431    76.597414   -2793.3103    15.433582    13.365897    27.124176    5595.2747 
  975500      975.484    574.75092    23.624979   -436.44187   -412.81689    222.75302     3525.989    748.58466   -3606.3146    15.433585    13.365899    27.124158    5595.2728 
  976000      975.984    572.79188    23.544453   -436.35611   -412.81165    539.92353    1814.1405    2128.1667   -2322.5366    15.433587    13.365902    27.124141    5595.2709 
  976500      976.484    568.13473    23.353022   -436.15931   -412.80629     1317.554    2479.8349    5002.3229   -3529.4959    15.433589    13.365904    27.124123     5595.269 
  977000      976.984    578.99512    23.799436   -436.60113    -412.8017    797.61436   -118.15861     2395.984    115.01769    15.433592    13.365906    27.124106    5595.2671 
  977500      977.484    579.96429    23.839273    -436.6337   -412.79443    652.56989    2747.5654    5244.0435   -6033.8993    15.433594    13.365908    27.124088    5595.2652 
  978000      977.984    554.87271    22.807891   -435.59707   -412.78918    898.31927    4171.1353    3464.6954   -4940.8729    15.433597     13.36591    27.124071    5595.2633 
  978500      978.484    583.53695    23.986127   -436.76986   -412.78373   -367.29062   -984.80841    5047.9907   -5165.0542    15.433599    13.365912    27.124053    5595.2614 
  979000      978.984    583.24051    23.973941   -436.75237   -412.77843    1938.3271   -61.413842    5400.7803     475.6148    15.433601    13.365914    27.124036    5595.2595 
  979500      979.484    573.51616    23.574225   -436.34682   -412.77259    1530.0435    3236.8798   -798.29532    2151.5459    15.433604    13.365916    27.124018    5595.2576 
  980000      979.984    569.21577    23.397458   -436.16354   -412.76609    788.86278    1242.9258    4641.1737   -3517.5111    15.433606    13.365918    27.124001    5595.2557 
  980500      980.484    580.13526    23.846301   -436.60561   -412.75931    -650.9294   -330.49811    1214.6949    -2836.985    15.433608     13.36592    27.123983    5595.2538 
  981000      980.984    599.96973    24.661591   -437.41516   -412.75357    375.88113   -275.55412    5234.8496   -3831.6521    15.433611    13.365922    27.123966    5595.2519 
  981500      981.484    544.48301    22.380825   -435.12854   -412.74771    1653.5118    5413.4014    6919.8598   -7372.7258    15.433613    13.365924    27.123948      5595.25 
  982000      981.984    594.03774    24.417759   -437.15832   -412.74056    1000.1236    3912.5931   -129.06832   -783.15388    15.433615    13.365926    27.123931    5595.2481 
  982500      982.484    587.51921    24.149816   -436.88579   -412.73598    646.88801    1022.0773    4929.3409   -4010.7541    15.433618    13.365928    27.123913    5595.2462 
  983000      982.984    588.65454    24.196484   -436.92489    -412.7284    1329.5941    110.08965     6350.707   -2472.0144     15.43362     13.36593    27.123896    5595.2443 
  983500      983.484    545.46991    22.421391   -435.14342   -412.72203    265.16089     5210.101    647.08568    -5061.704    15.433622    13.365932    27.123878    5595.2424 
  984000      983.984    574.81099    23.627448   -436.34236   -412.71491    1282.9422    3877.0261    2803.3092   -2831.5086    15.433625    13.365934    27.123861    5595.2405 
  984500      984.484    586.81961    24.121059   -436.83013   -412.70907    2224.1531    5507.8331    3283.5141   -2118.8878    15.433627    13.365936    27.123843    5595.2386 
  985000      984.984      583.362    23.978935   -436.68052   -412.70158    1346.7007      2009.83    1956.9836    73.288359    15.433629    13.365938    27.123826    5595.2367 
  985500      985.484    567.39349    23.322554   -436.01596   -412.69341    1013.8522    3293.4937    3511.3717   -3763.3088    15.433632     13.36594    27.123808    5595.2348 
  986000      985.984    572.53568    23.533922   -436.22085   -412.68693   -57.870913   -953.88629    6411.0955    -5630.822    15.433634    13.365943    27.123791    5595.2329 
  986500      986.484    550.91752    22.645314    -435.3238   -412.67849    3109.8521    6206.5097    3121.1066     1.940062    15.433636    13.365945    27.123773     5595.231 
  987000      986.984    559.77672    23.009469   -435.68252   -412.67305    747.82136    4963.0448   -234.06873   -2485.5119    15.433639    13.365947    27.123756    5595.2291 
  987500      987.484     551.5553     22.67153   -435.33553     -412.664     2879.477    3384.5395    4122.0419    1131.8495    15.433641    13.365949    27.123738    5595.2272 
  988000      987.984    600.03843    24.664415   -437.32325   -412.65884    271.22684    6216.6211     1894.712   -7297.6525    15.433644    13.365951    27.123721    5595.2253 
  988500      988.484    571.62598    23.496529    -436.1483   -412.65178    415.02143    1448.6229    3465.5221   -3669.0807    15.433646    13.365953    27.123703    5595.2234 
  989000      988.984    576.50896    23.697243   -436.34187   -412.64462    353.47253    1473.7441    1908.8084   -2322.1348    15.433648    13.365955    27.123686    5595.2215 
  989500      989.484    572.55922     23.53489    -436.1719   -412.63701    1012.1486     2110.552    2145.3328   -1219.4389    15.433651    13.365957    27.123668    5595.2196 
  990000      989.984    591.55532     24.31572   -436.94611   -412.63039   -622.77546    3405.6287     34.23143   -5308.1865    15.433653    13.365959    27.123651    5595.2177 
  990500      990.484    567.91426     23.34396   -435.96678   -412.62282   -87.024735    190.13735   -829.03975     377.8282    15.433655    13.365961    27.123633    5595.2158 
  991000      990.984    582.27057    23.934072    -436.5499   -412.61582    629.82425    5747.9962   -1532.4718   -2326.0517    15.433658    13.365963    27.123616    5595.2139 
  991500      991.484    528.73521    21.733516   -434.34112    -412.6076     896.2933    1460.5546   -167.25079    1395.5761     15.43366    13.365965    27.123598     5595.212 
  992000      991.984     543.9367    22.358369   -434.95996   -412.60159   -733.24963    1288.4527   -714.33344   -2773.8682    15.433662    13.365967    27.123581    5595.2101 
  992500      992.484    593.34596    24.389323   -436.98256   -412.59323    1493.3534    3289.1939   -177.49942    1368.3656    15.433665    13.365969    27.123563    5595.2082 
  993000      992.984    542.18924     22.28654   -434.87246   -412.58592    1044.2169    4701.4687    1937.7031    -3506.521    15.433667    13.365971    27.123546    5595.2063 
  993500      993.484    585.64071    24.072601   -436.65083   -412.57823    37.347704    4576.4781   -1842.7413   -2621.6936    15.433669    13.365973    27.123528    5595.2044 
  994000      993.984    575.43587    23.653134   -436.22484    -412.5717   -627.34078    4900.2058   -3877.8484   -2904.3797    15.433672    13.365975    27.123511    5595.2025 
  994500      994.484      586.307    24.099989   -436.66343   -412.56344    2168.2461    5025.7209   -1161.9307    2640.9481    15.433674    13.365977    27.123493    5595.2006 
  995000      994.984    528.41638     21.72041   -434.27472   -412.55431    3165.0612    6738.8979    2991.6183   -235.33248    15.433676    13.365979    27.123476    5595.1987 
  995500      995.484    563.98237    23.182341   -435.72928   -412.54694    433.75194    5117.0323    808.00334   -4623.7799    15.433679    13.365981    27.123458    5595.1969 
  996000      995.984    571.22397    23.480005    -436.0189   -412.53889    641.72531    3917.1519   -2321.4878    329.51178    15.433681    13.365984    27.123441     5595.195 
  996500      996.484    557.29391    22.907414   -435.43806   -412.53064   -180.85384    5308.5868    1199.8898   -7051.0382    15.433683    13.365986    27.123423    5595.1931 
  997000      996.984    577.89569    23.754244   -436.27849   -412.52424    1582.5825    6176.4608    2207.5518    -3636.265    15.433686    13.365988    27.123406    5595.1912 
  997500      997.484    562.76565    23.132328   -435.64829   -412.51597    1059.9583    3970.1582   -815.93127    25.647972    15.433688     13.36599    27.123388    5595.1893 
  998000      997.984     591.5087    24.313803    -436.8226   -412.50879    1804.2411    5571.2422    832.28666   -990.80564    15.433691    13.365992    27.123371    5595.1874 
  998500      998.484    584.98734    24.045744    -436.5456   -412.49986     150.5886    7313.5165   -703.38022   -6158.3705    15.433693    13.365994    27.123353    5595.1855 
  999000      998.984    565.05378    23.226381    -435.7179   -412.49152     15.51624    5835.9209    1614.0869   -7403.4591    15.433695    13.365996    27.123336    5595.1836 
  999500      999.484    575.80263     23.66821   -436.15139   -412.48318    1375.8971    3907.3524    5921.0934   -5700.7544    15.433698    13.365998    27.123318    5595.1817 
 1000000      999.984    567.31423    23.319296   -435.79433   -412.47504    1201.7671    5969.0662    1759.2748   -4123.0398      15.4337       13.366    27.123301    5595.1798 
 1000016         1000    606.27867    24.920919   -437.39614   -412.47522     375.0406    6570.2945    1215.6921   -6660.8648      15.4337       13.366      27.1233    5595.1797 
Loop time of 909.855 on 28 procs for 1000000 steps with 319 atoms

Performance: 94.960 ns/day, 0.253 hours/ns, 1099.076 timesteps/s
87.3% CPU use with 28 MPI tasks x no OpenMP threads

MPI task timing breakdown:
Section |  min time  |  avg time  |  max time  |%varavg| %total
---------------------------------------------------------------
Pair    | 732.94     | 787.83     | 820.27     |  79.3 | 86.59
Neigh   | 0.019913   | 0.031756   | 0.042306   |   3.2 |  0.00
Comm    | 78.618     | 109.53     | 163.23     | 204.5 | 12.04
Output  | 0.099343   | 0.10161    | 0.12257    |   1.3 |  0.01
Modify  | 4.9725     | 7.1754     | 9.4596     |  50.8 |  0.79
Other   |            | 5.183      |            |       |  0.57

Nlocal:    11.3929 ave 16 max 6 min
Histogram: 1 1 3 2 3 3 7 1 3 4
Nghost:    645.179 ave 679 max 582 min
Histogram: 3 1 1 1 2 1 3 4 5 7
Neighs:    710.429 ave 998 max 380 min
Histogram: 2 3 1 3 2 6 4 3 0 4
FullNghs:  1420.86 ave 2037 max 742 min
Histogram: 1 3 3 3 3 7 1 3 2 2

Total # of neighbors = 39784
Ave neighs/atom = 124.715
Neighbor list builds = 476
Dangerous builds = 0

write_restart   POSCAR_1x1x1.rest

#unfix    1
#undump   1
Total wall time: 0:15:10
