LAMMPS (7 Dec 2015)
#----------- Initialize Simulation ------------ restart01
#processors	2 2 2
units		metal
boundary	p p p     ## periodic boundary condition  on x y z axis ##
atom_style atomic
#atom_modify map array sort 0 0.0

read_data	POSCAR_1x1x1.lammps
  triclinic box = (0 0 0) to (15.3814 13.3207 27.5082) with tilt (-7.6906 0 0)
  2 by 2 by 7 MPI processor grid
  reading atoms ...
  319 atoms

#----------- Define Potential -----------------
pair_style meam
pair_coeff * * MgAlZn.library.meam Mg Al Zn MgAlZn.parameter.meam Mg Al Zn 	#1=Mg 2=Al 3=Zn	#atoms/mass

#----------- Neighbor List --------------------
neighbor 2.0 bin
neigh_modify delay 10 check yes

#--------------  Run a simulation (minimization) ---------------------------------------
minimize       1.0e-4   1.0e-6   100   1000          #結構優化的條件
WARNING: Resetting reneighboring criteria during minimization (../min.cpp:168)
Neighbor list info ...
  2 neighbor list requests
  update every 1 steps, delay 0 steps, check yes
  max neighbors/atom: 2000, page size: 100000
  master list distance cutoff = 8
  ghost atom cutoff = 8
  binsize = 4 -> bins = 6 4 7
Memory usage per processor = 8.65442 Mbytes
Step Temp E_pair E_mol TotEng Press 
       0            0   -435.12526            0   -435.12526   -5141.8624 
      13            0   -457.60376            0   -457.60376   -22303.892 
Loop time of 0.0214319 on 28 procs for 13 steps with 319 atoms

86.1% CPU use with 28 MPI tasks x no OpenMP threads

Minimization stats:
  Stopping criterion = energy tolerance
  Energy initial, next-to-last, final = 
        -435.125256702     -457.558071179     -457.603758052
  Force two-norm initial, final = 20.9773 0.812348
  Force max component initial, final = 4.81015 0.142029
  Final line search alpha, max atom move = 0.198225 0.0281538
  Iterations, force evaluations = 13 23

MPI task timing breakdown:
Section |  min time  |  avg time  |  max time  |%varavg| %total
---------------------------------------------------------------
Pair    | 0.017245   | 0.018354   | 0.019267   |   0.4 | 85.64
Neigh   | 0          | 0          | 0          |   0.0 |  0.00
Comm    | 0.0012742  | 0.0021941  | 0.0032586  |   1.0 | 10.24
Output  | 0          | 0          | 0          |   0.0 |  0.00
Modify  | 0          | 0          | 0          |   0.0 |  0.00
Other   |            | 0.0008834  |            |       |  4.12

Nlocal:    11.3929 ave 15 max 6 min
Histogram: 1 1 2 4 2 3 4 3 6 2
Nghost:    646.429 ave 691 max 588 min
Histogram: 3 3 1 1 1 3 3 6 3 4
Neighs:    704.893 ave 929 max 350 min
Histogram: 1 1 3 3 2 2 4 2 6 4
FullNghs:  1409.79 ave 1889 max 736 min
Histogram: 1 1 3 3 2 3 4 3 6 2

Total # of neighbors = 39474
Ave neighs/atom = 123.743
Neighbor list builds = 0
Dangerous builds = 0
velocity all  create 600.0 4928459 #rot yes dist gaussian

#--------------  Run a simulation (Relaxation)  ----------------------------------------
fix  1  all  nvt   temp  600.0  600.0  100				#damping constant
#fix  2  all  npt   temp  393.0  393.0  50 iso 0.0 0.0 1000.0
fix  2  all deform 1 x final 0 15.3861 y final 0 13.3248 z final 0 27.4732 xy final -7.69295 units lattice
#fix  3  all  npt   temp  393.0  393.0  50 z 0.0 0.0 1000.0

#variable b equal 1
#fix 2 all efield  0.0  0.0  v_b
#compute pot all pe/atom


#----------- Output --------------------------
thermo	 500
timestep  0.001		#1.0 fs
thermo_style	custom step time temp ke pe etotal press pxx pyy pzz lx ly lz vol

dump 1 all custom 10000 dump.eq id type x y z
dump_modify 1 sort  id

run        1000000	#1000 ps
Neighbor list info ...
  2 neighbor list requests
  update every 1 steps, delay 10 steps, check yes
  max neighbors/atom: 2000, page size: 100000
  master list distance cutoff = 8
  ghost atom cutoff = 8
  binsize = 4 -> bins = 6 4 7
Memory usage per processor = 7.56103 Mbytes
Step Time Temp KinEng PotEng TotEng Press Pxx Pyy Pzz Lx Ly Lz Volume 
      13            0          600    24.662836   -457.60376   -432.94092   -17630.018    -8957.801    -10478.54   -33453.713      15.3814      13.3207      27.5082     5636.183 
     500        0.487    338.02619    13.894474   -446.83196   -432.93749   -10805.924   -1472.6224   -4620.5191    -26324.63    15.381402    13.320702    27.508183    5636.1812 
    1000        0.987    327.73554     13.47148   -446.40844   -432.93696   -10874.275   -3649.7369   -6252.5209   -22720.567    15.381405    13.320704    27.508165    5636.1794 
    1500        1.487    296.13413    12.172512   -445.10813   -432.93562   -9041.8024    1.8740271   -4831.5237   -22295.758    15.381407    13.320706    27.508148    5636.1775 
    2000        1.987    316.39997    13.005534   -445.94027   -432.93473   -10812.147   -4221.2303   -4062.5386   -24152.672    15.381409    13.320708     27.50813    5636.1756 
    2500        2.487    299.76818    12.321889   -445.25533   -432.93344   -11276.911   -2273.5721   -5117.9698   -26439.192    15.381412     13.32071    27.508113    5636.1738 
    3000        2.987    315.78557    12.980279   -445.91226   -432.93198   -11127.373   -6175.3426   -3275.9435   -23930.832    15.381414    13.320712    27.508095    5636.1719 
    3500        3.487    302.37004    12.428838   -445.35854   -432.92971   -10602.264   -2553.8708   -7857.4848   -21395.437    15.381416    13.320714    27.508078    5636.1701 
    4000        3.987    302.33373    12.427345    -445.3551   -432.92776   -10488.656   -4208.1595   -6464.5537   -20793.254    15.381419    13.320716     27.50806    5636.1682 
    4500        4.487    310.21169    12.751167   -445.67649   -432.92532   -10490.009   -3075.0674   -4269.5472   -24125.413    15.381421    13.320718    27.508043    5636.1664 
    5000        4.987    300.86405    12.366934   -445.28898   -432.92205   -10704.189   -1774.3914   -3722.6179   -26615.558    15.381423     13.32072    27.508025    5636.1645 
    5500        5.487    318.40003    13.087746    -446.0073   -432.91955   -10527.914   -2902.3066   -4300.1569   -24381.279    15.381426    13.320722    27.508008    5636.1626 
    6000        5.987    320.99009     13.19421   -446.10997   -432.91576   -11086.292   -3787.5245    -3857.389   -25613.963    15.381428    13.320725     27.50799    5636.1608 
    6500        6.487    305.61351     12.56216   -445.47397   -432.91181   -10703.165   -3417.8208   -3650.6065   -25041.067     15.38143    13.320727    27.507973    5636.1589 
    7000        6.987    299.99714      12.3313   -445.23904   -432.90774   -10541.681   -2094.1726   -8155.2631   -21375.609    15.381433    13.320729    27.507955    5636.1571 
    7500        7.487    319.35648     13.12706   -446.03052   -432.90346    -11030.84   -3502.3524   -6264.8305   -23325.338    15.381435    13.320731    27.507938    5636.1552 
    8000        7.987    307.06093    12.621656   -445.52009   -432.89843   -10910.869   -4242.3476   -5288.9621   -23201.297    15.381438    13.320733     27.50792    5636.1534 
    8500        8.487    307.42536    12.636635   -445.52979   -432.89315    -10697.97   -3055.0569   -6130.3041   -22908.548     15.38144    13.320735    27.507903    5636.1515 
    9000        8.987    327.58331    13.465222   -446.35357   -432.88835   -10891.905   -3878.7039   -3884.3321   -24912.678    15.381442    13.320737    27.507885    5636.1496 
    9500        9.487     306.2082    12.586604   -445.46916   -432.88256   -10624.817    -1998.692   -6732.4572   -23143.301    15.381445    13.320739    27.507868    5636.1478 
   10000        9.987    325.41844    13.376236   -446.25316   -432.87692   -11161.019   -4664.6736   -7449.9513   -21368.434    15.381447    13.320741     27.50785    5636.1459 
   10500       10.487    305.42081    12.554239   -445.42454    -432.8703   -10672.849   -2523.8633   -6416.8202   -23077.863    15.381449    13.320743    27.507833    5636.1441 
   11000       10.987    319.38891    13.128394   -445.99219    -432.8638   -10822.747   -4854.8458    -2599.811   -25013.584    15.381452    13.320745    27.507815    5636.1422 
   11500       11.487    303.90261    12.491834   -445.34881   -432.85698   -10484.703   -4255.1691   -4730.0621   -22468.878    15.381454    13.320747    27.507798    5636.1404 
   12000       11.987    295.91496    12.163503   -445.01308   -432.84957   -10982.669   -4342.5011   -5204.2457   -23401.261    15.381456    13.320749     27.50778    5636.1385 
   12500       12.487    326.28147     13.41171   -446.25401    -432.8423   -11022.172   -3438.7116   -6563.4097   -23064.395    15.381459    13.320751    27.507763    5636.1366 
   13000       12.987    302.29888    12.425913   -445.26034   -432.83443   -9813.4276     -3802.61   -5130.8076   -20506.865    15.381461    13.320753    27.507745    5636.1348 
   13500       13.487     301.1827    12.380032   -445.20647   -432.82644   -10096.342   -4232.4533   -4014.7784   -22041.795    15.381463    13.320755    27.507728    5636.1329 
   14000       13.987    315.75479    12.979014   -445.79704   -432.81803   -10067.524   -2474.6539   -3411.5084   -24316.409    15.381466    13.320757     27.50771    5636.1311 
   14500       14.487    316.22243    12.998236   -445.80746   -432.80922   -10232.291   -1298.7576   -4452.5192   -24945.596    15.381468    13.320759    27.507693    5636.1292 
   15000       14.987    322.18526    13.243337   -446.04372   -432.80038   -11611.268   -3145.8141   -3790.8579   -27897.133     15.38147    13.320761    27.507675    5636.1274 
   15500       15.487    316.33342    13.002799   -445.79378   -432.79098   -10528.446   -2650.7736   -4539.0397   -24395.524    15.381473    13.320763    27.507658    5636.1255 
   16000       15.987    321.23428    13.204247   -445.98615   -432.78191   -10292.845   -2645.4749    -6273.913   -21959.146    15.381475    13.320766     27.50764    5636.1236 
   16500       16.487    314.12028    12.911828    -445.6831   -432.77127   -10749.851   -3974.6373   -5868.8397   -22406.076    15.381477    13.320768    27.507623    5636.1218 
   17000       16.987    301.72545    12.402342   -445.16313   -432.76079   -9324.3457   -2253.4771   -4427.1259   -21292.434     15.38148     13.32077    27.507605    5636.1199 
   17500       17.487    308.81972     12.69395   -445.44399   -432.75004   -10641.539   -2435.0607   -5899.5559   -23589.999    15.381482    13.320772    27.507588    5636.1181 
   18000       17.987    313.48928    12.885891   -445.62561   -432.73972   -11369.728   -4759.3269   -3107.7728   -26242.083    15.381485    13.320774     27.50757    5636.1162 
   18500       18.487    308.24148    12.670182   -445.39831   -432.72813   -11212.275   -2339.3518   -6103.5313   -25193.943    15.381487    13.320776    27.507553    5636.1144 
   19000       18.987    311.74737     12.81429   -445.53134   -432.71705   -9982.5808   -2424.3788   -6783.7772   -20739.586    15.381489    13.320778    27.507535    5636.1125 
   19500       19.487    318.66439    13.098612   -445.80403   -432.70541   -10401.758   -4339.6941   -2796.9142   -24068.666    15.381492     13.32078    27.507518    5636.1106 
   20000       19.987    304.51506    12.517008    -445.2099   -432.69289   -11584.167   -4244.4665    -2832.305   -27675.729    15.381494    13.320782      27.5075    5636.1088 
   20500       20.487    316.83884    13.023574   -445.70437   -432.68079   -10395.954   -2417.1046   -2272.2368    -26498.52    15.381496    13.320784    27.507483    5636.1069 
   21000       20.987    317.90411    13.067361   -445.73541   -432.66804   -10373.127   -2655.0415   -3941.5938   -24522.744    15.381499    13.320786    27.507465    5636.1051 
   21500       21.487    313.68087    12.893766   -445.54855   -432.65478   -10624.507   -484.81342   -4308.7298   -27079.978    15.381501    13.320788    27.507448    5636.1032 
   22000       21.987    306.16161    12.584689   -445.22646   -432.64178   -10065.526    -1848.343   -4338.1141    -24010.12    15.381503     13.32079     27.50743    5636.1014 
   22500       22.487    323.79076     13.30933   -445.93829   -432.62896   -10667.814   -2569.7408   -5398.9868   -24034.716    15.381506    13.320792    27.507413    5636.0995 
   23000       22.987    301.85788    12.407786   -445.02251   -432.61473   -10296.232   -1554.6468    -5226.787   -24107.261    15.381508    13.320794    27.507395    5636.0976 
   23500       23.487    326.18367     13.40769   -446.00877   -432.60108   -10884.752   -3976.5356   -5302.0963   -23375.624     15.38151    13.320796    27.507378    5636.0958 
   24000       23.987    315.81392    12.981445   -445.56802   -432.58658   -9937.1365   -3363.6886   -4336.0583   -22111.663    15.381513    13.320798     27.50736    5636.0939 
   24500       24.487    327.92373    13.479215   -446.05126   -432.57205   -10228.453    -3256.413   -5818.2925   -21610.653    15.381515      13.3208    27.507343    5636.0921 
   25000       24.987     319.0173    13.113119   -445.67025   -432.55713   -10529.716   -1436.8401   -4740.2056   -25412.102    15.381517    13.320802    27.507325    5636.0902 
   25500       25.487    327.90794    13.478566   -446.02059   -432.54202   -10941.556   -4685.4828   -5533.9107   -22605.276     15.38152    13.320804    27.507308    5636.0884 
   26000       25.987     312.2801    12.836188   -445.36293   -432.52674   -11332.846   -4190.5292   -6246.5519   -23561.458    15.381522    13.320807     27.50729    5636.0865 
   26500       26.487    310.68466    12.770608   -445.28184   -432.51124   -11058.111   -4436.7001   -3754.7458   -24982.888    15.381524    13.320809    27.507273    5636.0846 
   27000       26.987    325.22599    13.368325   -445.86413   -432.49581   -10729.117   -5971.2144   -4467.6619   -21748.475    15.381527    13.320811    27.507255    5636.0828 
   27500       27.487    304.98481    12.536317   -445.01612    -432.4798   -10012.331   -3940.5443   -4348.3032   -21748.146    15.381529    13.320813    27.507238    5636.0809 
   28000       27.987    317.35351    13.044729   -445.50861   -432.46388   -10257.366    -2236.194   -5941.2777   -22594.627    15.381532    13.320815     27.50722    5636.0791 
   28500       28.487    334.09625    13.732935   -446.18028   -432.44734    -11340.72   -4449.9728   -6321.9413   -23250.246    15.381534    13.320817    27.507203    5636.0772 
   29000       28.987     324.2707    13.329058   -445.75979   -432.43073   -10348.795   -1880.4471   -6225.9804   -22939.958    15.381536    13.320819    27.507185    5636.0754 
   29500       29.487    322.52896    13.257465   -445.67114   -432.41368   -10542.148   -3115.1581   -5327.3172    -23183.97    15.381539    13.320821    27.507168    5636.0735 
   30000       29.987    315.32458    12.961331   -445.35792   -432.39659   -9925.4994   -2545.0656    -5077.719   -22153.714    15.381541    13.320823     27.50715    5636.0716 
   30500       30.487    309.71081    12.730578   -445.10958     -432.379   -9671.9798    210.41816   -7194.3135   -22032.044    15.381543    13.320825    27.507133    5636.0698 
   31000       30.987    318.75962    13.102527   -445.46413    -432.3616   -9732.0773   -1589.0146   -5553.8465   -22053.371    15.381546    13.320827    27.507115    5636.0679 
   31500       31.487     322.3226    13.248982   -445.59297   -432.34399   -10744.214   -5341.7404   -2708.9509    -24181.95    15.381548    13.320829    27.507098    5636.0661 
   32000       31.987     323.1016    13.281003   -445.60777   -432.32677   -10368.216   -2364.6752   -4955.8068   -23784.167     15.38155    13.320831     27.50708    5636.0642 
   32500       32.487     315.6723    12.975623    -445.2841   -432.30848   -10340.997   -1481.4164   -6111.3534    -23430.22    15.381553    13.320833    27.507063    5636.0624 
   33000       32.987    332.49442    13.667092   -445.95771   -432.29062   -10986.852   -3251.5755   -7321.2488   -22387.732    15.381555    13.320835    27.507045    5636.0605 
   33500       33.487    322.85316    13.270791   -445.54316   -432.27237   -11273.293   -4062.1979   -5503.6768   -24254.006    15.381557    13.320837    27.507028    5636.0586 
   34000       33.987    314.03192    12.908196   -445.16202   -432.25382   -9701.8348   -3031.3023   -4810.5028   -21263.699     15.38156    13.320839     27.50701    5636.0568 
   34500       34.487    320.54377    13.175864    -445.4118   -432.23594   -10183.077   -3107.6656   -5573.8672   -21867.698    15.381562    13.320841    27.506993    5636.0549 
   35000       34.987    322.60121    13.260434   -445.47715   -432.21672   -11155.466   -1976.3934   -5567.7479   -25922.258    15.381564    13.320843    27.506975    5636.0531 
   35500       35.487     327.9466    13.480155   -445.67876   -432.19861   -10740.319   -3596.3161    -4193.459   -24431.181    15.381567    13.320845    27.506958    5636.0512 
   36000       35.987    324.08364    13.321369   -445.50108   -432.17971   -10601.642   -3521.7894   -4969.3058   -23313.831    15.381569    13.320848     27.50694    5636.0494 
   36500       36.487    325.03486    13.360469   -445.52145   -432.16098   -9068.0907   -1430.6109   -4017.4354   -21756.226    15.381571     13.32085    27.506923    5636.0475 
   37000       36.987    306.62324    12.603664    -444.7457   -432.14203   -9658.5792   -1885.5631     -4475.24   -22614.934    15.381574    13.320852    27.506905    5636.0456 
   37500       37.487    322.11993    13.240651   -445.36389   -432.12324   -10016.128    -3025.904   -2759.6158   -24262.865    15.381576    13.320854    27.506888    5636.0438 
   38000       37.987    339.92766    13.972633   -446.07761   -432.10498   -10169.197   -1780.7266   -5284.3474   -23442.517    15.381579    13.320856     27.50687    5636.0419 
   38500       38.487    312.46965    12.843979   -444.92943   -432.08545   -9298.4045   -4939.6056    -4680.608       -18275    15.381581    13.320858    27.506853    5636.0401 
   39000       38.987    326.34299    13.414239   -445.48022   -432.06598   -10284.508   -1791.7148   -4328.0831   -24733.725    15.381583     13.32086    27.506835    5636.0382 
   39500       39.487    317.08386    13.033645   -445.08005   -432.04641   -10146.758   -3060.3277   -5337.9222   -22042.024    15.381586    13.320862    27.506818    5636.0363 
   40000       39.987    316.74457    13.019699    -445.0474   -432.02771    -10832.19   -4729.6154   -4128.2352    -23638.72    15.381588    13.320864      27.5068    5636.0345 
   40500       40.487    335.64891    13.796757   -445.80522   -432.00846   -9322.7265   -2642.9249   -3296.4756   -22028.779     15.38159    13.320866    27.506783    5636.0326 
   41000       40.987    323.13842    13.282516    -445.2719   -431.98938     -10290.7   -3417.0902   -6666.1904   -20788.821    15.381593    13.320868    27.506765    5636.0308 
   41500       41.487    327.56359    13.464412   -445.43484   -431.97043   -9925.6937   -2412.3284   -6850.3558   -20514.397    15.381595     13.32087    27.506748    5636.0289 
   42000       41.987    331.10623    13.610031   -445.56185   -431.95181   -9985.8284   -3808.5403   -5277.1598   -20871.785    15.381597    13.320872     27.50673    5636.0271 
   42500       42.487    330.65251    13.591381   -445.52396   -431.93258   -10679.293   -2772.8503   -2920.5429   -26344.484      15.3816    13.320874    27.506713    5636.0252 
   43000       42.987    316.46215     13.00809   -444.92139    -431.9133   -10983.617    -3312.811   -4522.2871   -25115.754    15.381602    13.320876    27.506695    5636.0233 
   43500       43.487    333.39758    13.704216   -445.59919   -431.89497   -10582.171   -2273.5716   -4183.9068   -25289.036    15.381604    13.320878    27.506678    5636.0215 
   44000       43.987    315.36288    12.962905   -444.83869   -431.87578   -9449.8392   -2325.9239   -2413.1337    -23610.46    15.381607     13.32088     27.50666    5636.0196 
   44500       44.487    328.45705    13.501137   -445.35819   -431.85705   -9543.2304    -2671.665   -5468.8975   -20489.129    15.381609    13.320882    27.506643    5636.0178 
   45000       44.987    328.74576    13.513004   -445.35159   -431.83858   -9671.2409   -2064.6664   -2281.0999   -24667.956    15.381611    13.320884    27.506625    5636.0159 
   45500       45.487    332.83528    13.681103   -445.50098   -431.81988   -10081.863   -357.25504   -4272.9199   -25615.416    15.381614    13.320886    27.506608    5636.0141 
   46000       45.987    337.65603    13.879259   -445.68087   -431.80161   -10774.082   -2198.6061   -3717.4317   -26406.208    15.381616    13.320889     27.50659    5636.0122 
   46500       46.487    316.00438    12.989274   -444.77196   -431.78269   -10098.581   -2073.9081   -3615.6462   -24606.188    15.381618    13.320891    27.506573    5636.0103 
   47000       46.987    348.01756    14.305167   -446.06976    -431.7646    -10691.24   -4794.5243   -3625.9383   -23653.257    15.381621    13.320893    27.506555    5636.0085 
   47500       47.487    334.13397    13.734485   -445.48031   -431.74583    -10329.05   -5231.5699   -4938.8685   -20816.713    15.381623    13.320895    27.506538    5636.0066 
   48000       47.987    337.80453    13.885363     -445.614   -431.72863   -9870.7121   -3867.3095   -1310.0824   -24434.744    15.381626    13.320897     27.50652    5636.0048 
   48500       48.487     328.4804    13.502097   -445.21219    -431.7101   -9810.5929    -570.7414   -4647.4276    -24213.61    15.381628    13.320899    27.506503    5636.0029 
   49000       48.987    343.46598    14.118075   -445.81078   -431.69271    -10483.65   -2545.0464   -5222.4716   -23683.431     15.38163    13.320901    27.506485    5636.0011 
   49500       49.487    317.71658    13.059653    -444.7338   -431.67414   -9465.5822   -2711.3111   -3787.2995   -21898.136    15.381633    13.320903    27.506468    5635.9992 
   50000       49.987    316.78438    13.021335   -444.67777   -431.65643   -10328.019   -3246.3868   -5335.7098   -22401.961    15.381635    13.320905     27.50645    5635.9973 
   50500       50.487    337.47401    13.871777   -445.51088    -431.6391   -10503.152   -2719.4926   -2593.7127    -26196.25    15.381637    13.320907    27.506433    5635.9955 
   51000       50.987    344.52007    14.161403   -445.78289   -431.62148   -9644.1274   -3856.7568   -3589.4982   -21486.127     15.38164    13.320909    27.506415    5635.9936 
   51500       51.487    316.47083    13.008447    -444.6119   -431.60345   -8749.4749    -2098.874   -1848.0197   -22301.531    15.381642    13.320911    27.506398    5635.9918 
   52000       51.987    342.10317    14.062057   -445.64873   -431.58667   -10959.975   -3506.7346   -6042.0437   -23331.145    15.381644    13.320913     27.50638    5635.9899 
   52500       52.487    326.17143    13.407187   -444.97618   -431.56899   -10552.921   -1742.3902   -4939.6612   -24976.712    15.381647    13.320915    27.506363    5635.9881 
   53000       52.987      339.381    13.950163   -445.50204   -431.55188   -10814.865   -3294.1914   -3592.4958   -25557.907    15.381649    13.320917    27.506345    5635.9862 
   53500       53.487    329.63539    13.549572   -445.08399   -431.53442   -10493.101   -3322.5903   -5853.1492   -22303.563    15.381651    13.320919    27.506328    5635.9843 
   54000       53.987    329.67934    13.551379   -445.06862   -431.51725   -8709.0604   -3277.3444   -2106.8364       -20743    15.381654    13.320921     27.50631    5635.9825 
   54500       54.487    339.25617    13.945032   -445.44555   -431.50052   -11069.032   -3502.2518    -4009.936   -25694.907    15.381656    13.320923    27.506293    5635.9806 
   55000       54.987    326.67542    13.427904   -444.91133   -431.48343   -10844.396   -1587.8468   -3264.4584   -27680.884    15.381658    13.320925    27.506275    5635.9788 
   55500       55.487    319.61991    13.137889   -444.60426   -431.46637   -9645.6325   -3045.4892   -6206.4299   -19684.978    15.381661    13.320927    27.506258    5635.9769 
   56000       55.987    337.41423     13.86932   -445.31945   -431.45013   -9901.3985   -2260.8604   -7113.7521   -20329.583    15.381663     13.32093     27.50624    5635.9751 
   56500       56.487    343.68783    14.127194   -445.56045   -431.43326   -9371.6252   -1966.5548   -5403.4933   -20744.828    15.381665    13.320932    27.506223    5635.9732 
   57000       56.987    325.29188    13.371034   -444.78754   -431.41651   -10848.241   -4572.9541   -4280.5853   -23691.185    15.381668    13.320934    27.506205    5635.9713 
   57500       57.487    336.45992    13.830093   -445.23012   -431.40003   -9926.2901   -2069.7856   -6899.2898   -20809.795     15.38167    13.320936    27.506188    5635.9695 
   58000       57.987    326.75775    13.431288   -444.81471   -431.38342   -9428.4474   -1692.2424   -4733.9146   -21859.185    15.381673    13.320938     27.50617    5635.9676 
   58500       58.487    317.67015    13.057745   -444.42522   -431.36748   -9320.8375   -2184.3531   -6856.0056   -18922.154    15.381675     13.32094    27.506153    5635.9658 
   59000       58.987    335.94687    13.809004   -445.16031    -431.3513   -10659.741   -2749.8311   -3524.0925   -25705.299    15.381677    13.320942    27.506135    5635.9639 
   59500       59.487    309.09385    12.705218   -444.03982    -431.3346   -7862.1303   -737.98416   -7299.7508   -15548.656     15.38168    13.320944    27.506118    5635.9621 
   60000       59.987    325.35352    13.373567   -444.69223   -431.31867   -9588.0462   -1585.0318   -4061.3115   -23117.795    15.381682    13.320946      27.5061    5635.9602 
   60500       60.487    340.37277    13.990929   -445.29353    -431.3026   -10224.884   -2222.5771   -5370.9965   -23081.077    15.381684    13.320948    27.506083    5635.9583 
   61000       60.987    345.46039    14.200055   -445.48672   -431.28666   -10400.212   -4762.9561   -4357.3494   -22080.331    15.381687     13.32095    27.506065    5635.9565 
   61500       61.487    317.74895    13.060984   -444.33119    -431.2702   -10282.611   -2328.0232   -3626.3832   -24893.428    15.381689    13.320952    27.506048    5635.9546 
   62000       61.987    341.27692    14.028094   -445.28247   -431.25437   -9469.9963   -1521.5245   -5497.2331   -21391.231    15.381691    13.320954     27.50603    5635.9528 
   62500       62.487    336.78162    13.843316   -445.08181   -431.23849   -9362.8712   -2791.4156   -5148.3682    -20148.83    15.381694    13.320956    27.506013    5635.9509 
   63000       62.987    322.79404    13.268361   -444.49095   -431.22259   -9749.0178   -2598.2579   -3052.3513   -23596.444    15.381696    13.320958    27.505995    5635.9491 
   63500       63.487    335.28762    13.781906   -444.98902   -431.20712   -10161.719   -2577.0133   -3556.2544    -24351.89    15.381698     13.32096    27.505978    5635.9472 
   64000       63.987    335.30923    13.782794   -444.97402   -431.19122   -10323.433   -2574.5231   -4589.9605   -23805.815    15.381701    13.320962     27.50596    5635.9453 
   64500       64.487    350.92573    14.424706   -445.60036   -431.17565   -10027.146    -4113.257   -4108.3833   -21859.797    15.381703    13.320964    27.505943    5635.9435 
   65000       64.987    342.52186    14.079267   -445.23915   -431.15988   -10450.718   -3996.5012   -4673.6211   -22682.031    15.381705    13.320966    27.505925    5635.9416 
   65500       65.487     327.0699    13.444119   -444.58824   -431.14412    -9763.775   -3271.7591   -7329.7261    -18689.84    15.381708    13.320968    27.505908    5635.9398 
   66000       65.987    337.37565    13.867734   -444.99628   -431.12854   -9334.8961   -1258.0776   -3292.2569   -23454.354     15.38171    13.320971     27.50589    5635.9379 
   66500       66.487    340.11069    13.980157   -445.09281   -431.11265   -9388.3303   -2525.7322   -5839.9994   -19799.259    15.381712    13.320973    27.505873    5635.9361 
   67000       66.987    330.05845    13.566962   -444.66384   -431.09688   -10117.031   -3052.6946   -5055.6546   -22242.743    15.381715    13.320975    27.505855    5635.9342 
   67500       67.487    338.52396    13.914935    -444.9963   -431.08137   -9375.9031   -1791.6312   -3752.4076   -22583.671    15.381717    13.320977    27.505838    5635.9323 
   68000       67.987    335.80207    13.803052   -444.86846   -431.06541   -10532.213   -3125.9044   -4803.2026   -23667.532     15.38172    13.320979     27.50582    5635.9305 
   68500       68.487    326.84804    13.434999   -444.48527   -431.05027   -10352.279    -2886.251   -4462.4609   -23708.126    15.381722    13.320981    27.505803    5635.9286 
   69000       68.987    349.04719    14.347489   -445.38192   -431.03443   -9911.1527   -1921.2937   -3879.6528   -23932.512    15.381724    13.320983    27.505785    5635.9268 
   69500       69.487    339.59432    13.958932   -444.97778   -431.01885   -9547.0349   -3578.5112   -6297.5274   -18765.066    15.381727    13.320985    27.505768    5635.9249 
   70000       69.987    341.38369    14.032483   -445.03561   -431.00312   -10687.864   -3651.0423   -6656.1275   -21756.422    15.381729    13.320987     27.50575    5635.9231 
   70500       70.487    314.10631    12.911254   -443.89817   -430.98691   -10152.446   -1680.5401   -5700.4707   -23076.326    15.381731    13.320989    27.505733    5635.9212 
   71000       70.987    331.95168    13.644783   -444.61575   -430.97097   -8736.4793   -1761.7104   -2618.8929   -21828.834    15.381734    13.320991    27.505715    5635.9193 
   71500       71.487    338.16781    13.900295   -444.85562   -430.95532   -9515.9583   -1752.3287   -3364.7722   -23430.774    15.381736    13.320993    27.505698    5635.9175 
   72000       71.987    327.63914    13.467517   -444.40687   -430.93935   -9487.5154   -1025.8679   -5076.8929   -22359.785    15.381738    13.320995     27.50568    5635.9156 
   72500       72.487    359.40078    14.773071   -445.69671   -430.92364   -9503.0973   -313.95566   -6326.4989   -21868.837    15.381741    13.320997    27.505663    5635.9138 
   73000       72.987    342.16153    14.064456   -444.97215   -430.90769   -10532.724   -1374.6729   -8064.0122   -22159.488    15.381743    13.320999    27.505645    5635.9119 
   73500       73.487    336.48685      13.8312    -444.7236    -430.8924   -9932.3804   -4492.6748   -4267.7053   -21036.761    15.381745    13.321001    27.505628    5635.9101 
   74000       73.987     347.1194    14.268248   -445.14451   -430.87626   -10863.342   -3677.6854   -4314.7252   -24597.615    15.381748    13.321003     27.50561    5635.9082 
   74500       74.487    319.15092    13.118611   -443.97823   -430.85962   -9065.9918   -1165.0081    -6022.641   -20010.326     15.38175    13.321005    27.505593    5635.9063 
   75000       74.987    344.52996     14.16181   -445.00555   -430.84374    -10321.03    -3584.267    -6863.967   -20514.857    15.381752    13.321007    27.505575    5635.9045 
   75500       75.487    322.60106    13.260428   -444.08739   -430.82696   -8809.2547   -1750.1557   -829.50853     -23848.1    15.381755    13.321009    27.505558    5635.9026 
   76000       75.987    317.11057    13.034743   -443.84553   -430.81078   -8376.0239    302.56725   -5425.7135   -20004.926    15.381757    13.321012     27.50554    5635.9008 
   76500       76.487    344.80274    14.173022   -444.96803   -430.79501   -9710.0992   -2347.2035   -2911.1388   -23871.955    15.381759    13.321014    27.505523    5635.8989 
   77000       76.987    340.30901    13.988308   -444.76742   -430.77911   -10399.788    -4366.009   -4836.3502   -21997.006    15.381762    13.321016    27.505505    5635.8971 
   77500       77.487    335.86067    13.805461   -444.56814   -430.76268   -9952.2026   -1360.8233   -5860.0126   -22635.772    15.381764    13.321018    27.505488    5635.8952 
   78000       77.987    335.81523    13.803593   -444.55022   -430.74663    -8908.199   -1888.6336   -2015.6778   -22820.286    15.381767     13.32102     27.50547    5635.8933 
   78500       78.487    349.27422    14.356821   -445.08699   -430.73017   -9355.4125   -1672.0477   -3906.6904     -22487.5    15.381769    13.321022    27.505453    5635.8915 
   79000       78.987    326.54831    13.422679   -444.13607   -430.71339   -9879.5875   -1769.0393   -4407.5264   -23462.197    15.381771    13.321024    27.505435    5635.8896 
   79500       79.487    344.87492    14.175989   -444.87357   -430.69758    -10059.02   -1203.2343   -6005.0588   -22968.768    15.381774    13.321026    27.505418    5635.8878 
   80000       79.987     332.3318    13.660408   -444.34086   -430.68046   -8538.5314   -1915.1605   -4801.3692   -18899.064    15.381776    13.321028      27.5054    5635.8859 
   80500       80.487    331.00085    13.605699   -444.26959   -430.66389   -10359.855   -2588.3544   -6991.1058   -21500.105    15.381778     13.32103    27.505383     5635.884 
   81000       80.987    327.15763    13.447725   -444.09496   -430.64723   -9197.3211    -2816.786   -3609.4651   -21165.712    15.381781    13.321032    27.505365    5635.8822 
   81500       81.487    332.59384    13.671179   -444.30214   -430.63096   -8843.2019   -1395.3405   -3850.2532   -21284.012    15.381783    13.321034    27.505348    5635.8803 
   82000       81.987      330.832    13.598759   -444.21237   -430.61361   -9628.0245   -3599.0425   -3945.9211    -21339.11    15.381785    13.321036     27.50533    5635.8785 
   82500       82.487    330.20326    13.572914   -444.16949   -430.59658   -9003.0532   -1557.5924   -6622.0318   -18829.535    15.381788    13.321038    27.505313    5635.8766 
   83000       82.987    331.70434    13.634616   -444.21405   -430.57944   -9423.4439    1771.6526   -6488.3289   -23553.656     15.38179     13.32104    27.505295    5635.8748 
   83500       83.487    333.36429    13.702848   -444.26526   -430.56241   -10056.397   -2254.9924   -2455.9687    -25458.23    15.381792    13.321042    27.505278    5635.8729 
   84000       83.987    342.94448    14.096639   -444.64185   -430.54521   -9680.0089   -3784.9207   -5941.7842   -19313.322    15.381795    13.321044     27.50526     5635.871 
   84500       84.487    341.98995    14.057403   -444.58508   -430.52768   -9354.1347   -3193.5395   -4815.4539   -20053.411    15.381797    13.321046    27.505243    5635.8692 
   85000       84.987    349.97913    14.385796   -444.89568   -430.50989   -10146.643   -1471.2584   -3007.5496   -25961.122    15.381799    13.321048    27.505225    5635.8673 
   85500       85.487    342.83556    14.092162   -444.58465   -430.49249   -10527.718    -5274.635    -2888.136   -23420.382    15.381802     13.32105    27.505208    5635.8655 
   86000       85.987    341.49092    14.036891   -444.51172   -430.47482   -9953.9536   -3333.3858   -2871.6519   -23656.823    15.381804    13.321053     27.50519    5635.8636 
   86500       86.487    368.08778    15.130147    -445.5874   -430.45725   -10304.799   -3777.4899    -4130.909   -23005.998    15.381806    13.321055    27.505173    5635.8618 
   87000       86.987    343.55837    14.121873   -444.56137    -430.4395    -8798.011   -1597.6439   -5787.1628   -19009.226    15.381809    13.321057    27.505155    5635.8599 
   87500       87.487    352.88567    14.505269   -444.92688   -430.42161   -9931.9227   -2733.8643   -5194.3258   -21867.578    15.381811    13.321059    27.505138     5635.858 
   88000       87.987    345.46242    14.200138   -444.60348   -430.40334   -9259.5474   -1076.7261   -5684.2398   -21017.676    15.381814    13.321061     27.50512    5635.8562 
   88500       88.487    348.26032    14.315145   -444.70083   -430.38569   -10524.212   -2640.4242   -2501.4411   -26430.771    15.381816    13.321063    27.505103    5635.8543 
   89000       88.987    343.71766     14.12842   -444.49602    -430.3676   -9724.3045   -1713.4361   -4889.3596   -22570.118    15.381818    13.321065    27.505085    5635.8525 
   89500       89.487    350.76082    14.417928   -444.76654   -430.34861   -9482.5264   -2868.2019   -3291.2014   -22288.176    15.381821    13.321067    27.505068    5635.8506 
   90000       89.987    350.61638     14.41199   -444.74249    -430.3305   -9028.1573   -2794.1846   -3382.7362   -20907.551    15.381823    13.321069     27.50505    5635.8488 
   90500       90.487    348.16587    14.311263   -444.62316    -430.3119   -8772.2059    338.87972   -6097.6787   -20557.819    15.381825    13.321071    27.505033    5635.8469 
   91000       90.987    349.74445     14.37615   -444.66918   -430.29303   -9008.8632   -1436.5124   -4380.0885   -21209.989    15.381828    13.321073    27.505015     5635.845 
   91500       91.487    335.59427    13.794511   -444.06854   -430.27403   -9340.0603   -3341.5759   -1747.5335   -22931.072     15.38183    13.321075    27.504998    5635.8432 
   92000       91.987    334.90802    13.766302   -444.02151   -430.25521   -9341.6234   -2815.7874   -3316.7145   -21892.368    15.381832    13.321077     27.50498    5635.8413 
   92500       92.487    347.05866    14.265751   -444.50236   -430.23661   -10089.963   -3030.3594   -5091.4748   -22148.056    15.381835    13.321079    27.504963    5635.8395 
   93000       92.987    323.62552    13.302538   -443.52028   -430.21774   -8840.7659   -1596.8361   -4876.8835   -20048.578    15.381837    13.321081    27.504945    5635.8376 
   93500       93.487    322.25936    13.246383   -443.44459    -430.1982   -8498.6583    -1950.554   -4272.9318   -19272.489    15.381839    13.321083    27.504928    5635.8358 
   94000       93.987    345.99597     14.22207   -444.40187    -430.1798   -9936.4054   -2381.7924    -4219.898   -23207.526    15.381842    13.321085     27.50491    5635.8339 
   94500       94.487    350.79035    14.419141   -444.57956   -430.16042   -9740.5938   -1367.3069   -3765.0714   -24089.403    15.381844    13.321087    27.504893     5635.832 
   95000       94.987    361.19934       14.847   -444.98809   -430.14109   -9948.5379   -3384.4166   -5092.6314   -21368.566    15.381846    13.321089    27.504875    5635.8302 
   95500       95.487    350.00705    14.386944    -444.5088   -430.12185    -8395.248   -2044.0977   -1111.0444   -22030.602    15.381849    13.321091    27.504858    5635.8283 
   96000       95.987    356.65352    14.660145   -444.76262   -430.10248   -9189.0322    -2222.284   -1989.2683   -23355.544    15.381851    13.321094     27.50484    5635.8265 
   96500       96.487     349.7501    14.376382   -444.45944   -430.08306   -9303.8574    -1394.234   -5185.2614   -21332.077    15.381853    13.321096    27.504823    5635.8246 
   97000       96.987    360.13783    14.803367   -444.86692   -430.06355   -8646.4094    973.81992   -4348.1383    -22564.91    15.381856    13.321098    27.504805    5635.8228 
   97500       97.487    339.95602    13.973799   -444.01769   -430.04389    -9189.903   -3243.9249   -3854.7876   -20470.997    15.381858      13.3211    27.504788    5635.8209 
   98000       97.987    346.50606    14.243037    -444.2672   -430.02417   -9477.9974   -1351.9461   -4272.5839   -22809.462    15.381861    13.321102     27.50477     5635.819 
   98500       98.487    348.47248    14.323866   -444.32809   -430.00423   -8733.5754   -226.15308   -5348.4584   -20626.115    15.381863    13.321104    27.504753    5635.8172 
   99000       98.987    356.44816    14.651704   -444.63606   -429.98435   -9289.0414    -1362.043   -5737.4852   -20767.596    15.381865    13.321106    27.504735    5635.8153 
   99500       99.487    360.96332    14.837299   -444.80184   -429.96454   -10391.704   -4190.5344   -2646.8695   -24337.707    15.381868    13.321108    27.504718    5635.8135 
  100000       99.987    341.69802    14.045403    -443.9897    -429.9443   -9322.2389   -2584.5681   -6237.7686    -19144.38     15.38187     13.32111      27.5047    5635.8116 
  100500      100.487    348.09197    14.308225   -444.23226   -429.92404   -8293.4261   -1157.7889   -3937.0772   -19785.412    15.381872    13.321112    27.504683    5635.8098 
  101000      100.987    370.71243    15.238033   -445.14161   -429.90357   -8698.0311    827.73409   -4024.0102   -22897.817    15.381875    13.321114    27.504665    5635.8079 
  101500      101.487    344.23036    14.149495   -444.03254   -429.88304   -8765.6754   -2896.7273   -3454.6291    -19945.67    15.381877    13.321116    27.504648     5635.806 
  102000      101.987    373.10416    15.336344   -445.19949   -429.86315   -9456.0593   -3508.7318   -4876.4883   -19982.958    15.381879    13.321118     27.50463    5635.8042 
  102500      102.487    358.74893    14.746276   -444.58838   -429.84211   -9311.0113   -2159.9702   -2144.8679   -23628.196    15.381882     13.32112    27.504613    5635.8023 
  103000      102.987    350.87957    14.422809   -444.24431    -429.8215   -7849.3523    -2223.349   -1478.6813   -19846.027    15.381884    13.321122    27.504595    5635.8005 
  103500      103.487    352.54782    14.491382   -444.29227   -429.80088   -9558.8554   -4700.0495   -3940.6985   -20035.818    15.381886    13.321124    27.504578    5635.7986 
  104000      103.987    350.19517    14.394677   -444.17469   -429.78001   -8663.9946    641.15966   -5346.3443   -21286.799    15.381889    13.321126     27.50456    5635.7967 
  104500      104.487    349.82032    14.379268   -444.13812   -429.75885   -9871.2381   -3377.0201   -4150.0853   -22086.609    15.381891    13.321128    27.504543    5635.7949 
  105000      104.987    347.58286    14.287298    -444.0254    -429.7381   -9373.3456   -3240.2195    -4598.006   -20281.811    15.381893     13.32113    27.504525     5635.793 
  105500      105.487    361.18806    14.846536   -444.56393    -429.7174   -9172.5748    -3032.125   -1805.2589    -22680.34    15.381896    13.321132    27.504508    5635.7912 
  106000      105.987    362.10986    14.884427     -444.581   -429.69658   -8557.5367    459.18525    -998.6718   -25133.123    15.381898    13.321135     27.50449    5635.7893 
  106500      106.487    336.43043    13.828881   -443.50401   -429.67513   -8866.4126    -1049.826    -2696.608   -22852.804      15.3819    13.321137    27.504473    5635.7875 
  107000      106.987    351.61816    14.453168   -444.10728   -429.65412   -9921.9691   -2896.0529   -4927.8894   -21941.965    15.381903    13.321139    27.504455    5635.7856 
  107500      107.487    358.58776    14.739652   -444.37332   -429.63367   -9750.7784   -684.74923   -7667.1924   -20900.393    15.381905    13.321141    27.504438    5635.7837 
  108000      107.987    349.12608    14.350732   -443.96291   -429.61218   -9575.3685    450.75567   -7696.6569   -21480.204    15.381908    13.321143     27.50442    5635.7819 
  108500      108.487    360.44353    14.815932    -444.4065   -429.59057   -9149.3567    233.30111   -5254.3396   -22427.032     15.38191    13.321145    27.504403      5635.78 
  109000      108.987    349.00827    14.345889   -443.91513   -429.56924   -9984.9306    -2263.122   -5429.0636   -22262.606    15.381912    13.321147    27.504385    5635.7782 
  109500      109.487    357.56365    14.697556   -444.24534   -429.54779   -9319.0132   -1009.7661   -5875.2616   -21072.012    15.381915    13.321149    27.504368    5635.7763 
  110000      109.987    366.31434    15.057251   -444.58349   -429.52624   -9314.9884   -544.27455   -5218.8687   -22181.822    15.381917    13.321151     27.50435    5635.7745 
  110500      110.487    361.11244    14.843428   -444.34779   -429.50436    -10226.37   -1610.5736   -4463.0587   -24605.476    15.381919    13.321153    27.504333    5635.7726 
  111000      110.987    344.28782    14.151857   -443.63421   -429.48235   -8123.1528   -1111.8989   -6725.3021   -16532.257    15.381922    13.321155    27.504315    5635.7707 
  111500      111.487    346.36964    14.237429   -443.69803    -429.4606   -10836.976   -2045.6016   -6971.7026   -23493.624    15.381924    13.321157    27.504298    5635.7689 
  112000      111.987    368.30686    15.139153   -444.57797   -429.43882   -9276.2702    -974.2913   -6033.7872   -20820.732    15.381926    13.321159     27.50428     5635.767 
  112500      112.487    364.82223    14.995918    -444.4128   -429.41688   -10016.435   -1088.7204   -7941.2324   -21019.352    15.381929    13.321161    27.504263    5635.7652 
  113000      112.987    379.89906    15.615647   -445.01118   -429.39554   -9046.0255    1419.4002   -8538.7143   -20018.763    15.381931    13.321163    27.504245    5635.7633 
  113500      113.487    372.98992    15.331649   -444.70526   -429.37361   -9411.0462   -361.65814   -3586.2688   -24285.212    15.381933    13.321165    27.504228    5635.7615 
  114000      113.987    341.67676     14.04453   -443.39555   -429.35102   -9484.8405    443.51131   -5769.3332     -23128.7    15.381936    13.321167     27.50421    5635.7596 
  114500      114.487    371.18368    15.257404   -444.58679   -429.32939   -10224.057   -1918.5395   -4943.6276   -23810.005    15.381938    13.321169    27.504193    5635.7577 
  115000      114.987    348.53294    14.326351    -443.6329   -429.30655   -8416.1848    962.07507   -5092.1847   -21118.445     15.38194    13.321171    27.504175    5635.7559 
  115500      115.487    372.60454    15.315808   -444.60064   -429.28483   -8756.1171   -869.65674   -5001.9965   -20396.698    15.381943    13.321173    27.504158     5635.754 
  116000      115.987    363.06742    14.923787   -444.18615   -429.26236   -9501.7296   -1851.9253   -4340.3872   -22312.876    15.381945    13.321176     27.50414    5635.7522 
  116500      116.487    355.44636    14.610525   -443.85052   -429.23999   -9400.8276   -1228.3767   -7986.2832   -18987.823    15.381947    13.321178    27.504123    5635.7503 
  117000      116.987    354.17013    14.558066   -443.77656    -429.2185   -9081.5711   -1495.4274   -5627.1141   -20122.172     15.38195     13.32118    27.504105    5635.7485 
  117500      117.487    359.63811    14.782826   -443.97905   -429.19622   -10246.514   -1335.0238   -8219.9731   -21184.546    15.381952    13.321182    27.504088    5635.7466 
  118000      117.987    363.35889    14.935767   -444.10883   -429.17307    -9059.144    -2971.477   -6404.2083   -17801.747    15.381955    13.321184     27.50407    5635.7447 
  118500      118.487    348.98791    14.345052    -443.4958   -429.15075   -9821.6538   -1595.1343    -5867.009   -22002.818    15.381957    13.321186    27.504053    5635.7429 
  119000      118.987    372.94783    15.329918    -444.4579   -429.12798   -9782.0766   -2693.3121   -6267.6312   -20385.286    15.381959    13.321188    27.504035     5635.741 
  119500      119.487     362.5394    14.902083   -444.00727   -429.10519   -9510.8725   -769.35945   -4081.6989   -23681.559    15.381962     13.32119    27.504018    5635.7392 
  120000      119.987    362.63092    14.905845   -443.98857   -429.08272   -10193.516    -3040.661   -4801.7904   -22738.098    15.381964    13.321192       27.504    5635.7373 
  120500      120.487    369.61608    15.192968   -444.25346   -429.06049    -10742.84   -1413.6341   -7148.6586   -23666.227    15.381966    13.321194    27.503983    5635.7354 
  121000      120.987    354.25429    14.561525   -443.59904   -429.03751   -9397.0226   -1036.7245   -7404.0857   -19750.258    15.381969    13.321196    27.503965    5635.7336 
  121500      121.487    353.07383    14.513003   -443.52792   -429.01492   -9408.7334    -2302.767   -3465.9998   -22457.433    15.381971    13.321198    27.503948    5635.7317 
  122000      121.987    342.84794    14.092671   -443.08435   -428.99168   -9448.1351    -1580.283   -5981.6527    -20782.47    15.381973      13.3212     27.50393    5635.7299 
  122500      122.487    359.92424    14.794587   -443.76402   -428.96943   -9288.2074   -2658.3662   -3916.5106   -21289.745    15.381976    13.321202    27.503913     5635.728 
  123000      122.987    370.24644    15.218879    -444.1649   -428.94602   -9775.9677   -365.78543   -5145.0777    -23817.04    15.381978    13.321204    27.503895    5635.7262 
  123500      123.487    361.03456    14.840227   -443.76395   -428.92373   -8350.5839    753.27454    -3504.462   -22300.564     15.38198    13.321206    27.503878    5635.7243 
  124000      123.987    381.77699    15.692839   -444.59378   -428.90094   -9325.3462   -2262.2326   -5160.9759    -20552.83    15.381983    13.321208     27.50386    5635.7224 
  124500      124.487    366.83406    15.078614   -443.95605   -428.87744   -9342.8389   -2545.4496   -4077.9154   -21405.152    15.381985     13.32121    27.503843    5635.7206 
  125000      124.987    369.37796     15.18318   -444.03759   -428.85441   -9628.7814   -348.64629   -5874.6603   -22663.037    15.381987    13.321212    27.503825    5635.7187 
  125500      125.487    364.42431    14.979562   -443.81125   -428.83169   -10047.293   -44.798763   -4786.7247   -25310.355     15.38199    13.321214    27.503808    5635.7169 
  126000      125.987    376.60174    15.480111   -444.28819   -428.80808   -8775.4518   -420.11428    -5374.123   -20532.118    15.381992    13.321217     27.50379     5635.715 
  126500      126.487    371.87069    15.285643   -444.07108   -428.78544   -8877.4855   -3120.3999   -6318.7173   -17193.339    15.381994    13.321219    27.503773    5635.7132 
  127000      126.987    348.00341    14.304585   -443.06669   -428.76211   -9315.5909   -2050.3827   -5008.8233   -20887.567    15.381997    13.321221    27.503755    5635.7113 
  127500      127.487    376.07686    15.458536    -444.1979   -428.73936   -9175.5223   -3290.3371   -5335.3817   -18900.848    15.381999    13.321223    27.503738    5635.7094 
  128000      127.987    365.32549    15.016604   -443.73246   -428.71585   -9481.6846    1376.0143   -5617.9988   -24203.069    15.382002    13.321225     27.50372    5635.7076 
  128500      128.487    356.67566    14.661055   -443.35339   -428.69233   -9088.3295   -1132.7593   -5608.7978   -20523.432    15.382004    13.321227    27.503703    5635.7057 
  129000      128.987    373.81641    15.365621   -444.03562   -428.66999   -9393.9749    -425.6367   -8794.9924   -18961.296    15.382006    13.321229    27.503685    5635.7039 
  129500      129.487    353.49616    14.530363   -443.17684   -428.64648   -8715.8162    255.79517   -4916.2429   -21487.001    15.382009    13.321231    27.503668     5635.702 
  130000      129.987    365.44081    15.021344   -443.64472   -428.62337   -8354.3697   -283.85911   -6888.6228   -17890.627    15.382011    13.321233     27.50365    5635.7002 
  130500      130.487    353.30843    14.522646   -443.12242   -428.59977   -9198.4601   -1661.0052   -5568.1949    -20366.18    15.382013    13.321235    27.503633    5635.6983 
  131000      130.987     361.2149     14.84764   -443.42393   -428.57629    -7987.986   -768.83542   -6555.2811   -16639.841    15.382016    13.321237    27.503615    5635.6964 
  131500      131.487    362.13517    14.885467    -443.4383   -428.55284   -8391.8554    1332.8784   -6543.3104   -19965.134    15.382018    13.321239    27.503598    5635.6946 
  132000      131.987    374.02515    15.374201   -443.90373   -428.52953   -9100.8738   -561.75259   -6678.6977   -20062.171     15.38202    13.321241     27.50358    5635.6927 
  132500      132.487    384.38093    15.799873   -444.30613   -428.50626      -9276.9     -63.8999   -6790.4346   -20976.366    15.382023    13.321243    27.503563    5635.6909 
  133000      132.987     367.3167    15.098453   -443.58102   -428.48257   -9488.8501   -2315.9378   -4863.5427    -21287.07    15.382025    13.321245    27.503545     5635.689 
  133500      133.487    371.90407    15.287015   -443.74649   -428.45947    -8153.383    726.73078   -5687.6262   -19499.254    15.382027    13.321247    27.503528    5635.6872 
  134000      133.987    359.28139    14.768163   -443.20451   -428.43635   -8066.0734   -911.61845   -6003.8862   -17282.715     15.38203    13.321249     27.50351    5635.6853 
  134500      134.487    352.00518    14.469077   -442.88218    -428.4131   -8601.3396   -1574.2865   -4433.3661   -19796.366    15.382032    13.321251    27.503493    5635.6834 
  135000      134.987    359.22998     14.76605   -443.15561   -428.38956   -9732.3956   -2480.1352   -2728.3772   -23988.674    15.382034    13.321253    27.503475    5635.6816 
  135500      135.487    358.48741    14.735527   -443.10078   -428.36525    -8645.007   -1370.5438   -5099.7403   -19464.737    15.382037    13.321255    27.503458    5635.6797 
  136000      135.987    370.38639    15.224631   -443.56697   -428.34234    -8366.526    811.13144   -6605.3359   -19305.373    15.382039    13.321258     27.50344    5635.6779 
  136500      136.487    389.69983    16.018505   -444.33708   -428.31857   -8512.0602   -432.45182   -5600.0685    -19503.66    15.382041     13.32126    27.503423     5635.676 
  137000      136.987    373.63049    15.357979   -443.65276   -428.29478   -8455.8339    1360.6243   -7594.2097   -19133.916    15.382044    13.321262    27.503405    5635.6741 
  137500      137.487    346.79444    14.254891   -442.52553   -428.27064   -8226.5137     162.8324   -6955.1192   -17887.254    15.382046    13.321264    27.503388    5635.6723 
  138000      137.987    365.46076    15.022164   -443.26933   -428.24717   -9534.9126   -1795.7722   -3869.9464   -22939.019    15.382049    13.321266     27.50337    5635.6704 
  138500      138.487    397.87685    16.354619   -444.57873   -428.22411   -9053.2028   -2699.9764   -3360.6396   -21098.992    15.382051    13.321268    27.503353    5635.6686 
  139000      138.987    345.89865    14.218069   -442.41739   -428.19932   -8211.3515     14.78837   -5893.1411   -18755.702    15.382053     13.32127    27.503335    5635.6667 
  139500      139.487    379.61476    15.603961   -443.78007   -428.17611   -8734.6221    1739.9521   -8078.7503   -19865.068    15.382056    13.321272    27.503318    5635.6649 
  140000      139.987    384.15553    15.790608   -443.94276   -428.15215   -8333.6603    161.76735   -5623.3497   -19539.399    15.382058    13.321274      27.5033     5635.663 
  140500      140.487    387.59915    15.932157   -444.06061   -428.12845   -10387.404   -1845.9389   -5624.9247   -23691.348     15.38206    13.321276    27.503283    5635.6611 
  141000      140.987    370.19456    15.216746   -443.32086   -428.10411   -7893.1286    193.83679   -3382.4151   -20490.808    15.382063    13.321278    27.503265    5635.6593 
  141500      141.487    376.33691    15.469226   -443.54925   -428.08002   -9025.3579    334.07577   -7089.8504   -20320.299    15.382065     13.32128    27.503248    5635.6574 
  142000      141.987    405.28098    16.658964   -444.71594   -428.05698   -9605.1501    -1462.853   -8610.1795   -18742.418    15.382067    13.321282     27.50323    5635.6556 
  142500      142.487    392.00961    16.113448   -444.14582   -428.03238   -8900.4933   -2883.9279   -4112.0108   -19705.541     15.38207    13.321284    27.503213    5635.6537 
  143000      142.987     372.6347    15.317047   -443.32501   -428.00796   -8935.8999    589.26973   -5442.2943   -21954.675    15.382072    13.321286    27.503195    5635.6519 
  143500      143.487    376.88648    15.491816   -443.47587   -427.98405   -10279.762   -2455.1871   -4361.2996     -24022.8    15.382074    13.321288    27.503178      5635.65 
  144000      143.987    364.91148    14.999586   -442.95966   -427.96008   -8860.2953   -3735.7599    -4120.426     -18724.7    15.382077     13.32129     27.50316    5635.6481 
  144500      144.487    342.99679    14.098789    -442.0343   -427.93551   -7679.7479    114.92297    -3909.196   -19244.971    15.382079    13.321292    27.503143    5635.6463 
  145000      144.987    374.47914    15.392863   -443.30443   -427.91157   -8276.5388   -251.25106   -5755.5867   -18822.779    15.382081    13.321294    27.503125    5635.6444 
  145500      145.487     363.9326     14.95935   -442.84666   -427.88731   -7856.9566    1820.8724   -4327.7375   -21064.005    15.382084    13.321296    27.503108    5635.6426 
  146000      145.987    373.11902    15.336955   -443.19997   -427.86302   -9019.0648     278.4874   -6218.2364   -21117.445    15.382086    13.321299     27.50309    5635.6407 
  146500      146.487    378.53504    15.559579    -443.3985   -427.83893   -8881.0084   -188.82384   -5118.7781   -21335.423    15.382088    13.321301    27.503073    5635.6389 
  147000      146.987    412.69572    16.963745   -444.77907   -427.81532   -8845.7687   -3018.8586   -4008.9626   -19509.485    15.382091    13.321303    27.503055     5635.637 
  147500      147.487    392.84814    16.147915    -443.9385   -427.79058   -9559.3835    841.00665   -6976.5396   -22542.617    15.382093    13.321305    27.503038    5635.6351 
  148000      147.987    371.04835    15.251841   -443.01755   -427.76571   -8387.3298    892.14245   -5871.1427   -20182.989    15.382096    13.321307     27.50302    5635.6333 
  148500      148.487    365.48377     15.02311   -442.76459   -427.74148    -7666.206    854.92714   -5033.1497   -18820.395    15.382098    13.321309    27.503003    5635.6314 
  149000      148.987    391.23852    16.081752   -443.79941   -427.71765   -9728.6941   -1802.1617    -8520.983   -18862.938      15.3821    13.321311    27.502985    5635.6296 
  149500      149.487    372.48476    15.310884   -443.00376   -427.69288   -7731.3403   -1578.8877   -5245.5696   -16369.564    15.382103    13.321313    27.502968    5635.6277 
  150000      149.987    376.43926    15.473433   -443.14208   -427.66865    -9047.657   -634.23743   -4913.3512   -21595.382    15.382105    13.321315     27.50295    5635.6258 
  150500      150.487    372.16529    15.297752   -442.94142   -427.64367   -8177.9187    899.24228    -7472.913   -17960.085    15.382107    13.321317    27.502933     5635.624 
  151000      150.987    389.28632    16.001508   -443.62148   -427.61997   -7957.2819    1324.5264   -6241.8996   -18954.472     15.38211    13.321319    27.502915    5635.6221 
  151500      151.487    363.10839    14.925471   -442.52086   -427.59539   -7052.2397    1251.8623   -5937.8517    -16470.73    15.382112    13.321321    27.502898    5635.6203 
  152000      151.987    387.22655    15.916841   -443.48765   -427.57081   -8809.8967   -1385.4428   -6785.8724   -18258.375    15.382114    13.321323     27.50288    5635.6184 
  152500      152.487    395.32428    16.249696   -443.79604   -427.54634   -9087.8154     408.7682   -5694.4452   -21977.769    15.382117    13.321325    27.502863    5635.6166 
  153000      152.987    374.57514    15.396809   -442.91847   -427.52166   -8570.7408   -1969.7247   -4241.6794   -19500.818    15.382119    13.321327    27.502845    5635.6147 
  153500      153.487    377.30762    15.509126   -443.00605   -427.49692   -7207.2148    1273.1063   -5277.1367   -17617.614    15.382121    13.321329    27.502828    5635.6128 
  154000      153.987    382.97084    15.741911   -443.21426   -427.47235   -8007.1536    763.36695   -6709.8084   -18075.019    15.382124    13.321331     27.50281     5635.611 
  154500      154.487    397.05122    16.320682   -443.76845   -427.44777   -6944.9494   -728.79036   -4327.7623   -15778.296    15.382126    13.321333    27.502793    5635.6091 
  155000      154.987     399.7532    16.431746   -443.85557   -427.42383   -9015.1711   -691.49796   -6460.8546   -19893.161    15.382128    13.321335    27.502775    5635.6073 
  155500      155.487    379.50128    15.599296    -442.9983   -427.39901   -7200.1144    151.14682   -2985.1754   -18766.315    15.382131    13.321337    27.502758    5635.6054 
  156000      155.987    395.97767    16.276554   -443.65058   -427.37403   -9052.6045   -251.29338   -6092.4474   -20814.073    15.382133     13.32134     27.50274    5635.6036 
  156500      156.487    380.81426    15.653266   -443.00234   -427.34907   -9939.7582   -46.748604    -5311.726     -24460.8    15.382135    13.321342    27.502723    5635.6017 
  157000      156.987    395.79084    16.268874    -443.5936   -427.32473   -8169.9602    427.04083   -5490.1296   -19446.792    15.382138    13.321344    27.502705    5635.5998 
  157500      157.487    390.25742    16.041424   -443.34131   -427.29988   -8742.9812    225.62998   -6214.0563   -20240.517     15.38214    13.321346    27.502688     5635.598 
  158000      157.987    374.09613    15.377119   -442.65231   -427.27519    -8617.518   -1660.1086   -3778.4974   -20413.948    15.382143    13.321348     27.50267    5635.5961 
  158500      158.487    389.72997    16.019744   -443.27028   -427.25053   -7696.8183    581.99107   -3240.6101   -20431.836    15.382145     13.32135    27.502653    5635.5943 
  159000      158.987    366.70828    15.073443   -442.29908   -427.22564   -6630.5925    254.91234   -3184.9875   -16961.702    15.382147    13.321352    27.502635    5635.5924 
  159500      159.487    392.87348    16.148957   -443.34997   -427.20101   -9213.2995   -2711.0958   -5413.6182   -19515.184     15.38215    13.321354    27.502618    5635.5906 
  160000      159.987     368.9906    15.167258   -442.34289   -427.17563   -7496.9238   -3350.7002   -2941.6509    -16198.42    15.382152    13.321356      27.5026    5635.5887 
  160500      160.487    405.22867    16.656814   -443.80816   -427.15135   -9982.3036   -971.08125    -6479.785   -22496.044    15.382154    13.321358    27.502583    5635.5868 
  161000      160.987    384.87941    15.820363   -442.94573   -427.12537   -7477.6039    160.53935   -4565.2146   -18028.137    15.382157     13.32136    27.502565     5635.585 
  161500      161.487    398.15258    16.365953    -443.4664   -427.10044   -9183.8616   -460.07346   -7584.2264   -19507.285    15.382159    13.321362    27.502548    5635.5831 
  162000      161.987    402.11315    16.528751   -443.60407   -427.07532   -9185.0049    119.79174    -3865.166    -23809.64    15.382161    13.321364     27.50253    5635.5813 
  162500      162.487    372.24698     15.30111   -442.35092   -427.04981   -7469.3839    1120.5285   -1822.8164   -21705.864    15.382164    13.321366    27.502513    5635.5794 
  163000      162.987    381.68236    15.688949   -442.71404   -427.02509   -8678.1325   -440.57854   -6051.2035   -19542.616    15.382166    13.321368    27.502495    5635.5775 
  163500      163.487    399.57113    16.424262   -443.42424   -426.99998   -6859.2078   -508.99215   -5544.0236   -14524.608    15.382168     13.32137    27.502478    5635.5757 
  164000      163.987    387.04352    15.909318   -442.88388   -426.97456   -9250.6418   -2376.2411   -4126.4312   -21249.253    15.382171    13.321372     27.50246    5635.5738 
  164500      164.487    381.90387    15.698054   -442.64734   -426.94929   -8487.1061     1773.641   -4485.6642   -22749.295    15.382173    13.321374    27.502443     5635.572 
  165000      164.987    379.35752    15.593387   -442.51748    -426.9241    -8036.631   -137.67117   -2841.2878   -21130.934    15.382175    13.321376    27.502425    5635.5701 
  165500      165.487    384.75954    15.815436   -442.71456   -426.89912   -7965.9787   -588.97989   -3487.9339   -19821.022    15.382178    13.321378    27.502408    5635.5683 
  166000      165.987    393.41222    16.171102   -443.04492   -426.87382    -8473.824    152.07433   -5622.9969   -19950.549     15.38218    13.321381     27.50239    5635.5664 
  166500      166.487    397.71065    16.347787   -443.19609    -426.8483   -8789.0294   -222.86114   -6475.5472    -19668.68    15.382182    13.321383    27.502373    5635.5645 
  167000      166.987    406.19928     16.69671   -443.52075   -426.82404   -9594.8308   -2791.2731   -3062.3662   -22930.853    15.382185    13.321385    27.502355    5635.5627 
  167500      167.487    387.96107    15.947034   -442.74445   -426.79741   -7076.1243    1371.0545   -5042.0931   -17557.334    15.382187    13.321387    27.502338    5635.5608 
  168000      167.987    384.74046    15.814651   -442.58699   -426.77234   -9178.0365    1218.8255   -5890.1303   -22862.805     15.38219    13.321389     27.50232     5635.559 
  168500      168.487    388.88203    15.984889     -442.732   -426.74712   -7167.6198   -512.63999   -5900.7823   -15089.437    15.382192    13.321391    27.502303    5635.5571 
  169000      168.987    398.67128    16.387274   -443.10931   -426.72203   -8777.6678    515.29789    -8319.977   -18528.324    15.382194    13.321393    27.502285    5635.5553 
  169500      169.487    388.17076    15.955653   -442.65166     -426.696   -7769.4868    2285.5369   -5433.9738   -20160.023    15.382197    13.321395    27.502268    5635.5534 
  170000      169.987    378.11403    15.542274   -442.21311   -426.67084   -8851.7361   -422.31578   -6508.0098   -19624.883    15.382199    13.321397     27.50225    5635.5515 
  170500      170.487    413.38891    16.992238   -443.63766   -426.64542   -9074.0088    -1444.553   -3249.6763   -22527.797    15.382201    13.321399    27.502233    5635.5497 
  171000      170.987    401.08286    16.486401   -443.10577   -426.61937   -9134.2988   -1442.9368   -6802.7766   -19157.183    15.382204    13.321401    27.502215    5635.5478 
  171500      171.487    393.43117     16.17188     -442.766   -426.59412   -6888.1569     681.0566   -2348.7261   -18996.801    15.382206    13.321403    27.502198     5635.546 
  172000      171.987    386.06306    15.869016    -442.4373   -426.56828   -8727.9745   -327.00076    -5608.106   -20248.817    15.382208    13.321405     27.50218    5635.5441 
  172500      172.487    380.03049    15.621049   -442.16377   -426.54272   -6414.5504    703.52722   -4057.7991   -15889.379    15.382211    13.321407    27.502163    5635.5423 
  173000      172.987    394.76329    16.226637   -442.74357   -426.51693   -9685.6828    3590.2304   -6176.5011   -26470.778    15.382213    13.321409    27.502145    5635.5404 
  173500      173.487    395.39275    16.252511   -442.74387   -426.49136   -8325.3067    774.42623   -3984.9934   -21765.353    15.382215    13.321411    27.502128    5635.5385 
  174000      173.987    385.31164    15.838129   -442.30362   -426.46549   -7112.6405    3190.4816   -6784.8779   -17743.525    15.382218    13.321413     27.50211    5635.5367 
  174500      174.487    400.25805    16.452498   -442.89258   -426.44008   -7401.8705    2584.5506   -4796.8851   -19993.277     15.38222    13.321415    27.502093    5635.5348 
  175000      174.987    383.03457    15.744531   -442.15824   -426.41371   -7229.1385     873.8352   -6475.9541   -16085.297    15.382222    13.321417    27.502075     5635.533 
  175500      175.487    415.45712    17.077251   -443.46502   -426.38777   -8974.1032   -955.74586   -3915.3271   -22051.237    15.382225    13.321419    27.502058    5635.5311 
  176000      175.987    377.54977     15.51908   -441.88116   -426.36208   -7156.1409    1103.3053    -1897.884   -20673.844    15.382227    13.321422     27.50204    5635.5292 
  176500      176.487    387.27264    15.918736   -442.25483   -426.33609   -9331.2951   -3261.0987   -4005.6798   -20727.107    15.382229    13.321424    27.502023    5635.5274 
  177000      176.987    399.31738    16.413831   -442.72438   -426.31054   -9015.2627   -1214.3822   -4798.4835   -21032.923    15.382232    13.321426    27.502005    5635.5255 
  177500      177.487     397.9678    16.358357    -442.6431   -426.28474   -8707.3341     1112.194   -7762.2931   -19471.903    15.382234    13.321428    27.501988    5635.5237 
  178000      177.987    410.94772    16.891894   -443.15048   -426.25859   -7285.0239    1956.5431   -5509.1775   -18302.437    15.382237     13.32143     27.50197    5635.5218 
  178500      178.487    401.62755     16.50879   -442.74176   -426.23297   -7414.4721     96.84125   -4130.4848   -18209.773    15.382239    13.321432    27.501953      5635.52 
  179000      178.987    377.11752    15.501312   -441.70793   -426.20662   -8299.1293   -1322.4403   -1387.0289   -22187.919    15.382241    13.321434    27.501935    5635.5181 
  179500      179.487    363.79272      14.9536   -441.13424   -426.18064   -7406.3971    258.89842   -2794.6607   -19683.429    15.382244    13.321436    27.501918    5635.5162 
  180000      179.987    392.62415    16.138708   -442.29369   -426.15498   -6946.0315   -871.89207   -2493.9081   -17472.294    15.382246    13.321438      27.5019    5635.5144 
  180500      180.487    406.79847     16.72134   -442.85123   -426.12989   -8188.7024   -306.55594   -2227.5526   -22031.999    15.382248     13.32144    27.501883    5635.5125 
  181000      180.987    387.73584    15.937775   -442.04084   -426.10306   -6520.5659   -2628.8235    1371.5892   -18304.464    15.382251    13.321442    27.501865    5635.5107 
  181500      181.487    407.55284    16.752348   -442.82966   -426.07731   -8926.8112   -4228.3782   -408.09676   -22143.959    15.382253    13.321444    27.501848    5635.5088 
  182000      181.987    403.79972    16.598077   -442.64919   -426.05112    -7676.805   -266.14811   -339.46404   -22424.803    15.382255    13.321446     27.50183     5635.507 
  182500      182.487    400.12726    16.447122   -442.47211   -426.02499   -8729.0387   -2909.0655   -2306.7889   -20971.262    15.382258    13.321448    27.501813    5635.5051 
  183000      182.987    422.27321    17.357425   -443.35696   -425.99954   -8816.2202   -1154.5928   -2440.0024   -22854.066     15.38226     13.32145    27.501795    5635.5032 
  183500      183.487    400.55858    16.464851   -442.43738   -425.97253   -9199.0167   -2493.5371   -5043.3166   -20060.196    15.382262    13.321452    27.501778    5635.5014 
  184000      183.987    402.07484    16.527176   -442.47381   -425.94663    -8381.743     -3471.12   -4970.0585    -16704.05    15.382265    13.321454     27.50176    5635.4995 
  184500      184.487    387.28245    15.919139    -441.8395   -425.92037   -6894.3337   -679.78966   -912.39447   -19090.817    15.382267    13.321456    27.501743    5635.4977 
  185000      184.987    405.84076    16.681973   -442.57671   -425.89474   -7955.4861   -1100.0765   -2113.2022    -20653.18    15.382269    13.321458    27.501725    5635.4958 
  185500      185.487    406.42766    16.706098   -442.57412   -425.86802   -8167.5368   -3021.5383   -1449.0807   -20031.992    15.382272     13.32146    27.501708    5635.4939 
  186000      185.987    402.15805    16.530597   -442.37324   -425.84264   -7218.5819   -1867.6148   -3043.0474   -16745.084    15.382274    13.321463     27.50169    5635.4921 
  186500      186.487    411.72471    16.923831   -442.73967   -425.81584   -7101.0622   -1343.5938   -2853.6619   -17105.931    15.382276    13.321465    27.501673    5635.4902 
  187000      186.987    389.80035    16.022637   -441.81185   -425.78921   -6568.6033    -712.1737   -2821.7613   -16171.875    15.382279    13.321467    27.501655    5635.4884 
  187500      187.487    403.06005    16.567673   -442.33075   -425.76308   -8392.1265   -2270.3503   -1058.7777   -21847.252    15.382281    13.321469    27.501638    5635.4865 
  188000      187.987     408.4554    16.789447   -442.52606   -425.73661    -6642.006   -981.36878   -3118.9892    -15825.66    15.382284    13.321471     27.50162    5635.4847 
  188500      188.487    378.31353    15.550474   -441.26005   -425.70958   -7256.8885    -1644.887   -2327.8054   -17797.973    15.382286    13.321473    27.501603    5635.4828 
  189000      188.987    420.34557     17.27819   -442.96178   -425.68359   -7195.7568   -1847.7679   -586.75214   -19152.751    15.382288    13.321475    27.501585    5635.4809 
  189500      189.487    401.31855    16.496089   -442.15268   -425.65659   -8508.8881   -3812.9538     -2091.33   -19622.381    15.382291    13.321477    27.501568    5635.4791 
  190000      189.987    391.82345    16.105796   -441.73612   -425.63032   -7352.3896   -70.680943   -4523.9135   -17462.574    15.382293    13.321479     27.50155    5635.4772 
  190500      190.487    412.71108    16.964376   -442.56885   -425.60448   -6934.9054   -2679.8231   -1151.8456   -16973.047    15.382295    13.321481    27.501533    5635.4754 
  191000      190.987    384.53132    15.806055   -441.38361   -425.57755   -5886.2642    101.71315    -2014.381   -15746.125    15.382298    13.321483    27.501515    5635.4735 
  191500      191.487    410.03412     16.85434   -442.40599   -425.55165   -8094.4915   -18.281163   -6084.7934     -18180.4      15.3823    13.321485    27.501498    5635.4717 
  192000      191.987     424.7051    17.457387   -442.98288   -425.52549   -8307.6446   -3130.7837    -1615.342   -20176.808    15.382302    13.321487     27.50148    5635.4698 
  192500      192.487    402.41258    16.541059    -442.0391   -425.49804   -8294.0945   -2882.1429   -2395.0305    -19605.11    15.382305    13.321489    27.501463    5635.4679 
  193000      192.987    430.63962    17.701324    -443.1735   -425.47218   -8082.3596   -4318.8762    390.38396   -20318.587    15.382307    13.321491    27.501445    5635.4661 
  193500      193.487    394.02645    16.196349   -441.64117   -425.44482   -6324.1658    385.69252   -1773.3049   -17584.885    15.382309    13.321493    27.501428    5635.4642 
  194000      193.987    396.52068    16.298874   -441.71667    -425.4178   -6762.7511    163.34299    -3964.843   -16486.753    15.382312    13.321495     27.50141    5635.4624 
  194500      194.487    424.47118    17.447772   -442.84003   -425.39226   -8698.1017   -3277.7075   -4669.1449   -18147.453    15.382314    13.321497    27.501393    5635.4605 
  195000      194.987    421.16678    17.311945   -442.67765   -425.36571   -7507.1605   -732.34111   -4789.5564   -16999.584    15.382316    13.321499    27.501375    5635.4587 
  195500      195.487    413.63602    17.002395   -442.34107   -425.33868   -8731.6247   -5020.6335   -1709.5553   -19464.685    15.382319    13.321501    27.501358    5635.4568 
  196000      195.987    418.36154    17.196637   -442.50883   -425.31219   -7968.3082   -506.50283    -1398.417   -22000.005    15.382321    13.321504     27.50134    5635.4549 
  196500      196.487    419.86311    17.258358   -442.54382   -425.28546   -8376.2098    -4946.763   -703.35957   -19478.507    15.382323    13.321506    27.501323    5635.4531 
  197000      196.987    413.84563    17.011011   -442.27034   -425.25933   -7595.9387   -4533.8467   -209.57087   -18044.399    15.382326    13.321508    27.501305    5635.4512 
  197500      197.487    417.58467    17.164703   -442.39707   -425.23237   -7147.1855   -2565.2662   -2484.7109   -16391.579    15.382328     13.32151    27.501288    5635.4494 
  198000      197.987    398.23627    16.369393   -441.57493   -425.20554    -7728.565   -2394.9119   -1411.3343   -19379.449    15.382331    13.321512     27.50127    5635.4475 
  198500      198.487    390.72812    16.060772   -441.23904   -425.17827   -6928.4513   -1269.2209    881.70671    -20397.84    15.382333    13.321514    27.501253    5635.4456 
  199000      198.987    397.79678    16.351328   -441.50325   -425.15192   -7613.4012   -1227.2884   -2409.3319   -19203.583    15.382335    13.321516    27.501235    5635.4438 
  199500      199.487    427.56849    17.575086   -442.70037   -425.12528   -7981.6452   -1125.5125   -3766.8515   -19052.572    15.382338    13.321518    27.501218    5635.4419 
  200000      199.987    430.30131    17.687418    -442.7863   -425.09888   -6839.4124   -1597.5001   -855.20765    -18065.53     15.38234     13.32152      27.5012    5635.4401 
  200500      200.487    427.25706    17.562284    -442.6344   -425.07211    -7112.732    -551.4562    774.73275   -21561.473    15.382342    13.321522    27.501183    5635.4382 
  201000      200.987    432.13076    17.762616   -442.80746   -425.04484   -9159.1738   -3677.1143   -4844.1708   -18956.236    15.382345    13.321524    27.501165    5635.4364 
  201500      201.487    419.85892    17.258186   -442.27623   -425.01804   -5794.4543    191.02575   -4129.5996   -13444.789    15.382347    13.321526    27.501148    5635.4345 
  202000      201.987    390.34224    16.044911   -441.03563   -424.99072   -6559.2297   -4.3870144   -1721.9313   -17951.371    15.382349    13.321528     27.50113    5635.4326 
  202500      202.487    398.91402    16.397251   -441.36141   -424.96416   -6470.4759   -2926.1168   -658.30954   -15827.001    15.382352     13.32153    27.501113    5635.4308 
  203000      202.987    397.02159    16.319464   -441.25711   -424.93764   -7362.8003   -4007.0492    1494.2295   -19575.581    15.382354    13.321532    27.501095    5635.4289 
  203500      203.487    425.74566    17.500159   -442.41113   -424.91097   -7518.3893   -738.37774   -1684.2118   -20132.578    15.382356    13.321534    27.501078    5635.4271 
  204000      203.987    442.53032    18.190088   -443.07436   -424.88427   -8971.1541   -5880.3308   -5035.4001   -15997.731    15.382359    13.321536     27.50106    5635.4252 
  204500      204.487    388.84125    15.983213   -440.83899   -424.85577   -5449.7551   -77.593697   -889.68659   -15381.985    15.382361    13.321538    27.501043    5635.4234 
  205000      204.987    393.28583    16.165906   -440.99525   -424.82934   -8212.5343   -1122.1073   -2415.5008   -21099.995    15.382363     13.32154    27.501025    5635.4215 
  205500      205.487     405.0805    16.650723   -441.45329   -424.80257   -6980.3068    3047.9755   -2904.1128   -21084.783    15.382366    13.321542    27.501008    5635.4196 
  206000      205.987    420.85059    17.298948    -442.0743   -424.77535   -6453.0288   -1122.5374   -587.69863    -17648.85    15.382368    13.321545     27.50099    5635.4178 
  206500      206.487    407.40947    16.746455   -441.49454   -424.74808   -7970.3492   -3112.8698   -2165.0078    -18633.17     15.38237    13.321547    27.500973    5635.4159 
  207000      206.987    417.10921     17.14516   -441.86656    -424.7214   -7104.7969   -2462.7997   -1840.4399   -17011.151    15.382373    13.321549    27.500955    5635.4141 
  207500      207.487    386.99451    15.907303   -440.60157   -424.69427   -5329.4064    1149.3975    90.995122   -17228.612    15.382375    13.321551    27.500938    5635.4122 
  208000      207.987    429.89818    17.670847   -442.33793   -424.66709   -8006.1434   -883.54676   -4838.5506   -18296.333    15.382378    13.321553     27.50092    5635.4103 
  208500      208.487    425.32321    17.482794   -442.12322   -424.64042   -8036.0217   -1140.1382    -1690.289   -21277.638     15.38238    13.321555    27.500903    5635.4085 
  209000      208.987    423.94004    17.425939   -442.03891   -424.61297    -6770.498   -4095.2987    1691.8634   -17908.059    15.382382    13.321557    27.500885    5635.4066 
  209500      209.487    421.94313    17.343857   -441.92939   -424.58553   -8859.0728   -2136.6943   -3363.0325   -21077.492    15.382385    13.321559    27.500868    5635.4048 
  210000      209.987    420.52909    17.285733   -441.84445   -424.55872   -7099.2481   -2089.8995   -2272.7612   -16935.084    15.382387    13.321561     27.50085    5635.4029 
  210500      210.487    424.39174    17.444506    -441.9758    -424.5313   -6880.1907   -1973.8079   -727.44174   -17939.322    15.382389    13.321563    27.500833    5635.4011 
  211000      210.987    412.15287    16.941431   -441.44481   -424.50338   -7175.0849    940.27721   -4807.2284   -17658.304    15.382392    13.321565    27.500815    5635.3992 
  211500      211.487    450.02637    18.498211   -442.97459   -424.47638   -8719.3453   -5028.7155   -1457.2769   -19672.044    15.382394    13.321567    27.500798    5635.3973 
  212000      211.987    424.60517    17.453279   -441.90222   -424.44894   -7917.8387   -2361.4446   -444.20604   -20947.865    15.382396    13.321569     27.50078    5635.3955 
[...]
  948500      948.487    564.31198    23.195889   -436.43984   -413.24395   -2256.8842    2544.6531    3979.9804   -13295.286    15.385858    13.324589    27.475003    5632.6567 
  949000      948.987    571.63161    23.496761   -436.73642   -413.23965   -2402.6235    512.29466    385.43297   -8105.5981     15.38586    13.324591    27.474985    5632.6548 
  949500      949.487    577.36552    23.732452   -436.96974   -413.23729   -1860.9845    4170.9066     3650.973   -13404.833    15.385863    13.324593    27.474968    5632.6529 
  950000      949.987    592.79368    24.366622   -437.60056   -413.23393   -1867.0985    3851.5846    3989.5455   -13442.426    15.385865    13.324595     27.47495    5632.6511 
  950500      950.487    569.89135    23.425228   -436.65443   -413.22921   -474.36908    2843.2101    3768.9037   -8035.2211    15.385867    13.324597    27.474933    5632.6492 
  951000      950.987    544.23424    22.370599   -435.59596   -413.22536   -398.51144    1716.7388    5155.6215   -8067.8946     15.38587    13.324599    27.474915    5632.6474 
  951500      951.487    586.65435    24.114266   -437.33639   -413.22212    -3620.212   -292.94362    1998.1962   -12565.889    15.385872    13.324601    27.474898    5632.6455 
  952000      951.987    580.16389    23.847478    -437.0669   -413.21943   -2486.4623    2220.3491    2187.5981   -11867.334    15.385874    13.324603     27.47488    5632.6436 
  952500      952.487    557.31422    22.908248   -436.12234    -413.2141   -792.62007    3732.2589    6244.6117   -12354.731    15.385877    13.324605    27.474863    5632.6418 
  953000      952.987    542.30322    22.291225   -435.50076   -413.20953   -1295.3297    2251.5949    8478.5398   -14616.124    15.385879    13.324607    27.474845    5632.6399 
  953500      953.487    566.32372    23.278582   -436.48496   -413.20637   -3179.9446    405.72039    5180.7265   -15126.281    15.385881    13.324609    27.474828    5632.6381 
  954000      953.987    561.13631    23.065354   -436.26588   -413.20052   -3055.7194   -2213.7267    4919.8457   -11873.277    15.385884    13.324611     27.47481    5632.6362 
  954500      954.487    604.03471    24.828682   -438.02534   -413.19666    -3679.002    3442.3157    1903.2868   -16382.608    15.385886    13.324613    27.474793    5632.6343 
  955000      954.987    573.53286    23.574911   -436.76731    -413.1924   -1473.5699     631.2211    4566.6649   -9618.5957    15.385888    13.324615    27.474775    5632.6325 
  955500      955.487    543.22898    22.329278   -435.51746   -413.18818   -369.56966    2745.3665    8715.2647    -12569.34    15.385891    13.324617    27.474758    5632.6306 
  956000      955.987    509.69991    20.951075   -434.13278    -413.1817   -894.79929    1713.0308    6223.1173   -10620.546    15.385893     13.32462     27.47474    5632.6288 
  956500      956.487    533.76232    21.940154   -435.11774   -413.17759   -304.91836    2507.3962     5949.684   -9371.8353    15.385895    13.324622    27.474723    5632.6269 
  957000      956.987    552.51615    22.711025   -435.88584   -413.17481   -1916.8678     346.1395    1601.3252   -7698.0681    15.385898    13.324624    27.474705     5632.625 
  957500      957.487    566.75469    23.296296   -436.46556   -413.16926   -3445.4255    2054.8117    1306.5635   -13697.652      15.3859    13.324626    27.474688    5632.6232 
  958000      957.987    578.44544    23.776841   -436.94206   -413.16521    -994.4882    2391.1737    3449.3485   -8823.9867    15.385903    13.324628     27.47467    5632.6213 
  958500      958.487    523.78551     21.53006   -434.68976    -413.1597   -585.48028    2119.3499    3661.3223   -7537.1131    15.385905     13.32463    27.474653    5632.6194 
  959000      958.987    562.08378      23.1043   -436.26047   -413.15617    -1887.421    2550.8942    3363.9173   -11577.074    15.385907    13.324632    27.474635    5632.6176 
  959500      959.487    589.52526    24.232274   -437.38311   -413.15084   -2623.6401    305.26875    3197.7222   -11373.911     15.38591    13.324634    27.474618    5632.6157 
  960000      959.987    553.34406    22.745056   -435.89084   -413.14578    -2346.435    3573.1386    3165.7033   -13778.147    15.385912    13.324636      27.4746    5632.6139 
  960500      960.487    569.38655    23.404478   -436.54589   -413.14141   -1830.4241    2184.7363    1716.0881   -9392.0968    15.385914    13.324638    27.474583     5632.612 
  961000      960.987    569.91379     23.42615   -436.56268   -413.13653   -2003.3128    4678.3611    3934.9471   -14623.247    15.385917     13.32464    27.474565    5632.6101 
  961500      961.487    589.45039    24.229197   -437.35875   -413.12955    -2496.108    3228.6083    403.23994   -11120.172    15.385919    13.324642    27.474548    5632.6083 
  962000      961.987    567.13434    23.311902   -436.43425   -413.12235   -622.12424     1886.018    3206.2649   -6958.6557    15.385921    13.324644     27.47453    5632.6064 
  962500      962.487    566.31771    23.278334   -436.39734   -413.11901    -2560.447    -46.14509    4170.2521   -11805.448    15.385924    13.324646    27.474513    5632.6046 
  963000      962.987    570.57885    23.453487   -436.56748   -413.11399   -2386.0706     1999.028    5125.7829   -14283.023    15.385926    13.324648    27.474495    5632.6027 
  963500      963.487    580.46568    23.859883    -436.9682   -413.10831   -2703.0638   -2871.2087    3093.0331    -8331.016    15.385928     13.32465    27.474478    5632.6008 
  964000      963.987    573.11345    23.557671   -436.65995   -413.10228   -1458.1672    1707.6169    1704.2276   -7786.3461    15.385931    13.324652     27.47446     5632.599 
  964500      964.487    548.57975     22.54922   -435.64591   -413.09669   -1750.8147    1798.3159    2517.1531   -9567.9131    15.385933    13.324654    27.474443    5632.5971 
  965000      964.987    565.71117    23.253403   -436.34529   -413.09189   -1264.4616    2403.5801    1787.9453   -7984.9103    15.385935    13.324656    27.474425    5632.5953 
  965500      965.487    604.80844    24.860485   -437.94695   -413.08646   -3291.5308    1476.5411    6133.6019   -17484.735    15.385938    13.324658    27.474408    5632.5934 
  966000      965.987     543.1203    22.324811   -435.40547   -413.08066   -1343.8113    3437.4876    6865.9556   -14334.877     15.38594    13.324661     27.47439    5632.5915 
  966500      966.487    574.33521    23.607891   -436.68343   -413.07554   -2577.6227     2037.898    2318.5734   -12089.339    15.385942    13.324663    27.474373    5632.5897 
  967000      966.987     587.2958    24.140633   -437.20916   -413.06852   -2473.6314    2192.2081    3863.2381    -13476.34    15.385945    13.324665    27.474355    5632.5878 
  967500      967.487    582.51355     23.94406   -437.00702   -413.06296   -1845.6871    4084.1227    5032.1206   -14653.305    15.385947    13.324667    27.474338     5632.586 
  968000      967.987    556.24868     22.86445   -435.92065    -413.0562   -1742.8795   -1480.7786    8651.9787   -12399.839     15.38595    13.324669     27.47432    5632.5841 
  968500      968.487     564.3158    23.196046   -436.24675    -413.0507   -3592.8744   -2592.8872     818.2391   -9003.9752    15.385952    13.324671    27.474303    5632.5822 
  969000      968.987    566.86638    23.300887    -436.3453   -413.04441    -3140.804    1328.2683    3457.9858   -14208.666    15.385954    13.324673    27.474285    5632.5804 
  969500      969.487    587.73177    24.158553   -437.19691   -413.03836   -646.60087    3599.7151    4901.5382   -10441.056    15.385957    13.324675    27.474268    5632.5785 
  970000      969.987    550.64489    22.634107   -435.66507   -413.03096   -1410.1184    2669.2727    858.85656   -7758.4844    15.385959    13.324677     27.47425    5632.5767 
  970500      970.487    532.40366    21.884307    -434.9084   -413.02409   -686.66294    5698.1926    5008.3182     -12766.5    15.385961    13.324679    27.474233    5632.5748 
  971000      970.987    580.91449    23.878331   -436.89704   -413.01871   -813.68142    2191.4822    3593.0014   -8225.5279    15.385964    13.324681    27.474215    5632.5729 
  971500      971.487    592.56435    24.357195   -437.37019   -413.01299   -3434.4621    1343.6739    1519.2269   -13166.287    15.385966    13.324683    27.474198    5632.5711 
  972000      971.987    559.86657    23.013162   -436.01852   -413.00536   -971.70744    3828.5002    2013.7718   -8757.3942    15.385968    13.324685     27.47418    5632.5692 
  972500      972.487    532.92525    21.905746   -434.90483   -412.99909   -1279.9463    226.12015    5451.5908     -9517.55    15.385971    13.324687    27.474163    5632.5673 
  973000      972.987    586.30043    24.099719   -437.09289   -412.99317   -2463.7591    1447.2619    1888.7009    -10727.24    15.385973    13.324689    27.474145    5632.5655 
  973500      973.487    581.91605      23.9195   -436.90546   -412.98596   -773.33647    6339.7386    1508.3472   -10168.095    15.385975    13.324691    27.474128    5632.5636 
  974000      973.987    566.07203    23.268236   -436.24808   -412.97984    307.21438    6463.8414    2299.4638    -7841.662    15.385978    13.324693     27.47411    5632.5618 
  974500      974.487    597.22516    24.548776   -437.52167   -412.97289   -1666.5127     2526.549    5826.4574   -13352.544     15.38598    13.324695    27.474093    5632.5599 
  975000      974.987    579.70545    23.828634   -436.79454   -412.96591    -2487.691    1565.3384    3272.4494   -12300.861    15.385982    13.324697    27.474075     5632.558 
  975500      975.487    570.62394    23.455341   -436.41477   -412.95943     -2576.81    3794.9649    3567.5319   -15092.927    15.385985    13.324699    27.474058    5632.5562 
  976000      975.987    565.54844    23.246714   -436.19746   -412.95074    -592.0812    1522.1961    5481.7315   -8780.1712    15.385987    13.324702     27.47404    5632.5543 
  976500      976.487     612.0789    25.159336   -438.10409   -412.94476   -3648.1353    4084.5026   -1617.8946   -13411.014    15.385989    13.324704    27.474023    5632.5525 
  977000      976.987    573.18662    23.560679   -436.49755   -412.93687   -1656.5361    5282.6499    2889.3585   -13141.617    15.385992    13.324706    27.474005    5632.5506 
  977500      977.487    585.05274    24.048433   -436.97857   -412.93014    -2002.694    1426.0635    2804.5853   -10238.731    15.385994    13.324708    27.473988    5632.5487 
  978000      977.987    561.33535    23.073536   -435.99621   -412.92267   -1296.4128    1109.3137     2101.264   -7099.8161    15.385997     13.32471     27.47397    5632.5469 
  978500      978.487    553.31356    22.743802   -435.65939   -412.91559   -1097.9594    2453.8042    3589.5966   -9337.2791    15.385999    13.324712    27.473953     5632.545 
  979000      978.987     590.8167    24.285359   -437.19465   -412.90929   -2618.4302    1551.1696    561.01759   -9967.4779    15.386001    13.324714    27.473935    5632.5432 
  979500      979.487    546.41742    22.460338   -435.36044    -412.9001   -502.58433    1692.2983    6691.3836   -9891.4349    15.386004    13.324716    27.473918    5632.5413 
  980000      979.987     564.3119    23.195886   -436.08922   -412.89333   -246.37744    3097.4617    3489.5514   -7326.1454    15.386006    13.324718      27.4739    5632.5394 
  980500      980.487    572.19828    23.520054   -436.40549   -412.88544   -2697.8968    746.56653     4236.884   -13077.141    15.386008     13.32472    27.473883    5632.5376 
  981000      980.987    554.00553    22.772245   -435.64777   -412.87552   -466.34319    1686.3099    5695.4728   -8780.8123    15.386011    13.324722    27.473865    5632.5357 
  981500      981.487    547.78242    22.516446   -435.38589   -412.86944   -1081.5066    3793.8023    2803.6941   -9842.0162    15.386013    13.324724    27.473848    5632.5339 
  982000      981.987    569.95595    23.427883   -436.28889   -412.86101   -2208.4257    994.92203    5713.1305    -13333.33    15.386015    13.324726     27.47383     5632.532 
  982500      982.487    572.98958     23.55258   -436.40743   -412.85485   -1171.1811    4887.3592     1110.637   -9511.5396    15.386018    13.324728    27.473813    5632.5301 
  983000      982.987    589.04022    24.212337   -437.05922   -412.84688   -511.15881    1311.5245     4110.484   -6955.4849     15.38602     13.32473    27.473795    5632.5283 
  983500      983.487    547.34918    22.498638   -435.33659   -412.83795   -1023.3698    1015.7725    385.28475   -4471.1668    15.386022    13.324732    27.473778    5632.5264 
  984000      983.987    568.12975    23.352818    -436.1839   -412.83108   -688.82523    2377.1229    4696.7348   -9140.3335    15.386025    13.324734     27.47376    5632.5245 
  984500      984.487    585.11056    24.050809    -436.8728   -412.82199    -3011.941    3152.7155    3290.2575   -15478.796    15.386027    13.324736    27.473743    5632.5227 
  985000      984.987    579.90241     23.83673   -436.65089   -412.81416   -2184.7358    675.40033    2802.1323    -10031.74    15.386029    13.324738    27.473725    5632.5208 
  985500      985.487    586.02263      24.0883    -436.8941    -412.8058   -3313.3035    346.97338    4380.5606   -14667.444    15.386032     13.32474    27.473708     5632.519 
  986000      985.987    607.19997    24.958788   -437.75598   -412.79719   -3173.5782    104.36725    2562.3551   -12187.457    15.386034    13.324743     27.47369    5632.5171 
  986500      986.487    569.03783    23.390144   -436.17977   -412.78963   -853.30789    4594.4583    4609.2775   -11763.659    15.386036    13.324745    27.473673    5632.5152 
  987000      986.987    537.12405    22.078337   -434.85874    -412.7804     -98.3361    3063.4548    2331.7564   -5690.2195    15.386039    13.324747    27.473655    5632.5134 
  987500      987.487    569.84738     23.42342    -436.1947   -412.77128   -1676.2712    788.61366    8291.7077   -14109.135    15.386041    13.324749    27.473638    5632.5115 
  988000      987.987    585.50813    24.067151    -436.8307   -412.76355   -2140.7578    -2564.401    5349.7689   -9207.6413    15.386044    13.324751     27.47362    5632.5097 
  988500      988.487    569.28514     23.40031   -436.15461    -412.7543   -145.40601    5570.7692     8602.775   -14609.762    15.386046    13.324753    27.473603    5632.5078 
  989000      988.987     578.3788    23.774102   -436.52216   -412.74806   -2022.4916     1894.434    5746.0486   -13707.957    15.386048    13.324755    27.473585    5632.5059 
  989500      989.487     583.9041    24.001218   -436.74017   -412.73895   -3147.0397    6383.6182    1396.4544   -17221.192    15.386051    13.324757    27.473568    5632.5041 
  990000      989.987    603.37621    24.801614   -437.53095   -412.72933   -3066.8575    2123.8276    1523.5569   -12847.957    15.386053    13.324759     27.47355    5632.5022 
  990500      990.487    588.08036    24.172882   -436.89418    -412.7213     -1957.44    2139.7266    2808.3344   -10820.381    15.386055    13.324761    27.473533    5632.5004 
  991000      990.987    587.32941    24.142014   -436.85301     -412.711   -2995.4474   -1101.0336     3452.509   -11337.818    15.386058    13.324763    27.473515    5632.4985 
  991500      991.487      567.327    23.319821   -436.02166   -412.70184   -1346.8446   -512.48648    5787.8294   -9315.8768     15.38606    13.324765    27.473498    5632.4966 
  992000      991.987    575.24492    23.645285   -436.33914   -412.69386   -2214.5979   -1019.4894    3543.5424   -9167.8468    15.386062    13.324767     27.47348    5632.4948 
  992500      992.487    580.39448    23.856956   -436.54208   -412.68512   -538.79705    3995.4162    4529.8865   -10141.694    15.386065    13.324769    27.473463    5632.4929 
  993000      992.987    600.75611    24.693916   -437.36953   -412.67561   -4259.6432    1076.3248     733.1379   -14588.392    15.386067    13.324771    27.473445     5632.491 
  993500      993.487     594.4811    24.435983   -437.10376   -412.66777   -2206.5856   -1026.2129    2018.1065   -7611.6504    15.386069    13.324773    27.473428    5632.4892 
  994000      993.987    581.72487    23.911641   -436.57094    -412.6593   -2689.7658    2607.7817    3042.6919   -13719.771    15.386072    13.324775     27.47341    5632.4873 
  994500      994.487    535.85854    22.026318   -434.67468   -412.64836    650.98842    4334.7011    4967.9358   -7349.6716    15.386074    13.324777    27.473393    5632.4855 
  995000      994.987     553.5749    22.754545   -435.39373   -412.63918    337.24206    2102.5957    5656.5617   -6747.4312    15.386076    13.324779    27.473375    5632.4836 
  995500      995.487    583.39822    23.980424   -436.61118   -412.63075    -1735.336    2943.0393    2802.9722    -10952.02    15.386079    13.324781    27.473358    5632.4817 
  996000      995.987    598.04964    24.582667    -437.2058   -412.62313   -3012.9166     1236.229    310.33197   -10585.311    15.386081    13.324784     27.47334    5632.4799 
  996500      996.487    637.93894    26.222305   -438.83693   -412.61463   -3941.5918   -1382.2697    3762.0639    -14204.57    15.386083    13.324786    27.473323     5632.478 
  997000      996.987    564.83247    23.217284   -435.81999   -412.60271   -2088.3899    494.59395    7884.3392   -14644.103    15.386086    13.324788    27.473305    5632.4762 
  997500      997.487    559.86671    23.013168   -435.60709   -412.59392   -2037.9853   -474.88772     5032.661   -10671.729    15.386088     13.32479    27.473288    5632.4743 
  998000      997.987    545.63779    22.428292    -435.0135   -412.58521    -1048.213    890.27864   -33.713032   -4001.2047    15.386091    13.324792     27.47327    5632.4724 
  998500      998.487    566.96829    23.305076   -435.88068    -412.5756   -1185.1142   -252.02354    6672.2605   -9975.5797    15.386093    13.324794    27.473253    5632.4706 
  999000      998.987     589.5241    24.232227   -436.79892   -412.56669   -3514.9188    587.19023    2124.8431    -13256.79    15.386095    13.324796    27.473235    5632.4687 
  999500      999.487    555.05301    22.815302   -435.37158   -412.55627   -918.19598    4564.4976    2979.2234   -10298.309    15.386098    13.324798    27.473218    5632.4669 
 1000000      999.987    547.22924    22.493708   -435.04082   -412.54711   -1487.7625    1845.5347    3611.3369    -9920.159      15.3861      13.3248      27.4732     5632.465 
 1000013         1000    583.49042    23.984214   -436.53171    -412.5475   -1949.4068    1502.3025    4316.8052   -11667.328      15.3861      13.3248      27.4732    5632.4649 
Loop time of 901.469 on 28 procs for 1000000 steps with 319 atoms

Performance: 95.844 ns/day, 0.250 hours/ns, 1109.301 timesteps/s
87.3% CPU use with 28 MPI tasks x no OpenMP threads

MPI task timing breakdown:
Section |  min time  |  avg time  |  max time  |%varavg| %total
---------------------------------------------------------------
Pair    | 745.22     | 781.39     | 817.23     |  66.6 | 86.68
Neigh   | 0.024783   | 0.035399   | 0.047386   |   3.3 |  0.00
Comm    | 72.176     | 107.5      | 143.33     | 175.6 | 11.93
Output  | 0.099523   | 0.10199    | 0.12306    |   1.3 |  0.01
Modify  | 4.7711     | 7.2907     | 10.11      |  60.8 |  0.81
Other   |            | 5.147      |            |       |  0.57

Nlocal:    11.3929 ave 17 max 5 min
Histogram: 2 0 2 2 5 5 7 4 0 1
Nghost:    641.643 ave 682 max 587 min
Histogram: 4 2 2 0 2 2 2 3 8 3
Neighs:    704.821 ave 1048 max 294 min
Histogram: 2 0 3 2 4 2 7 6 1 1
FullNghs:  1409.64 ave 2127 max 610 min
Histogram: 2 0 2 3 4 4 8 4 0 1

Total # of neighbors = 39470
Ave neighs/atom = 123.73
Neighbor list builds = 529
Dangerous builds = 0

write_restart   POSCAR_1x1x1.rest

#unfix    1
#undump   1
Total wall time: 0:15:01
