LAMMPS (7 Dec 2015)
#----------- Initialize Simulation ------------ restart01
#processors	2 2 2
units		metal
boundary	p p p     ## periodic boundary condition  on x y z axis ##
atom_style atomic
#atom_modify map array sort 0 0.0

read_data	POSCAR_1x1x1.lammps
  triclinic box = (0 0 0) to (15.2863 13.2383 28.208) with tilt (-7.64305 0 0)
  2 by 2 by 7 MPI processor grid
  reading atoms ...
  319 atoms

#----------- Define Potential -----------------
pair_style meam
pair_coeff * * MgAlZn.library.meam Mg Al Zn MgAlZn.parameter.meam Mg Al Zn 	#1=Mg 2=Al 3=Zn	#atoms/mass

#----------- Neighbor List --------------------
neighbor 2.0 bin
neigh_modify delay 10 check yes

#--------------  Run a simulation (minimization) ---------------------------------------
minimize       1.0e-4   1.0e-6   100   1000          #結構優化的條件
WARNING: Resetting reneighboring criteria during minimization (../min.cpp:168)
Neighbor list info ...
  2 neighbor list requests
  update every 1 steps, delay 0 steps, check yes
  max neighbors/atom: 2000, page size: 100000
  master list distance cutoff = 8
  ghost atom cutoff = 8
  binsize = 4 -> bins = 6 4 8
Memory usage per processor = 8.02309 Mbytes
Step Temp E_pair E_mol TotEng Press 
       0            0   -430.20515            0   -430.20515    -6467.454 
      17            0   -453.71604            0   -453.71604   -23234.679 
Loop time of 0.0271357 on 28 procs for 17 steps with 319 atoms

87.8% CPU use with 28 MPI tasks x no OpenMP threads

Minimization stats:
  Stopping criterion = energy tolerance
  Energy initial, next-to-last, final = 
        -430.205150536      -453.67201356     -453.716039959
  Force two-norm initial, final = 20.5615 0.720159
  Force max component initial, final = 5.05392 0.116498
  Final line search alpha, max atom move = 0.173049 0.0201598
  Iterations, force evaluations = 17 30

MPI task timing breakdown:
Section |  min time  |  avg time  |  max time  |%varavg| %total
---------------------------------------------------------------
Pair    | 0.02178    | 0.023036   | 0.024524   |   0.4 | 84.89
Neigh   | 0          | 0          | 0          |   0.0 |  0.00
Comm    | 0.0016062  | 0.0030019  | 0.0042759  |   1.2 | 11.06
Output  | 0          | 0          | 0          |   0.0 |  0.00
Modify  | 0          | 0          | 0          |   0.0 |  0.00
Other   |            | 0.001098   |            |       |  4.05

Nlocal:    11.3929 ave 16 max 6 min
Histogram: 1 2 3 2 1 3 4 7 1 4
Nghost:    649.857 ave 696 max 596 min
Histogram: 3 5 0 4 1 3 0 2 4 6
Neighs:    695.571 ave 947 max 352 min
Histogram: 1 3 3 1 3 1 4 5 3 4
FullNghs:  1391.14 ave 1972 max 732 min
Histogram: 3 3 1 2 3 3 5 4 2 2

Total # of neighbors = 38952
Ave neighs/atom = 122.107
Neighbor list builds = 0
Dangerous builds = 0
velocity all  create 600.0 4928459 #rot yes dist gaussian

#--------------  Run a simulation (Relaxation)  ----------------------------------------
fix  1  all  nvt   temp  600.0  600.0  100				#damping constant
#fix  2  all  npt   temp  393.0  393.0  50 iso 0.0 0.0 1000.0
fix  2  all deform 1 x final 0 15.291 y final 0 13.2424 z final 0 28.173 xy final -7.6454 units lattice
#fix  3  all  npt   temp  393.0  393.0  50 z 0.0 0.0 1000.0

#variable b equal 1
#fix 2 all efield  0.0  0.0  v_b
#compute pot all pe/atom


#----------- Output --------------------------
thermo	 500
timestep  0.001		#1.0 fs
thermo_style	custom step time temp ke pe etotal press pxx pyy pzz lx ly lz vol

dump 1 all custom 10000 dump.eq id type x y z
dump_modify 1 sort  id

run        1000000	#1000 ps
Neighbor list info ...
  2 neighbor list requests
  update every 1 steps, delay 10 steps, check yes
  max neighbors/atom: 2000, page size: 100000
  master list distance cutoff = 8
  ghost atom cutoff = 8
  binsize = 4 -> bins = 6 4 8
Memory usage per processor = 7.55644 Mbytes
Step Time Temp KinEng PotEng TotEng Press Pxx Pyy Pzz Lx Ly Lz Volume 
      17            0          600    24.662836   -453.71604    -429.0532   -18619.854   -6030.2328   -7646.2287     -42183.1      15.2863      13.2383       28.208    5708.3014 
     500        0.483    308.51854     12.68157   -441.73107    -429.0495   -10977.552   -2280.4921    4010.6203   -34662.784    15.286302    13.238302    28.207983    5708.2996 
    1000        0.983    310.54596    12.764907   -441.81394   -429.04903   -12440.121   -1272.8165   -1189.2471     -34858.3    15.286305    13.238304    28.207966    5708.2979 
    1500        1.483     296.7534    12.197967   -441.24603   -429.04807   -12011.707   -94.326742    552.78257   -36493.577    15.286307    13.238306    28.207948    5708.2961 
    2000        1.983    299.44209    12.308485   -441.35579   -429.04731   -13362.807   -2274.9493    554.15023    -38367.62    15.286309    13.238308    28.207931    5708.2943 
    2500        2.483    307.38435     12.63495   -441.68095     -429.046   -13483.182   -3388.2459   -1557.3626   -35503.939    15.286312     13.23831    28.207913    5708.2925 
    3000        2.983    299.44228    12.308493   -441.35296   -429.04446    -12048.99   -536.08449    232.47311   -35843.359    15.286314    13.238312    28.207896    5708.2907 
    3500        3.483    310.08205    12.745838   -441.78831   -429.04247   -12180.138    963.86071    639.65785   -38143.933    15.286316    13.238314    28.207878     5708.289 
    4000        3.983    311.92365    12.821536   -441.86212   -429.04058   -13090.329    -1499.597   -2610.3799   -35161.011    15.286319    13.238316    28.207861    5708.2872 
    4500        4.483    299.86649     12.32593   -441.36351   -429.03758   -11525.748    207.37719    1053.2341   -35837.855    15.286321    13.238318    28.207843    5708.2854 
    5000        4.983    307.18246    12.626651   -441.66179   -429.03514   -12964.972   -2575.2127    317.77648   -36637.479    15.286323     13.23832    28.207826    5708.2836 
    5500        5.483    320.50211    13.174151   -442.20603   -429.03188   -12694.914    252.15791    311.50071   -38648.401    15.286326    13.238322    28.207808    5708.2818 
    6000        5.983    328.71919    13.511912   -442.54038   -429.02847    -12675.68   -473.64868   -369.41763   -37183.973    15.286328    13.238325    28.207791    5708.2801 
    6500        6.483    333.64543    13.714404   -442.73934   -429.02494   -12557.066    65.162063    -651.0581   -37085.303     15.28633    13.238327    28.207773    5708.2783 
    7000        6.983    312.23771    12.834446    -441.8552   -429.02075   -12672.114   -1355.7414    1081.7574   -37742.359    15.286333    13.238329    28.207756    5708.2765 
    7500        7.483    325.11313    13.363686   -442.38025   -429.01656   -12204.103   -1047.4598    171.45291   -35736.302    15.286335    13.238331    28.207738    5708.2747 
    8000        7.983    308.35915    12.675018    -441.6866   -429.01158   -10656.219    940.64454     1421.166   -34330.469    15.286338    13.238333    28.207721    5708.2729 
    8500        8.483     300.5863    12.355518   -441.36199   -429.00647   -12584.749   -875.73926    1378.8683   -38257.375     15.28634    13.238335    28.207703    5708.2712 
    9000        8.983     326.3842    13.415933   -442.41743    -429.0015   -12794.365   -1091.7942    1666.3246   -38957.625    15.286342    13.238337    28.207686    5708.2694 
    9500        9.483    320.60913    13.178551   -442.17433   -428.99578   -12325.672   -845.98072   -190.00835   -35941.025    15.286345    13.238339    28.207668    5708.2676 
   10000        9.983    336.36336    13.826124   -442.81622   -428.99009   -12365.489   -1251.2714    783.17802   -36628.373    15.286347    13.238341    28.207651    5708.2658 
   10500       10.483    303.71953    12.484308   -441.46773   -428.98342    -11790.62    1367.3394   -219.23653   -36519.962    15.286349    13.238343    28.207633     5708.264 
   11000       10.983    302.39899    12.430028   -441.40668   -428.97666   -11445.612     191.9667    983.57254   -35512.375    15.286352    13.238345    28.207616    5708.2623 
   11500       11.483     319.9493    13.151428   -442.12163    -428.9702    -11221.08    651.93104    919.31621   -35234.486    15.286354    13.238347    28.207598    5708.2605 
   12000       11.983    314.47081    12.926237   -441.88902   -428.96279   -11645.496   -952.21188    1626.4923   -35610.767    15.286356    13.238349    28.207581    5708.2587 
   12500       12.483    318.28835    13.083155   -442.03839   -428.95524   -11910.902    1621.6424   -2017.4704   -35336.878    15.286359    13.238351    28.207563    5708.2569 
   13000       12.983    310.91774    12.780188   -441.72715   -428.94696   -11740.566    1146.4909    1211.3252   -37579.515    15.286361    13.238353    28.207546    5708.2551 
   13500       13.483     331.7914    13.638194   -442.57779   -428.93959   -12432.549   -898.55161   -33.285037   -36365.812    15.286363    13.238355    28.207528    5708.2534 
   14000       13.983    319.31898    13.125519    -442.0563   -428.93078   -13127.521   -516.82897   -147.81418   -38717.919    15.286366    13.238357    28.207511    5708.2516 
   14500       14.483      311.085    12.787064   -441.70866    -428.9216   -13245.139    1255.8805    -2172.632   -38818.666    15.286368    13.238359    28.207493    5708.2498 
   15000       14.983    320.86617    13.189116   -442.10203   -428.91291   -12970.766   -1494.8333   -50.963671   -37366.502     15.28637    13.238361    28.207476     5708.248 
   15500       15.483    324.22201    13.327057   -442.23084   -428.90379   -12390.282   -161.11148   -2776.9547   -34232.779    15.286373    13.238363    28.207458    5708.2462 
   16000       15.983    314.75127    12.937765   -441.83185   -428.89408    -12061.43    2011.6799   -804.98892   -37390.981    15.286375    13.238366    28.207441    5708.2445 
   16500       16.483    309.74402    12.731943    -441.6158   -428.88386   -12573.579   -1837.8991    407.26736   -36290.105    15.286377    13.238368    28.207423    5708.2427 
   17000       16.983    324.84198     13.35254   -442.22663   -428.87409    -12210.84    -1207.853    927.12401   -36351.792     15.28638     13.23837    28.207406    5708.2409 
   17500       17.483     309.5288    12.723096   -441.58656   -428.86346   -12226.227   -2636.1742   -793.04114   -33249.464    15.286382    13.238372    28.207388    5708.2391 
   18000       17.983    315.16276    12.954679   -441.80705   -428.85237   -12776.065   -2755.3046   -477.95278   -35094.938    15.286385    13.238374    28.207371    5708.2373 
   18500       18.483    320.80029    13.186408   -442.02801    -428.8416    -10842.77   -1568.2429     782.1615   -31742.228    15.286387    13.238376    28.207353    5708.2356 
   19000       18.983    303.83158    12.488914   -441.31846   -428.82955   -11813.037     280.8402    1071.3009   -36791.253    15.286389    13.238378    28.207336    5708.2338 
   19500       19.483    318.03783    13.072858   -441.89112   -428.81826   -12533.568   -1304.1995    2148.5617   -38445.065    15.286392     13.23838    28.207318     5708.232 
   20000       19.983    304.88392     12.53217   -441.33806   -428.80589   -11679.416   -2377.0676    3701.7003   -36362.881    15.286394    13.238382    28.207301    5708.2302 
   20500       20.483    324.79942    13.350791    -442.1446   -428.79381   -10757.264    2175.0052    10.051239   -34456.849    15.286396    13.238384    28.207283    5708.2284 
   21000       20.983     334.2666    13.739937   -442.52138   -428.78144   -12284.518    -752.6029   -43.830759   -36057.122    15.286399    13.238386    28.207266    5708.2267 
   21500       21.483    312.94251    12.863416   -441.63169   -428.76828   -12055.469    1485.5305   -364.30354   -37287.634    15.286401    13.238388    28.207248    5708.2249 
   22000       21.983    331.14897    13.611788   -442.36737   -428.75558   -11033.817    1623.9085   -1713.0894   -33012.269    15.286403     13.23839    28.207231    5708.2231 
   22500       22.483    309.13629    12.706963   -441.44858   -428.74162   -11491.286    -276.9671    1596.0669   -35792.959    15.286406    13.238392    28.207213    5708.2213 
   23000       22.983    321.94195    13.233336   -441.96192   -428.72858    -11879.61    908.38912    648.33345   -37195.553    15.286408    13.238394    28.207196    5708.2195 
   23500       23.483    324.53777    13.340036   -442.05411   -428.71407   -11985.874   -7.9311509   -1123.0328   -34826.658     15.28641    13.238396    28.207178    5708.2178 
   24000       23.983    315.66541     12.97534   -441.67506   -428.69972   -11204.328  0.081086481    2149.3094   -35762.375    15.286413    13.238398    28.207161     5708.216 
   24500       24.483     317.3955    13.046455   -441.73203   -428.68557   -11670.586     587.2948    450.51392   -36049.568    15.286415      13.2384    28.207143    5708.2142 
   25000       24.983    324.38603    13.333799   -442.00456   -428.67076   -12756.061   -416.71906   -850.73354    -37000.73    15.286417    13.238402    28.207126    5708.2124 
   25500       25.483    300.97906    12.371662   -441.02712   -428.65545   -11855.694    928.58507   -1634.1691   -34861.497     15.28642    13.238404    28.207108    5708.2106 
   26000       25.983    307.75736    12.650282   -441.29036   -428.64007   -12025.899   -2131.1447    459.40727   -34405.959    15.286422    13.238407    28.207091    5708.2089 
   26500       26.483    323.83168    13.311012   -441.93653   -428.62552   -12330.513    295.13766   -1270.7763     -36015.9    15.286424    13.238409    28.207073    5708.2071 
   27000       26.983    320.06284    13.156095   -441.76539   -428.60929   -13749.922   -1369.4306   -2962.2176   -36918.117    15.286427    13.238411    28.207056    5708.2053 
   27500       27.483    314.59068    12.931164    -441.5246   -428.59344   -12401.426   -3960.1378    1112.8265   -34356.967    15.286429    13.238413    28.207038    5708.2035 
   28000       27.983     331.6577    13.632699    -442.2104    -428.5777   -12400.993   -766.51094    404.42385   -36840.893    15.286432    13.238415    28.207021    5708.2017 
   28500       28.483    315.53585    12.970015   -441.53083   -428.56081   -11913.406       836.86   -1661.6987    -34915.38    15.286434    13.238417    28.207003       5708.2 
   29000       28.983    338.57638    13.917089   -442.46187   -428.54478   -11269.676    -83.29242    651.97887   -34377.715    15.286436    13.238419    28.206986    5708.1982 
   29500       29.483    320.01803    13.154253   -441.68157   -428.52732   -12382.996   -1294.5133    509.70977   -36364.185    15.286439    13.238421    28.206968    5708.1964 
   30000       29.983    320.64977    13.180221    -441.6904   -428.51018   -12255.918    -531.4863   -477.55658   -35758.711    15.286441    13.238423    28.206951    5708.1946 
   30500       30.483    318.06156    13.073833   -441.56699   -428.49315   -12700.081   -2086.6491     -2643.63   -33369.965    15.286443    13.238425    28.206933    5708.1928 
   31000       30.983    319.61575    13.137718   -441.61312   -428.47541   -13090.617   -444.67276   -231.50286   -38595.677    15.286446    13.238427    28.206916    5708.1911 
   31500       31.483    319.81257    13.145808   -441.60359   -428.45778   -10965.916     1712.765    -676.5886   -33933.924    15.286448    13.238429    28.206898    5708.1893 
   32000       31.983    328.36944    13.497536   -441.93782   -428.44028   -12154.203   -795.99865   -715.13342   -34951.477     15.28645    13.238431    28.206881    5708.1875 
   32500       32.483    321.69782    13.223301   -441.64574   -428.42244   -12416.254   -281.22746   -117.26394    -36850.27    15.286453    13.238433    28.206863    5708.1857 
   33000       32.983    321.99784    13.235633   -441.63986   -428.40423   -12495.206   -1257.7637   -2514.5175   -33713.337    15.286455    13.238435    28.206846    5708.1839 
   33500       33.483    341.31247    14.029556   -442.41585    -428.3863    -11725.92   -798.09579     510.5891   -34890.252    15.286457    13.238437    28.206828    5708.1822 
   34000       33.983    321.71155    13.223865    -441.5915   -428.36763   -12112.792   -2441.9857    581.61872   -34478.009     15.28646    13.238439    28.206811    5708.1804 
   34500       34.483    333.97024    13.727755    -442.0775   -428.34974   -12566.723   -1128.2551   -1696.4591   -34875.456    15.286462    13.238441    28.206793    5708.1786 
   35000       34.983    332.31337     13.65965   -441.99056   -428.33091   -12102.549     2638.814   -892.24115   -38054.219    15.286464    13.238443    28.206776    5708.1768 
   35500       35.483    319.37186    13.127693   -441.44026   -428.31256    -11146.96    889.34106   -861.08723   -33469.134    15.286467    13.238445    28.206758     5708.175 
   36000       35.983    321.80892    13.227867   -441.52147    -428.2936    -12094.71   -1551.1336    630.87145   -35363.869    15.286469    13.238448    28.206741    5708.1733 
   36500       36.483    310.09279    12.746279   -441.02096   -428.27468   -11921.642   -1556.2858    1694.0503   -35902.691    15.286471     13.23845    28.206723    5708.1715 
   37000       36.983    309.64792    12.727993   -440.98377   -428.25578   -10300.839    3799.4572    488.89124   -35190.865    15.286474    13.238452    28.206706    5708.1697 
   37500       37.483    343.04671    14.100841   -442.33822   -428.23738   -11693.891   -1539.2286    1674.0447   -35216.489    15.286476    13.238454    28.206688    5708.1679 
   38000       37.983    311.56426    12.806763   -441.02472   -428.21796   -11949.224   -2273.4394    411.51286   -33985.745    15.286479    13.238456    28.206671    5708.1661 
   38500       38.483     347.4029    14.279901    -442.4792    -428.1993   -12866.818   -87.607968   -311.88716   -38200.959    15.286481    13.238458    28.206653    5708.1644 
   39000       38.983    316.61478    13.014364   -441.19418   -428.17981   -10719.234    2038.0839   -904.20669   -33291.578    15.286483     13.23846    28.206636    5708.1626 
   39500       39.483    311.54182    12.805841   -440.96653   -428.16069   -11127.815   -1439.8236    2908.6141   -34852.235    15.286486    13.238462    28.206618    5708.1608 
   40000       39.983    339.09058    13.938226   -442.08039   -428.14217   -12489.655    938.28609   -793.88231   -37613.368    15.286488    13.238464    28.206601     5708.159 
   40500       40.483     333.4882    13.707941   -441.83098   -428.12304    -12370.92    40.852686   -1146.7398   -36006.872     15.28649    13.238466    28.206583    5708.1572 
   41000       40.983    321.98621    13.235155    -441.3388   -428.10364   -11556.962   -951.33996   -424.48045   -33295.065    15.286493    13.238468    28.206566    5708.1555 
   41500       41.483    324.78236     13.35009   -441.43477   -428.08468   -11115.252   -72.950769    131.92547    -33404.73    15.286495     13.23847    28.206548    5708.1537 
   42000       41.983    313.56272     12.88891   -440.95477   -428.06586   -11238.001    -268.7203    2115.2383   -35560.522    15.286497    13.238472    28.206531    5708.1519 
   42500       42.483    322.76405    13.267128   -441.31388   -428.04676   -12523.673   -235.97829    1514.2644   -38849.304      15.2865    13.238474    28.206513    5708.1501 
   43000       42.983    308.25189     12.67061     -440.698   -428.02739    -11169.02   -1282.2581    2331.3797   -34556.181    15.286502    13.238476    28.206496    5708.1483 
   43500       43.483    335.34302    13.784183   -441.79385   -428.00967   -12500.711   -1662.9594   -529.20952   -35309.965    15.286504    13.238478    28.206478    5708.1466 
   44000       43.983    311.95972    12.823019   -440.81308   -427.99006   -11176.263    431.66358    1083.4181    -35043.87    15.286507     13.23848    28.206461    5708.1448 
   44500       44.483    318.83601    13.105667   -441.07663   -427.97096   -11228.765   -339.23829    378.12552   -33725.182    15.286509    13.238482    28.206443     5708.143 
   45000       44.983    323.00927    13.277207   -441.22948   -427.95227   -11878.736    1048.2231   -211.52039   -36472.909    15.286511    13.238484    28.206426    5708.1412 
   45500       45.483    323.09169    13.280595    -441.2142    -427.9336   -12338.828      434.161   -609.56852   -36841.076    15.286514    13.238486    28.206408    5708.1394 
   46000       45.983    339.96733    13.974264   -441.88955   -427.91528   -11056.769   -261.23148    1686.9437    -34596.02    15.286516    13.238489    28.206391    5708.1377 
   46500       46.483    324.98866     13.35857   -441.25533   -427.89676   -10505.975    260.27183    607.98247   -32386.178    15.286518    13.238491    28.206373    5708.1359 
   47000       46.983    322.23304    13.245301   -441.12349   -427.87819   -11615.888    435.22083   -138.76828   -35144.116    15.286521    13.238493    28.206356    5708.1341 
   47500       47.483    329.08014    13.526749    -441.3866   -427.85985    -12224.54   -332.64873    2081.6943   -38422.666    15.286523    13.238495    28.206338    5708.1323 
   48000       47.983     314.7308    12.936923   -440.77846   -427.84154   -10896.763     439.1706   -367.39531   -32762.063    15.286526    13.238497    28.206321    5708.1305 
   48500       48.483    331.56399    13.628847    -441.4521   -427.82325   -10915.565    870.59572    1056.0313   -34673.323    15.286528    13.238499    28.206303    5708.1288 
   49000       48.983    323.73438    13.307013    -441.1122   -427.80519   -12382.023   -561.99242   -938.88504   -35645.191     15.28653    13.238501    28.206286     5708.127 
   49500       49.483    328.56592    13.505612   -441.29278   -427.78717   -11464.553    754.95036    2525.9732   -37674.583    15.286533    13.238503    28.206268    5708.1252 
   50000       49.983    325.41208    13.375974   -441.14504   -427.76906    -11392.24    822.70101   -376.28784   -34623.134    15.286535    13.238505    28.206251    5708.1234 
   50500       50.483    323.01156    13.277302   -441.02846   -427.75115   -11729.293   -2500.2665   -493.32865   -32194.284    15.286537    13.238507    28.206233    5708.1216 
   51000       50.983    340.01119    13.976067   -441.70997   -427.73391   -11616.762   -1550.5004     1907.168   -35206.954     15.28654    13.238509    28.206216    5708.1199 
   51500       51.483    336.18988    13.818993   -441.53498   -427.71599   -11778.185    1075.2096    2208.9401   -38618.706    15.286542    13.238511    28.206198    5708.1181 
   52000       51.983    339.75443    13.965513   -441.66433   -427.69882   -12375.105     1269.037   -1875.7501   -36518.602    15.286544    13.238513    28.206181    5708.1163 
   52500       52.483    334.94122    13.767667   -441.44889   -427.68123   -11800.364   -722.77652    1620.4215   -36298.738    15.286547    13.238515    28.206163    5708.1145 
   53000       52.983    353.11098     14.51453   -442.17829   -427.66376   -10900.176   -539.78716   -1454.5706   -30706.169    15.286549    13.238517    28.206146    5708.1127 
   53500       53.483    338.68792    13.921674   -441.56818   -427.64651   -11318.494   -911.96181    134.58709   -33178.106    15.286551    13.238519    28.206128     5708.111 
   54000       53.983    312.19622     12.83274   -440.46199   -427.62924   -11738.248    1417.0105    2532.6577   -39164.414    15.286554    13.238521    28.206111    5708.1092 
   54500       54.483     343.7462    14.129593   -441.74209    -427.6125   -12818.673   -1674.2498   -1284.4134   -35497.356    15.286556    13.238523    28.206093    5708.1074 
   55000       54.983    329.52167    13.544898   -441.14042   -427.59552   -10596.906   -810.84822    724.60741   -31704.477    15.286558    13.238525    28.206076    5708.1056 
   55500       55.483    334.30551    13.741536   -441.32069   -427.57915   -12092.286   -437.10018    2039.2437   -37879.002    15.286561    13.238527    28.206058    5708.1038 
   56000       55.983    331.26783    13.616673   -441.17861   -427.56194   -12844.893   -2556.0435   -260.68247   -35717.954    15.286563     13.23853    28.206041    5708.1021 
   56500       56.483    335.40769    13.786841   -441.33244    -427.5456   -11850.349   -1585.7375    1257.7067   -35223.015    15.286565    13.238532    28.206023    5708.1003 
   57000       56.983    328.43133     13.50008   -441.02911   -427.52903   -11239.253   -96.411496   -1289.2826   -32332.065    15.286568    13.238534    28.206006    5708.0985 
   57500       57.483    325.90948     13.39642   -440.90917   -427.51275   -10945.824   -32.281461    3085.2644   -35890.456     15.28657    13.238536    28.205988    5708.0967 
   58000       57.983    318.98336    13.111724   -440.60837   -427.49664   -10707.963    1238.5917    224.56947   -33587.049    15.286573    13.238538    28.205971    5708.0949 
   58500       58.483     335.8493    13.804994   -441.28516   -427.48017   -10927.983   -555.77196    -1683.739   -30544.438    15.286575     13.23854    28.205953    5708.0932 
   59000       58.983    346.31802    14.235308   -441.69947   -427.46416   -11443.242    2139.4082    206.15367   -36675.288    15.286577    13.238542    28.205936    5708.0914 
   59500       59.483    325.29724    13.371254   -440.81913   -427.44788   -11996.676   -246.37584    1064.4138   -36808.067     15.28658    13.238544    28.205918    5708.0896 
   60000       59.983    348.39564    14.320707   -441.75246   -427.43176   -11078.629   -238.81635    909.25562   -33906.326    15.286582    13.238546    28.205901    5708.0878 
   60500       60.483    339.03839     13.93608   -441.35203   -427.41595   -9922.3114    3456.2943   -1089.6643   -32133.564    15.286584    13.238548    28.205883     5708.086 
   61000       60.983    322.95587    13.275013   -440.67447   -427.39945   -11607.807   -1593.1405    2659.1762   -35889.456    15.286587     13.23855    28.205866    5708.0843 
   61500       61.483    349.73427    14.375732   -441.75965   -427.38392   -12202.805   -482.28138    1206.5923   -37332.726    15.286589    13.238552    28.205848    5708.0825 
   62000       61.983    331.27899    13.617132   -440.98508   -427.36795   -11711.579   -1651.9318   -1678.2828   -31804.522    15.286591    13.238554    28.205831    5708.0807 
   62500       62.483     325.3033    13.371503   -440.72318   -427.35168   -11198.121    36.744285   -787.38102   -32843.725    15.286594    13.238556    28.205813    5708.0789 
   63000       62.983    333.80141    13.720816   -441.05686   -427.33604   -11734.655   -2464.1353    3362.9927   -36102.824    15.286596    13.238558    28.205796    5708.0771 
   63500       63.483    354.55972     14.57408   -441.89464   -427.32056   -11922.688   -1982.2594    727.45584    -34513.26    15.286598     13.23856    28.205778    5708.0754 
   64000       63.983    321.83532    13.228953   -440.53328   -427.30433   -11182.058   -1180.9315     1378.259   -33743.502    15.286601    13.238562    28.205761    5708.0736 
   64500       64.483    321.62021    13.220111   -440.50901    -427.2889   -11531.881    674.90327   -1816.1047    -33454.44    15.286603    13.238564    28.205743    5708.0718 
   65000       64.983    313.48805    12.885841   -440.15841   -427.27256   -11378.158    1415.2439    1730.7391   -37280.457    15.286605    13.238566    28.205726      5708.07 
   65500       65.483    349.27921    14.357026   -441.61455   -427.25753   -11060.475     1008.031    476.49891   -34665.954    15.286608    13.238568    28.205708    5708.0682 
   66000       65.983    331.19983    13.613878   -440.85532   -427.24144   -11998.044    -238.5324    1500.5504    -37256.15     15.28661    13.238571    28.205691    5708.0665 
   66500       66.483      321.144    13.200536   -440.42624    -427.2257   -11699.844    18.681796    2307.0928   -37425.307    15.286612    13.238573    28.205673    5708.0647 
   67000       66.983    327.99388    13.482098   -440.69288   -427.21078   -11079.937    2319.6638    1733.4391   -37292.912    15.286615    13.238575    28.205656    5708.0629 
   67500       67.483    354.67755    14.578924   -441.77423   -427.19531   -11316.554    315.03711   -419.49301   -33845.205    15.286617    13.238577    28.205638    5708.0611 
   68000       67.983    330.34563    13.578767   -440.75752   -427.17875    -10675.98    2129.0442    744.00802   -34900.991     15.28662    13.238579    28.205621    5708.0593 
   68500       68.483    332.50983    13.667726   -440.83105   -427.16333   -11272.116    211.42225     3016.185   -37043.955    15.286622    13.238581    28.205603    5708.0575 
   69000       68.983    343.70996    14.128104   -441.27589   -427.14778   -11348.821    816.56328   -1643.0131   -33220.014    15.286624    13.238583    28.205586    5708.0558 
   69500       69.483    352.77321    14.500646   -441.63314   -427.13249   -11255.508    1631.8403    800.97658   -36199.342    15.286627    13.238585    28.205568     5708.054 
   70000       69.983    340.18981    13.983409   -441.09974   -427.11633   -11584.055     -1344.31    759.94684   -34167.801    15.286629    13.238587    28.205551    5708.0522 
   70500       70.483    344.07066     14.14293   -441.24376   -427.10083    -10704.84    143.34167    2655.9196   -34913.781    15.286631    13.238589    28.205533    5708.0504 
   71000       70.983    327.03623    13.442735   -440.52778   -427.08505   -11121.303   -944.06258   -2225.6084   -30194.238    15.286634    13.238591    28.205516    5708.0486 
   71500       71.483    328.87981    13.518515   -440.58757   -427.06906   -11825.777    270.07791    299.38344   -36046.793    15.286636    13.238593    28.205498    5708.0469 
   72000       71.983    341.63228    14.042701    -441.0966    -427.0539   -11578.379    3928.4781    46.225333   -38709.841    15.286638    13.238595    28.205481    5708.0451 
   72500       72.483    347.15125    14.269557    -441.3077   -427.03814   -10436.965    537.58359    564.39294   -32412.872    15.286641    13.238597    28.205463    5708.0433 
   73000       72.983    329.22666    13.532772   -440.55491   -427.02214   -10441.951    3501.5603   -921.70771   -33905.705    15.286643    13.238599    28.205446    5708.0415 
   73500       73.483    330.30673    13.577168   -440.58338   -427.00622   -11239.053    1789.2761    1028.0937    -36534.53    15.286645    13.238601    28.205428    5708.0397 
   74000       73.983    339.29666    13.946696    -440.9372   -426.99051   -10726.431     -239.581    4228.2012   -36167.913    15.286648    13.238603    28.205411     5708.038 
   74500       74.483    333.35946    13.702649   -440.67652   -426.97387    -10898.91    1956.8637    634.10964   -35287.702     15.28665    13.238605    28.205393    5708.0362 
   75000       74.983    338.21393    13.902191   -440.86042   -426.95822   -12076.979    -192.2078   -409.99947   -35628.729    15.286652    13.238607    28.205376    5708.0344 
   75500       75.483    337.48992    13.872431   -440.81472   -426.94229   -11284.412    94.542411    280.03458   -34227.813    15.286655    13.238609    28.205358    5708.0326 
   76000       75.983    358.31331     14.72837   -441.65488   -426.92651   -12367.811   -2494.6421    1606.4097     -36215.2    15.286657    13.238612    28.205341    5708.0308 
   76500       76.483    349.79748     14.37833   -441.28847   -426.91014    -10945.48   -1998.7937    -385.1106   -30452.537    15.286659    13.238614    28.205323    5708.0291 
   77000       76.983    343.40765    14.115677   -441.00941   -426.89373    -10931.66    158.41203     2154.959    -35108.35    15.286662    13.238616    28.205306    5708.0273 
   77500       77.483    328.70655    13.511393   -440.38853   -426.87713   -10121.175   -844.01148    4109.9203   -33629.434    15.286664    13.238618    28.205288    5708.0255 
   78000       77.983    336.75349     13.84216   -440.70312   -426.86096   -12086.329   -111.39515   -24.541386    -36123.05    15.286667     13.23862    28.205271    5708.0237 
   78500       78.483    338.00776    13.893716   -440.73861   -426.84489   -10934.314    -2023.622    1647.2254   -32426.544    15.286669    13.238622    28.205253    5708.0219 
   79000       78.983    336.09831    13.815229   -440.64352   -426.82829   -10907.781    779.29489     901.2732   -34403.912    15.286671    13.238624    28.205236    5708.0202 
   79500       79.483    325.53244    13.380922   -440.19239   -426.81146   -11543.063    426.27368    105.02276   -35160.486    15.286674    13.238626    28.205218    5708.0184 
   80000       79.983    351.31033    14.440515   -441.23569   -426.79517   -11100.031    -1020.192    329.81252   -32609.714    15.286676    13.238628    28.205201    5708.0166 
   80500       80.483      326.926    13.438204   -440.21625   -426.77804    -10581.68    1672.6968    2172.6737   -35590.411    15.286678     13.23863    28.205183    5708.0148 
   81000       80.983    330.89068    13.601171   -440.36222   -426.76105   -11446.257   -729.86648    327.64535    -33936.55    15.286681    13.238632    28.205166     5708.013 
   81500       81.483    344.78837    14.172431   -440.91697   -426.74454   -10471.777    2564.9801     1717.181   -35697.492    15.286683    13.238634    28.205148    5708.0113 
   82000       81.983    353.64722    14.536572   -441.26452   -426.72795   -11412.947   -495.75288    240.24961   -33983.338    15.286685    13.238636    28.205131    5708.0095 
   82500       82.483    356.62751    14.659076   -441.37006   -426.71099   -11540.305   -1583.7427   -188.34345   -32848.829    15.286688    13.238638    28.205113    5708.0077 
   83000       82.983     366.9092    15.081702   -441.77574   -426.69403   -10778.294    39.032888   -1401.7419   -30972.174     15.28669     13.23864    28.205096    5708.0059 
   83500       83.483    343.45101     14.11746   -440.79379   -426.67633   -12084.481   -1190.9197     1218.812   -36281.337    15.286692    13.238642    28.205078    5708.0041 
   84000       83.983    346.72491    14.252033   -440.91093   -426.65889   -11685.353   -613.10903    131.96125   -34574.911    15.286695    13.238644    28.205061    5708.0024 
   84500       84.483    345.75533    14.212178    -440.8535   -426.64132   -9664.4003    2470.0508    2405.5791   -33868.831    15.286697    13.238646    28.205043    5708.0006 
   85000       84.983    334.38987    13.745004   -440.36843   -426.62342   -10625.084   -1190.2838    1048.6459   -31733.614    15.286699    13.238648    28.205026    5707.9988 
   85500       85.483    351.83408    14.462043   -441.06843   -426.60639   -11106.898    381.83142    262.51161   -33965.036    15.286702     13.23865    28.205008     5707.997 
   86000       85.983    331.24043    13.615547   -440.20414   -426.58859   -11505.998   -1460.4718   -49.884321   -33007.637    15.286704    13.238653    28.204991    5707.9952 
   86500       86.483    315.12286    12.953039    -439.5233   -426.57026   -10103.791    1008.5444    4673.9276   -35993.845    15.286706    13.238655    28.204973    5707.9935 
   87000       86.983    324.56158    13.341015   -439.89366   -426.55264   -11837.766   -781.91668   -983.13675   -33748.245    15.286709    13.238657    28.204956    5707.9917 
   87500       87.483    352.41124    14.485768   -441.02134   -426.53557   -11129.192   -801.67083     200.8042    -32786.71    15.286711    13.238659    28.204938    5707.9899 
   88000       87.983    346.69729    14.250897   -440.76814   -426.51724    -10965.78    1080.7566     2065.992   -36044.089    15.286714    13.238661    28.204921    5707.9881 
   88500       88.483    351.35592    14.442389   -440.94165   -426.49926   -10646.472    1934.6976    703.37085   -34577.483    15.286716    13.238663    28.204903    5707.9863 
   89000       88.983    356.10324    14.637526   -441.11871   -426.48118   -11668.087    1378.7485    2939.1986   -39322.208    15.286718    13.238665    28.204886    5707.9846 
   89500       89.483    333.59755    13.712436   -440.17473   -426.46229   -10987.121     184.2044    1176.2844   -34321.853    15.286721    13.238667    28.204868    5707.9828 
   90000       89.983     358.9816     14.75584   -441.20065   -426.44481   -11956.582   -1747.5597   -3228.6281   -30893.558    15.286723    13.238669    28.204851     5707.981 
   90500       90.483    369.28942     15.17954   -441.60659   -426.42705   -11758.812   -697.05679    1597.7046   -36177.085    15.286725    13.238671    28.204833    5707.9792 
   91000       90.983    336.38348    13.826951   -440.23474   -426.40779   -10503.967    2254.6198    1602.3521   -35368.873    15.286728    13.238673    28.204816    5707.9774 
   91500       91.483    352.78634    14.501186   -440.89043   -426.38924   -11469.304   -234.42297   -441.97725    -33731.51     15.28673    13.238675    28.204798    5707.9757 
   92000       91.983    358.49181    14.735708   -441.10641    -426.3707   -11080.599    3013.7898    187.36032   -36442.946    15.286732    13.238677    28.204781    5707.9739 
   92500       92.483    355.08778    14.595786   -440.94762   -426.35183   -10240.085    1029.8186    3322.4412   -35072.516    15.286735    13.238679    28.204763    5707.9721 
   93000       92.983    341.07099     14.01963    -440.3522   -426.33257   -11689.238     169.8492    942.78596   -36180.348    15.286737    13.238681    28.204746    5707.9703 
   93500       93.483    344.91013    14.177436   -440.49136   -426.31392    -10999.19   -511.70571    1926.7701   -34412.636    15.286739    13.238683    28.204728    5707.9685 
   94000       93.983    339.40267    13.951054   -440.24547   -426.29441    -10429.23    3097.7734    1664.5232   -36049.986    15.286742    13.238685    28.204711    5707.9668 
   94500       94.483    366.59283    15.068698   -441.34433   -426.27563   -10635.083   -1128.3586    325.37355   -31102.263    15.286744    13.238687    28.204693     5707.965 
   95000       94.983    357.29363    14.686457   -440.94307   -426.25661   -11957.235   -583.70955   -449.31872   -34838.678    15.286746    13.238689    28.204676    5707.9632 
   95500       95.483    335.90757    13.807389   -440.04407   -426.23668   -12114.036   -1763.7091    2143.3798   -36721.778    15.286749    13.238691    28.204658    5707.9614 
   96000       95.983    342.41183    14.074745   -440.29228   -426.21753   -10460.021   -1201.5283    5164.1557    -35342.69    15.286751    13.238694    28.204641    5707.9596 
   96500       96.483    329.05588    13.525752   -439.72333   -426.19758   -9858.4799    1085.9281    2727.9288   -33389.297    15.286753    13.238696    28.204623    5707.9579 
   97000       96.983    347.92451    14.301342   -440.47982   -426.17848   -9437.1394    2224.5292   -743.62901   -29792.319    15.286756    13.238698    28.204606    5707.9561 
   97500       97.483    344.86519    14.175589   -440.33488   -426.15929   -11335.323   -259.20512    669.61768   -34416.381    15.286758      13.2387    28.204588    5707.9543 
   98000       97.983    347.19796    14.271477   -440.41071   -426.13923   -11253.997   -1978.5501   -384.70046    -31398.74    15.286761    13.238702    28.204571    5707.9525 
   98500       98.483    334.59419    13.753402   -439.87271   -426.11931   -10808.914    438.58997    864.04731   -33729.379    15.286763    13.238704    28.204553    5707.9507 
   99000       98.983     355.6902    14.620548   -440.72052   -426.09997   -10874.088   -386.22965    2280.5635   -34516.598    15.286765    13.238706    28.204536     5707.949 
   99500       99.483    356.67518    14.661036   -440.74121   -426.08017   -10934.194   -1315.1279    1001.9732   -32489.427    15.286768    13.238708    28.204518    5707.9472 
  100000       99.983    358.32823    14.728984   -440.78911   -426.06013   -10641.204    1614.4084   -1372.3594   -32165.661     15.28677     13.23871    28.204501    5707.9454 
  100500      100.483     353.0199    14.510786   -440.55067   -426.03988   -11436.479    726.78667    3143.3634   -38179.587    15.286772    13.238712    28.204483    5707.9436 
  101000      100.983    366.71405    15.073681   -441.09335   -426.01967   -10944.106    1867.9004    577.03597   -35277.253    15.286775    13.238714    28.204466    5707.9418 
  101500      101.483    366.69475    15.072887   -441.07279    -425.9999   -12228.537     -1578.28    829.31763   -35936.647    15.286777    13.238716    28.204448    5707.9401 
  102000      101.983      359.871    14.792399   -440.77179   -425.97939   -10795.902    932.05555    3239.4502   -36559.211    15.286779    13.238718    28.204431    5707.9383 
  102500      102.483    348.72345    14.334182   -440.29322   -425.95904   -10214.569    634.01532    1544.3979   -32822.119    15.286782     13.23872    28.204413    5707.9365 
  103000      102.983    368.92709    15.164647   -441.10319   -425.93854   -11743.105   -1713.7412   -752.54049   -32763.034    15.286784    13.238722    28.204396    5707.9347 
  103500      103.483    346.00114    14.222282   -440.13981   -425.91753   -10868.374    2651.1066    1288.6004   -36544.829    15.286786    13.238724    28.204378    5707.9329 
  104000      103.983    363.03755    14.922559   -440.82018   -425.89762   -10980.161    982.00576     1052.965   -34975.452    15.286789    13.238726    28.204361    5707.9312 
  104500      104.483    347.99438    14.304213   -440.18055   -425.87633   -10734.171   -2497.8405     2548.201   -32252.873    15.286791    13.238728    28.204343    5707.9294 
  105000      104.983    341.49169    14.036922    -439.8923   -425.85538   -9964.0087    1162.4005    2332.0641   -33386.491    15.286793     13.23873    28.204326    5707.9276 
  105500      105.483    352.52793    14.490564   -440.32529   -425.83473   -10583.413     23.92889    4189.2705    -35963.44    15.286796    13.238732    28.204308    5707.9258 
  106000      105.983    350.73792    14.416986   -440.23098     -425.814   -10038.902    1790.1976    1517.0244    -33423.93    15.286798    13.238735    28.204291     5707.924 
  106500      106.483     337.8172    13.885884   -439.67818   -425.79229   -10466.256   -1452.6964    4900.1988    -34846.27      15.2868    13.238737    28.204273    5707.9223 
  107000      106.983    349.50843    14.366448   -440.13832   -425.77187   -11170.042   -422.69115   -1625.0908   -31462.345    15.286803    13.238739    28.204256    5707.9205 
  107500      107.483    358.47423    14.734985     -440.486   -425.75102   -10774.016   -1061.1615    1867.9623    -33128.85    15.286805    13.238741    28.204238    5707.9187 
  108000      107.983     337.7902    13.884774   -439.61383   -425.72905    -10176.96    268.19538    3311.4721   -34110.547    15.286808    13.238743    28.204221    5707.9169 
  108500      108.483    357.27639    14.685748   -440.39427   -425.70852   -10881.672   -167.27244    1456.3208   -33934.065     15.28681    13.238745    28.204203    5707.9151 
  109000      108.983     338.2601    13.904089   -439.59168   -425.68759   -11003.185    342.78507    1458.4635   -34810.803    15.286812    13.238747    28.204186    5707.9134 
  109500      109.483    360.12658    14.802905    -440.4689     -425.666   -10211.178     82.59159    2256.0461   -32972.172    15.286815    13.238749    28.204168    5707.9116 
  110000      109.983    358.98692    14.756059   -440.40017   -425.64411   -10653.772    1302.9004    883.27605   -34147.492    15.286817    13.238751    28.204151    5707.9098 
  110500      110.483    362.19476    14.887916   -440.51052    -425.6226   -10645.035    3329.7993    1834.7535   -37099.659    15.286819    13.238753    28.204133     5707.908 
  111000      110.983    359.18917    14.764373   -440.36542   -425.60105   -10833.638   -1071.1279    3158.5198   -34588.307    15.286822    13.238755    28.204116    5707.9062 
  111500      111.483    352.21809    14.477828     -440.057   -425.57917   -11024.407   -2508.0008    1005.7539   -31570.975    15.286824    13.238757    28.204098    5707.9045 
  112000      111.983    361.29335    14.850864   -440.40832   -425.55745   -11404.643    255.11718    9.7713533   -34478.819    15.286826    13.238759    28.204081    5707.9027 
  112500      112.483     366.0484    15.046319   -440.58214   -425.53582   -11379.138    232.55342     2211.022   -36580.989    15.286829    13.238761    28.204063    5707.9009 
  113000      112.983    369.72864    15.197595   -440.71195   -425.51435   -9831.5019    857.69603    2770.7534   -33122.955    15.286831    13.238763    28.204046    5707.8991 
  113500      113.483     346.6831    14.250314   -439.74256   -425.49225   -10527.373     2655.142    2123.3845   -36360.645    15.286833    13.238765    28.204028    5707.8973 
  114000      113.983    342.70635    14.086851    -439.5569   -425.47005   -10305.601   -338.99433    3399.9478   -33977.757    15.286836    13.238767    28.204011    5707.8955 
  114500      114.483    356.78786    14.665667   -440.11379   -425.44812   -10342.326   -319.03993    4734.4729   -35442.412    15.286838    13.238769    28.203993    5707.8938 
  115000      114.983      363.829    14.955091   -440.38135   -425.42626   -9912.9829    877.03872    500.77255    -31116.76     15.28684    13.238771    28.203976     5707.892 
  115500      115.483    351.93738     14.46629    -439.8704   -425.40411   -11046.152    202.63587    1886.8576   -35227.949    15.286843    13.238773    28.203958    5707.8902 
  116000      115.983    363.29582    14.933175   -440.31555   -425.38238   -11340.389   -1321.7314    2370.1012   -35069.537    15.286845    13.238776    28.203941    5707.8884 
  116500      116.483    372.50229    15.311605   -440.67192   -425.36031   -10122.424    1445.3653   -483.40829    -31329.23    15.286847    13.238778    28.203923    5707.8866 
  117000      116.983    351.99452    14.468638   -439.80608   -425.33744    -10537.62    1569.7224    1880.0655   -35062.646     15.28685     13.23878    28.203906    5707.8849 
  117500      117.483    356.23918    14.643114   -439.95858   -425.31547    -10296.89     1100.532    2051.2115   -34042.415    15.286852    13.238782    28.203888    5707.8831 
  118000      117.983    341.26042    14.027416   -439.32079   -425.29337   -10323.947    259.49644    3647.6123   -34878.949    15.286855    13.238784    28.203871    5707.8813 
  118500      118.483    354.22111    14.560162   -439.83103   -425.27087   -10007.972    1886.2485   -364.33047   -31545.835    15.286857    13.238786    28.203853    5707.8795 
  119000      118.983    375.24194    15.424217   -440.67321   -425.24899   -10590.041     1797.321    412.46855   -33979.912    15.286859    13.238788    28.203836    5707.8777 
  119500      119.483    362.79396    14.912546   -440.13903   -425.22648   -9927.5123    3892.3057     1107.481   -34782.324    15.286862     13.23879    28.203818     5707.876 
  120000      119.983    363.05247    14.923172   -440.12732   -425.20414   -10776.619    197.23941    1141.4523   -33668.547    15.286864    13.238792    28.203801    5707.8742 
  120500      120.483    357.76397     14.70579   -439.88699    -425.1812   -10992.058    1440.3322    999.43012   -35415.935    15.286866    13.238794    28.203783    5707.8724 
  121000      120.983    364.80436    14.995183   -440.15422   -425.15904   -9943.2177     2199.529    2295.9537   -34325.136    15.286869    13.238796    28.203766    5707.8706 
  121500      121.483    363.97669    14.961162   -440.09784   -425.13668    -9907.004     1576.556    2807.7411   -34105.309    15.286871    13.238798    28.203748    5707.8688 
  122000      121.983    367.96898    15.125264   -440.23943   -425.11417   -11555.765   -803.61524    647.45666   -34511.137    15.286873      13.2388    28.203731    5707.8671 
  122500      122.483    360.96076    14.837193   -439.92833   -425.09114   -9796.2118    2022.6484    1703.2206   -33114.505    15.286876    13.238802    28.203713    5707.8653 
  123000      122.983    369.53605    15.189678   -440.25852   -425.06885   -11581.721   -198.80944   -51.195491   -34495.157    15.286878    13.238804    28.203696    5707.8635 
  123500      123.483    369.79984    15.200521   -440.24646   -425.04593   -11466.331    934.80239   -744.50038   -34589.295     15.28688    13.238806    28.203678    5707.8617 
  124000      123.983     360.4114    14.814612   -439.83796   -425.02335     -9632.78     3086.054     8.905373   -31993.299    15.286883    13.238808    28.203661    5707.8599 
  124500      124.483       355.38    14.607798   -439.60778   -424.99998   -9720.4084    485.67946    1385.6469   -31032.552    15.286885     13.23881    28.203643    5707.8582 
  125000      124.983    345.25705    14.191696   -439.16847   -424.97678   -8959.6886   -361.65741     3457.477   -29974.885    15.286887    13.238812    28.203626    5707.8564 
  125500      125.483    352.27005    14.479964   -439.43391   -424.95394    -10964.91     749.5505   -888.28327   -32755.997     15.28689    13.238814    28.203608    5707.8546 
  126000      125.983    371.17439    15.257022   -440.18786   -424.93084   -9145.0345    642.60675    2367.2103    -30444.92    15.286892    13.238817    28.203591    5707.8528 
  126500      126.483    359.23517    14.766263   -439.67419   -424.90792   -8692.0725     3303.644    3626.7616   -33006.623    15.286894    13.238819    28.203573     5707.851 
  127000      126.983    369.01855    15.168407   -440.05308   -424.88468   -11542.312    1919.8555    121.11472   -36667.906    15.286897    13.238821    28.203556    5707.8493 
  127500      127.483    354.51737    14.572339   -439.43381   -424.86147   -10591.583   -32.876688   -1055.2857   -30686.585    15.286899    13.238823    28.203538    5707.8475 
  128000      127.983    359.80778      14.7898   -439.62817   -424.83837   -9498.2488    2232.2068    3263.7025   -33990.656    15.286902    13.238825    28.203521    5707.8457 
  128500      128.483    368.69839    15.155246   -439.97015    -424.8149   -10204.171     3252.831    1575.5234   -35440.866    15.286904    13.238827    28.203503    5707.8439 
  129000      128.983    363.98581    14.961537   -439.75331   -424.79177    -10352.31    556.83454    2637.2531   -34251.017    15.286906    13.238829    28.203486    5707.8421 
  129500      129.483    361.03417    14.840211   -439.60895   -424.76874   -10375.087   -243.30335      423.821   -31305.779    15.286909    13.238831    28.203468    5707.8404 
  130000      129.983    351.56856    14.451129   -439.19609   -424.74496    -10165.91    50.970974    3440.0615   -33988.762    15.286911    13.238833    28.203451    5707.8386 
  130500      130.483    378.10205    15.541781   -440.26389   -424.72211   -11097.974   -808.12022    2888.6452   -35374.448    15.286913    13.238835    28.203433    5707.8368 
  131000      130.983    389.05713    15.992087   -440.69163   -424.69954   -10399.828    2525.9508    138.49153   -33863.925    15.286916    13.238837    28.203416     5707.835 
  131500      131.483    366.51587    15.065535   -439.74097   -424.67543   -9127.8423    1979.7668   -254.29302   -29109.001    15.286918    13.238839    28.203398    5707.8332 
  132000      131.983     388.5239    15.970168   -440.62277    -424.6526   -11736.316   -1285.0416    942.92866   -34866.835     15.28692    13.238841    28.203381    5707.8315 
  132500      132.483    377.10399    15.500756   -440.12998   -424.62923   -10741.366    326.69125    753.53537   -33304.324    15.286923    13.238843    28.203363    5707.8297 
  133000      132.983    362.69926    14.908654   -439.51434   -424.60569   -10057.379    2145.1699    2274.6526   -34591.958    15.286925    13.238845    28.203346    5707.8279 
  133500      133.483    377.56344    15.519642    -440.1023   -424.58266   -10307.012    1695.1535   -161.83538   -32454.355    15.286927    13.238847    28.203328    5707.8261 
  134000      133.983    362.40205    14.896437   -439.45499   -424.55856   -10070.325    -444.0267    199.71949   -29966.668     15.28693    13.238849    28.203311    5707.8243 
  134500      134.483    381.59083    15.685187    -440.2207   -424.53551   -11570.075   -1255.3054   -44.131162    -33410.79    15.286932    13.238851    28.203293    5707.8226 
  135000      134.983    365.78804    15.035617   -439.54721   -424.51159   -11519.175    1364.4557    669.82754   -36591.808    15.286934    13.238853    28.203276    5707.8208 
  135500      135.483    371.21787    15.258809   -439.74703   -424.48822   -10427.899    1299.5156    56.090736   -32639.303    15.286937    13.238855    28.203258     5707.819 
  136000      135.983    373.02602    15.333132   -439.79773    -424.4646   -9688.5435   -576.22745    1083.4571    -29572.86    15.286939    13.238858    28.203241    5707.8172 
  136500      136.483     358.8206    14.749223   -439.18982    -424.4406   -8780.8416    5104.2992    1816.9528   -33263.777    15.286941     13.23886    28.203223    5707.8154 
  137000      136.983    373.21994    15.341103   -439.75842   -424.41732   -9804.0429    1539.0642    1873.0177   -32824.211    15.286944    13.238862    28.203206    5707.8137 
  137500      137.483    372.61624    15.316288   -439.70934   -424.39306    -10297.75    2201.8758    713.84808   -33808.974    15.286946    13.238864    28.203188    5707.8119 
  138000      137.983    347.01152    14.263814    -438.6328   -424.36899   -8787.5744    3643.7717     5759.518   -35766.013    15.286949    13.238866    28.203171    5707.8101 
  138500      138.483     354.1298    14.556408   -438.90215   -424.34574   -9820.2803    1478.4149    2555.0515   -33494.307    15.286951    13.238868    28.203153    5707.8083 
  139000      138.983    371.73929    15.280242   -439.60221   -424.32197   -9896.0611    427.24925    3048.1492   -33163.582    15.286953     13.23887    28.203136    5707.8065 
  139500      139.483    371.41723    15.267003    -439.5649   -424.29789   -10124.715   -330.32084    3561.2246    -33605.05    15.286956    13.238872    28.203118    5707.8048 
  140000      139.983    363.66908    14.948518   -439.22256   -424.27404   -9815.1711     147.9692    2545.1461   -32138.628    15.286958    13.238874    28.203101     5707.803 
  140500      140.483    379.83382    15.612965   -439.86328   -424.25031   -11019.844   -1232.4325    2751.3768   -34578.477     15.28696    13.238876    28.203083    5707.8012 
  141000      140.983    380.49906     15.64031    -439.8669   -424.22659   -10158.223    1471.5394    4296.6773   -36242.886    15.286963    13.238878    28.203066    5707.7994 
  141500      141.483    366.41719    15.061478   -439.26439   -424.20291   -10372.294    433.61118    2651.3234   -34201.816    15.286965     13.23888    28.203048    5707.7976 
  142000      141.983    365.64107    15.029576   -439.20807    -424.1785   -9494.2551    2465.0425    2534.1444   -33481.952    15.286967    13.238882    28.203031    5707.7958 
  142500      142.483    390.29271    16.042875   -440.19828    -424.1554   -10489.967    110.30056    1599.4156   -33179.618     15.28697    13.238884    28.203013    5707.7941 
  143000      142.983    389.17996    15.997136   -440.12803   -424.13089   -11603.876    460.59193    1467.0036   -36739.224    15.286972    13.238886    28.202996    5707.7923 
  143500      143.483    396.05707    16.279818   -440.38734   -424.10752   -10518.531     2189.374    595.25769   -34340.225    15.286974    13.238888    28.202978    5707.7905 
  144000      143.983    373.25168    15.342408   -439.42525   -424.08284    -8876.869    2596.4657    2886.3721   -32113.445    15.286977     13.23889    28.202961    5707.7887 
  144500      144.483    386.71993    15.896017   -439.95518   -424.05917   -11149.056   -1162.0301    3171.6051   -35456.742    15.286979    13.238892    28.202943    5707.7869 
  145000      144.983    394.09782    16.199283   -440.23436   -424.03508    -10455.43    2171.6742    4939.4284   -38477.394    15.286981    13.238894    28.202926    5707.7852 
  145500      145.483    388.86439    15.984164   -439.99535   -424.01118   -9509.1545    612.55005    898.36711   -30038.381    15.286984    13.238896    28.202908    5707.7834 
  146000      145.983    393.37646    16.169632   -440.15596   -423.98633   -10200.767    3227.7917    2111.6293   -35941.721    15.286986    13.238899    28.202891    5707.7816 
  146500      146.483    394.69338    16.223763   -440.18632   -423.96256    -9921.662    1480.1081    1695.2781   -32940.372    15.286988    13.238901    28.202873    5707.7798 
  147000      146.983    382.50661     15.72283   -439.66076   -423.93793   -9710.6695    1954.9528    2034.4839   -33121.445    15.286991    13.238903    28.202856     5707.778 
  147500      147.483    393.80584    16.187281   -440.10208    -423.9148   -9594.7943    2089.5568    1883.7079   -32757.648    15.286993    13.238905    28.202838    5707.7763 
  148000      147.983    406.29563     16.70067   -440.59134   -423.89067   -10599.018    2252.2036    2118.6398   -36167.898    15.286996    13.238907    28.202821    5707.7745 
  148500      148.483     366.4006    15.060796   -438.92698   -423.86619    -9580.222    1095.4754    1005.6016   -30841.743    15.286998    13.238909    28.202803    5707.7727 
  149000      148.983     380.0703    15.622686   -439.46481   -423.84212   -9056.4171    2926.0159    1105.5222    -31200.79       15.287    13.238911    28.202786    5707.7709 
  149500      149.483    406.45908    16.707389   -440.52583   -423.81844   -11298.597    1217.1783    -308.7003    -34804.27    15.287003    13.238913    28.202768    5707.7691 
  150000      149.983    381.58622    15.684997   -439.47865   -423.79365   -10747.603    2743.6091     2127.456   -37113.874    15.287005    13.238915    28.202751    5707.7674 
  150500      150.483    386.10968    15.870933   -439.64057   -423.76963   -9518.4408    1748.0365    4124.9896   -34428.349    15.287007    13.238917    28.202733    5707.7656 
  151000      150.983    383.79232    15.775678   -439.52072   -423.74504   -10205.609    208.50605    2686.6976   -33512.031     15.28701    13.238919    28.202716    5707.7638 
  151500      151.483    363.14576    14.927007    -438.6468   -423.71979    -9388.925    1643.7838    3292.8938   -33103.453    15.287012    13.238921    28.202698     5707.762 
  152000      151.983    365.10684    15.007617   -438.70337   -423.69576   -9909.0744    1202.4619   -599.49311   -30330.192    15.287014    13.238923    28.202681    5707.7602 
  152500      152.483    377.94883    15.535483   -439.20682   -423.67134   -10096.502   -110.53754    3278.3011    -33457.27    15.287017    13.238925    28.202663    5707.7585 
  153000      152.983    368.32236     15.13979   -438.78597   -423.64618     -8743.45    2419.1859    2266.1688   -30915.705    15.287019    13.238927    28.202646    5707.7567 
  153500      153.483    377.87436    15.532422   -439.15408   -423.62166   -9096.1345    3625.1664    6148.4068   -37061.977    15.287021    13.238929    28.202628    5707.7549 
  154000      153.983    397.16434    16.325331   -439.92326   -423.59793   -10738.996   -428.39087    3525.7237    -35314.32    15.287024    13.238931    28.202611    5707.7531 
  154500      154.483    367.93717    15.123957   -438.69704   -423.57308   -9142.0428    2410.6082    2251.4521   -32088.188    15.287026    13.238933    28.202593    5707.7513 
  155000      154.983    393.03384    16.155548   -439.70436   -423.54881   -9278.2522    393.49477    2458.0055   -30686.257    15.287028    13.238935    28.202576    5707.7496 
  155500      155.483    393.97059    16.194053   -439.71785   -423.52379   -9351.5757     2758.879    338.12887   -31151.735    15.287031    13.238937    28.202558    5707.7478 
  156000      155.983    372.35966    15.305742   -438.80452   -423.49878   -9717.7282    1357.6367    3031.0157   -33541.837    15.287033     13.23894    28.202541     5707.746 
  156500      156.483    393.33166     16.16779   -439.64236   -423.47457   -10348.374    608.14674    2103.0238   -33756.291    15.287035    13.238942    28.202523    5707.7442 
  157000      156.983     386.0722    15.869392   -439.31925   -423.44986   -9630.6119    386.42118     2477.108   -31755.365    15.287038    13.238944    28.202506    5707.7424 
  157500      157.483    405.96167    16.686943   -440.11172   -423.42478    -9595.404    4515.4557   -17.885856   -33283.782     15.28704    13.238946    28.202488    5707.7407 
  158000      157.983    377.73279    15.526603   -438.92664   -423.40004   -8450.8856    1511.1763    3703.8558   -30567.689    15.287043    13.238948    28.202471    5707.7389 
  158500      158.483    387.80856    15.940765   -439.31629   -423.37553   -10935.932    560.28321    573.04731   -33941.127    15.287045     13.23895    28.202453    5707.7371 
  159000      158.983    369.07525    15.170737   -438.52137   -423.35063   -8695.7283    2562.8896    1258.8612   -29908.936    15.287047    13.238952    28.202436    5707.7353 
  159500      159.483    367.63299    15.111453   -438.43746     -423.326   -8804.1085    1083.8091    2952.7679   -30448.902     15.28705    13.238954    28.202418    5707.7335 
  160000      159.983    390.80529    16.063944     -439.365   -423.30106   -9736.9894    2495.3471     3696.588   -35402.903    15.287052    13.238956    28.202401    5707.7318 
  160500      160.483    397.47867    16.338252   -439.61512   -423.27687   -10381.793   -411.49447    2379.6527   -33113.538    15.287054    13.238958    28.202383      5707.73 
  161000      160.983     384.9355    15.822668   -439.07381   -423.25114   -10138.929   -935.45388    2428.0331   -31909.368    15.287057     13.23896    28.202366    5707.7282 
  161500      161.483    392.85642    16.148256   -439.37415   -423.22589   -7988.0688    967.17379      2658.21    -27589.59    15.287059    13.238962    28.202348    5707.7264 
  162000      161.983    398.14577    16.365673   -439.56617    -423.2005   -10540.336    -331.2558    3979.2997   -35269.053    15.287061    13.238964    28.202331    5707.7246 
  162500      162.483    384.92539    15.822253   -438.99711   -423.17486   -10188.567    4054.3392    4185.3286   -38805.369    15.287064    13.238966    28.202313    5707.7228 
  163000      162.983     373.5131    15.353154   -438.50272   -423.14957   -9490.3119   -306.06564   -23.002889   -28141.867    15.287066    13.238968    28.202296    5707.7211 
  163500      163.483     378.5453    15.560001   -438.68481   -423.12481   -8563.5187    1304.2258     3764.968    -30759.75    15.287068     13.23897    28.202278    5707.7193 
  164000      163.983    386.43235    15.884196    -438.9843   -423.10011   -7787.2131    3473.0751    4789.3335   -31624.048    15.287071    13.238972    28.202261    5707.7175 
  164500      164.483    367.82515    15.119352    -438.1941   -423.07475   -9326.5846    3392.9404    3064.8922   -34437.586    15.287073    13.238974    28.202243    5707.7157 
  165000      164.983      396.882    16.313726    -439.3643   -423.05057   -9312.5495    1483.0171    1357.1601   -30777.826    15.287075    13.238976    28.202226    5707.7139 
  165500      165.483    382.63905    15.728273   -438.75285   -423.02458   -10298.258    -990.6113    2508.3283   -32412.491    15.287078    13.238978    28.202208    5707.7122 
  166000      165.983    395.46903    16.255646   -439.25525    -422.9996   -9838.4206    435.80447    657.26014   -30608.326     15.28708    13.238981    28.202191    5707.7104 
  166500      166.483    386.38755    15.882355   -438.85676   -422.97441   -8410.4383    1600.5994    2156.4478   -28988.362    15.287082    13.238983    28.202173    5707.7086 
  167000      166.983    407.71094    16.758847   -439.70834   -422.94949   -10940.898    2018.5492    2056.3901   -36897.634    15.287085    13.238985    28.202156    5707.7068 
  167500      167.483    410.34533    16.867132   -439.79178   -422.92465    -11652.36   -170.38543    1146.9884   -35933.683    15.287087    13.238987    28.202138     5707.705 
  168000      167.983    372.02945    15.292169   -438.19155   -422.89938   -8482.7133    2965.8722    4952.9366   -33366.948     15.28709    13.238989    28.202121    5707.7033 
  168500      168.483    379.47141    15.598068   -438.47204   -422.87397   -8932.7665    1562.7809    5519.5274   -33880.608    15.287092    13.238991    28.202103    5707.7015 
  169000      168.983     395.1572    16.242828   -439.09109   -422.84826   -10387.781   -527.32525    436.80136   -31072.819    15.287094    13.238993    28.202086    5707.6997 
  169500      169.483    390.30236    16.043272   -438.86651   -422.82324   -9487.7969    1542.6527    2669.7331   -32675.776    15.287097    13.238995    28.202068    5707.6979 
  170000      169.983    391.42745    16.089518   -438.88765   -422.79813    -10469.21    2307.6065    678.62509    -34393.86    15.287099    13.238997    28.202051    5707.6961 
  170500      170.483     386.8061    15.899559   -438.67221   -422.77265   -10978.411   -47.786628    3141.3714   -36028.817    15.287101    13.238999    28.202033    5707.6944 
  171000      170.983    388.21736    15.957568   -438.70442   -422.74685   -8710.5625    1666.9038     3507.802   -31306.393    15.287104    13.239001    28.202016    5707.6926 
  171500      171.483    397.23068    16.328058   -439.04894   -422.72089   -9598.9985    1594.4653    890.53406   -31281.995    15.287106    13.239003    28.201998    5707.6908 
  172000      171.983    374.34923    15.387523   -438.08263    -422.6951   -9366.6526    2518.4555    3591.2085   -34209.622    15.287108    13.239005    28.201981     5707.689 
  172500      172.483    415.19778    17.066591   -439.73672   -422.67013   -8918.7189    4862.7906    831.37575   -32450.323    15.287111    13.239007    28.201963    5707.6872 
  173000      172.983    413.10957    16.980756   -439.62593   -422.64518   -9928.2468    1056.9633   -332.41268   -30509.291    15.287113    13.239009    28.201946    5707.6855 
  173500      173.483    399.25233    16.411158   -439.03008   -422.61892   -10820.335    949.28974    1493.5035   -34903.798    15.287115    13.239011    28.201928    5707.6837 
  174000      173.983    390.91595    16.068493   -438.66168   -422.59319   -9629.5575    2852.0016    2808.5703   -34549.245    15.287118    13.239013    28.201911    5707.6819 
  174500      174.483    398.25905    16.370329   -438.93797   -422.56764   -9088.9857    1516.4422    3187.1588   -31970.558     15.28712    13.239015    28.201893    5707.6801 
  175000      174.983    397.47116    16.337943   -438.88003   -422.54209   -9466.9751   -159.36029    2211.6194   -30453.184    15.287122    13.239017    28.201876    5707.6783 
  175500      175.483    383.08271     15.74651   -438.26264   -422.51613   -9175.8371   -143.65378    4562.9569   -31946.815    15.287125    13.239019    28.201858    5707.6766 
  176000      175.983    400.69488    16.470453   -438.96108   -422.49063   -8446.2679    420.82232    4424.6583   -30184.284    15.287127    13.239022    28.201841    5707.6748 
  176500      176.483    406.25173    16.698866   -439.16417   -422.46531   -8963.8529     1618.255    5148.7672   -33658.581    15.287129    13.239024    28.201823     5707.673 
  177000      176.983    391.57308    16.095504   -438.53521   -422.43971   -8222.1235    4571.9555    3834.3991   -33072.725    15.287132    13.239026    28.201806    5707.6712 
  177500      177.483    382.72815    15.731936    -438.1451   -422.41317   -8324.9781    4017.4696    3061.0352   -32053.439    15.287134    13.239028    28.201788    5707.6694 
  178000      177.983     394.3198    16.208407   -438.59635   -422.38794   -8732.9468    869.79825    1607.0402   -28675.679    15.287137     13.23903    28.201771    5707.6677 
  178500      178.483    401.05856    16.485402    -438.8476   -422.36219   -10461.849   -2058.4869    6233.0259   -35560.087    15.287139    13.239032    28.201753    5707.6659 
  179000      178.983    396.92688    16.315571   -438.65208   -422.33651   -8963.3402      2573.01    1679.0836   -31142.114    15.287141    13.239034    28.201736    5707.6641 
  179500      179.483    381.45905     15.67977   -437.99033   -422.31056   -8748.7313    2883.2668    3545.9418   -32675.403    15.287144    13.239036    28.201718    5707.6623 
  180000      179.983    393.38937    16.170162   -438.45542   -422.28525   -9345.2892    766.77077    2905.8838   -31708.522    15.287146    13.239038    28.201701    5707.6605 
  180500      180.483    393.74249    16.184677   -438.44401   -422.25934    -9327.556    1698.6963    2190.4589   -31871.823    15.287148     13.23904    28.201683    5707.6587 
  181000      180.983    397.78427    16.350814   -438.58438   -422.23357   -9081.7749    1818.6509    4968.0655   -34032.041    15.287151    13.239042    28.201666     5707.657 
  181500      181.483    422.95461    17.385433   -439.59321   -422.20778   -9662.3589    54.073995    2624.7439   -31665.895    15.287153    13.239044    28.201648    5707.6552 
  182000      181.983    389.32516    16.003104   -438.18504   -422.18193    -8922.648    1613.1536    2654.7426    -31035.84    15.287155    13.239046    28.201631    5707.6534 
  182500      182.483    406.00319     16.68865   -438.84478   -422.15613   -9536.7417    2718.6461    4118.6566   -35447.528    15.287158    13.239048    28.201613    5707.6516 
  183000      182.983    391.96047    16.111428   -438.24156   -422.13013   -10382.287    1372.7821    3119.7143   -35639.356     15.28716     13.23905    28.201596    5707.6498 
  183500      183.483    412.60612    16.960062   -439.06513   -422.10507   -9316.1209    2428.5737    1960.8999   -32337.836    15.287162    13.239052    28.201578    5707.6481 
  184000      183.983    404.87201    16.642153   -438.72008   -422.07793    -8142.933    4982.6682    4329.7385   -33741.206    15.287165    13.239054    28.201561    5707.6463 
  184500      184.483    390.46858    16.050104   -438.10305   -422.05295   -8960.7179    469.25986    2719.6899   -30071.103    15.287167    13.239056    28.201543    5707.6445 
  185000      184.983     399.1214    16.405776   -438.43242   -422.02664   -9728.3838    2007.3159     3511.176   -34703.643    15.287169    13.239058    28.201526    5707.6427 
  185500      185.483    396.69158    16.305899   -438.30666   -422.00076     -9315.94    398.87825    1826.4011   -30173.099    15.287172     13.23906    28.201508    5707.6409 
  186000      185.983    408.47774    16.790366   -438.76473   -421.97436   -9118.4169     2693.054    3065.4403   -33113.745    15.287174    13.239063    28.201491    5707.6392 
  186500      186.483    421.79356    17.337709   -439.28569   -421.94798   -7876.4527    4181.3462    1849.5526   -29660.257    15.287176    13.239065    28.201473    5707.6374 
  187000      186.983    406.63284    16.714532    -438.6359   -421.92137   -8878.7291    3731.8084    1201.9148   -31569.911    15.287179    13.239067    28.201456    5707.6356 
  187500      187.483    410.60017    16.877607   -438.77357   -421.89596   -9635.4013    1803.8903    797.01731   -31507.111    15.287181    13.239069    28.201438    5707.6338 
  188000      187.983    394.17111    16.202295   -438.07121   -421.86891   -9164.1728    4221.3347   -936.30884   -30777.544    15.287184    13.239071    28.201421     5707.632 
  188500      188.483    407.60107    16.754331   -438.59734   -421.84301   -9040.9425    820.84405     2248.965   -30192.637    15.287186    13.239073    28.201403    5707.6303 
  189000      188.983    400.68341    16.469982   -438.28728    -421.8173   -8627.8323    1829.5671    2740.7077   -30453.772    15.287188    13.239075    28.201386    5707.6285 
  189500      189.483    417.02049    17.141513   -438.93237   -421.79086   -8889.7535    555.54197    5240.1728   -32464.975    15.287191    13.239077    28.201368    5707.6267 
  190000      189.983    402.28202    16.535692    -438.2997     -421.764   -9209.9162    2950.6762     4032.002   -34612.427    15.287193    13.239079    28.201351    5707.6249 
  190500      190.483    393.58484    16.178197   -437.91595   -421.73775    -9332.595    1668.7298    3809.0358   -33475.551    15.287195    13.239081    28.201333    5707.6231 
  191000      190.983    409.02776    16.812974   -438.52453   -421.71155   -10241.442    2596.5684    3700.6508   -37021.545    15.287198    13.239083    28.201316    5707.6214 
  191500      191.483    406.96252    16.728083   -438.41339   -421.68531   -10106.762     3746.426   -1054.6774   -33012.035      15.2872    13.239085    28.201298    5707.6196 
  192000      191.983    416.99375    17.140414   -438.79935   -421.65893   -7954.0112    4555.0182    2713.7884    -31130.84    15.287202    13.239087    28.201281    5707.6178 
  192500      192.483       391.18    16.079347    -437.7114   -421.63205   -9962.4688    2377.9535    4011.4033   -36276.763    15.287205    13.239089    28.201263     5707.616 
  193000      192.983     415.2317    17.067985   -438.67379   -421.60581   -9082.7666    2432.5493    1481.5834   -31162.432    15.287207    13.239091    28.201246    5707.6142 
  193500      193.483    401.19852    16.491155   -438.07059   -421.57944   -7330.9607    3061.3449    5592.8064   -30647.033    15.287209    13.239093    28.201228    5707.6125 
  194000      193.983    416.73857    17.129925   -438.68398   -421.55406   -9641.1504    4235.8334    1825.5207   -34984.805    15.287212    13.239095    28.201211    5707.6107 
  194500      194.483    405.66487    16.674744   -438.20197   -421.52722   -7342.3991    1515.3116     5005.252   -28547.761    15.287214    13.239097    28.201193    5707.6089 
  195000      194.983    403.56456    16.588411   -438.08914   -421.50073   -8069.2513    3987.1188    2048.6282   -30243.501    15.287216    13.239099    28.201176    5707.6071 
  195500      195.483    419.07593    17.226001   -438.70081   -421.47481   -9474.1765    322.59008    2122.5268   -30867.646    15.287219    13.239101    28.201158    5707.6053 
  196000      195.983     426.4404    17.528716   -438.97639   -421.44768    -7685.029    2429.1273     4926.154   -30410.368    15.287221    13.239104    28.201141    5707.6036 
  196500      196.483    412.82766    16.969168   -438.39001   -421.42084   -8672.4815    6205.4564    898.27688   -33121.178    15.287223    13.239106    28.201123    5707.6018 
  197000      196.983    422.25896    17.356839    -438.7516   -421.39476   -9207.4628    2560.8637    3101.0266   -33284.279    15.287226    13.239108    28.201106       5707.6 
  197500      197.483    420.83102    17.298144   -438.66626   -421.36812   -8762.7838    673.02222    5326.0005   -32287.374    15.287228     13.23911    28.201088    5707.5982 
  198000      197.983    401.63335    16.509029   -437.84974   -421.34071   -10138.094    908.23341    4050.3969   -35372.912    15.287231    13.239112    28.201071    5707.5964 
  198500      198.483    415.29626    17.070639   -438.38511   -421.31447   -7942.7907    4243.2251    1780.8527    -29852.45    15.287233    13.239114    28.201053    5707.5946 
  199000      198.983    378.62932    15.563454   -436.85107   -421.28762   -7862.0644    4379.6636    3091.8972   -31057.754    15.287235    13.239116    28.201036    5707.5929 
  199500      199.483    421.80231    17.338068   -438.59937    -421.2613   -9459.9809     2582.038    3698.9662   -34660.947    15.287238    13.239118    28.201018    5707.5911 
  200000      199.983    423.80397    17.420346   -438.65497   -421.23463    -8382.302    1819.5981    5739.4895   -32705.993     15.28724     13.23912    28.201001    5707.5893 
  200500      200.483    415.03127    17.059747   -438.26773   -421.20798   -8713.7652    3720.5494    1329.3176   -31191.163    15.287242    13.239122    28.200983    5707.5875 
  201000      200.983    407.07294    16.732622    -437.9133   -421.18068    -9119.598    1553.0231    5091.7746   -34003.592    15.287245    13.239124    28.200966    5707.5857 
  201500      201.483      417.771    17.172363   -438.32611   -421.15374   -7349.4368     2932.324    4112.4542   -29093.089    15.287247    13.239126    28.200948     5707.584 
  202000      201.983    409.02261    16.812762    -437.9394   -421.12664   -9224.1703    2538.9842    1985.0946    -32196.59    15.287249    13.239128    28.200931    5707.5822 
  202500      202.483    415.05714     17.06081   -438.16057   -421.09976   -8515.8439    2907.6741    5949.5922   -34404.798    15.287252     13.23913    28.200913    5707.5804 
  203000      202.983    416.32831    17.113061   -438.18702   -421.07396   -8821.9454    2574.3735    1697.2757   -30737.485    15.287254    13.239132    28.200896    5707.5786 
  203500      203.483    414.44587    17.035684   -438.08306   -421.04738   -9017.4294    2177.5551    784.13728   -30013.981    15.287256    13.239134    28.200878    5707.5768 
  204000      203.983     405.6945    16.675961    -437.6961   -421.02014   -7625.9017    5260.1984    2262.7976   -30400.701    15.287259    13.239136    28.200861    5707.5751 
  204500      204.483     403.0707    16.568111   -437.56181    -420.9937   -8587.1077    2882.8627    4535.7968   -33179.983    15.287261    13.239138    28.200843    5707.5733 
  205000      204.983    424.11739    17.433229   -438.40015   -420.96692    -7236.375    4316.9975    3326.5947   -29352.717    15.287263     13.23914    28.200826    5707.5715 
  205500      205.483    418.15697    17.188228   -438.12786   -420.93964   -8405.4855    3898.8657    916.83572   -30032.158    15.287266    13.239142    28.200808    5707.5697 
  206000      205.983    411.26191    16.904808   -437.81743   -420.91262    -9650.663    475.49784    3145.1879   -32572.675    15.287268    13.239145    28.200791    5707.5679 
  206500      206.483    403.61137    16.590335   -437.47546   -420.88512   -8700.0716   -630.91785    6568.5279   -32037.825     15.28727    13.239147    28.200773    5707.5662 
  207000      206.983    410.21418    16.861741   -437.72065    -420.8589   -7714.2565      3763.23    5171.0511   -32077.051    15.287273    13.239149    28.200756    5707.5644 
  207500      207.483    426.55828    17.533561   -438.36621   -420.83265   -8553.5838    2040.9941    4574.8793   -32276.625    15.287275    13.239151    28.200738    5707.5626 
  208000      207.983    398.84137    16.394265   -437.19942   -420.80516   -9705.6654   -749.28308    3341.9512   -31709.664    15.287278    13.239153    28.200721    5707.5608 
  208500      208.483    410.53594    16.874967   -437.65279   -420.77783   -8263.2131    2378.7624    3040.8109   -30209.213     15.28728    13.239155    28.200703     5707.559 
  209000      208.983    429.01651    17.634606    -438.3862   -420.75159   -8959.7766     6037.251    3100.3478   -36016.929    15.287282    13.239157    28.200686    5707.5573 
  209500      209.483    402.37229    16.539403   -437.26308   -420.72368   -7975.5353    3647.0705    2529.7458   -30103.422    15.287285    13.239159    28.200668    5707.5555 
  210000      209.983    413.94493    17.015093   -437.71133   -420.69624   -7776.5339    4350.7005    1948.3659   -29628.668    15.287287    13.239161    28.200651    5707.5537 
  210500      210.483    447.62503    18.399504   -439.06927   -420.66977   -9177.6892    2401.1789    5082.9209   -35017.167    15.287289    13.239163    28.200633    5707.5519 
  211000      210.983    415.83455    17.092765   -437.73544   -420.64267   -8871.0301    3471.0133    2795.1264    -32879.23    15.287292    13.239165    28.200616    5707.5501 
  211500      211.483    444.35431    18.265062   -438.88101   -420.61595    -8372.215    1547.0257    4558.5051   -31222.176    15.287294    13.239167    28.200598    5707.5484 
  212000      211.983    435.55646    17.903429   -438.49198   -420.58855   -10277.687    1221.9521    3003.5029   -35058.515    15.287296    13.239169    28.200581    5707.5466 
[...]
  948500      948.483    598.83389    24.614903    -433.9084    -409.2935   -3998.3424    8883.2561    6473.8568    -27352.14    15.290758    13.242189    28.174803    5704.9215 
  949000      948.983    529.66351    21.771674   -431.06077    -409.2891   -3263.1725    5334.1814    10274.163   -25397.862     15.29076    13.242191    28.174786    5704.9198 
  949500      949.483    568.18256    23.354989   -432.64134   -409.28635   -3084.8921    7586.7026    8789.4442   -25630.823    15.290763    13.242193    28.174768     5704.918 
  950000      949.983    564.28922    23.194954   -432.47735   -409.28239   -4629.3324    8718.8289    7557.0593   -30163.885    15.290765    13.242195    28.174751    5704.9162 
  950500      950.483     548.1072    22.529796   -431.80874   -409.27895   -1104.4236    9806.4962    9777.9165   -22897.683    15.290767    13.242197    28.174733    5704.9144 
  951000      950.983    596.34164     24.51246   -433.78779   -409.27533   -2454.2749    7001.4376     9793.487   -24157.749     15.29077    13.242199    28.174716    5704.9126 
  951500      951.483    585.92118     24.08413   -433.35605   -409.27192   -4391.5838    5016.3333     10645.47   -28836.554    15.290772    13.242201    28.174698    5704.9108 
  952000      951.983    551.37488    22.664113   -431.93244   -409.26833    -3992.052    8063.1006    8870.1902   -28909.447    15.290774    13.242203    28.174681    5704.9091 
  952500      952.483    606.34998     24.92385   -434.19005    -409.2662   -3409.2758      4534.19    9271.1705   -24033.188    15.290777    13.242205    28.174663    5704.9073 
  953000      952.983    560.06023    23.021122   -432.28249   -409.26137    -2746.949    7665.3271    9402.4284   -25308.602    15.290779    13.242207    28.174646    5704.9055 
  953500      953.483     593.7362    24.405364   -433.66288   -409.25751   -2607.5259    9324.1355    8329.8608   -25476.574    15.290781    13.242209    28.174628    5704.9037 
  954000      953.983    571.16013    23.477381   -432.72936   -409.25198   -3043.5828     7754.235    7390.3577   -24275.341    15.290784    13.242211    28.174611    5704.9019 
  954500      954.483    552.91753    22.727524   -431.97551   -409.24798    -3786.182    4907.9859    11484.146   -27750.678    15.290786    13.242213    28.174593    5704.9001 
  955000      954.983    553.75673    22.762019   -432.00541   -409.24339   -3470.8072    6692.6972    6611.8685   -23716.987    15.290788    13.242215    28.174576    5704.8984 
  955500      955.483    580.77488    23.872592   -433.11279    -409.2402   -1739.1734     7495.823    11816.955   -24530.298    15.290791    13.242217    28.174558    5704.8966 
  956000      955.983    585.26823     24.05729   -433.29201   -409.23472   -3295.9402    9905.6946    10054.138   -29847.653    15.290793     13.24222    28.174541    5704.8948 
  956500      956.483    606.60227     24.93422   -434.16442    -409.2302   -3235.7148    8757.8327    5673.7359   -24138.713    15.290795    13.242222    28.174523     5704.893 
  957000      956.983    551.40115    22.665193   -431.89017   -409.22497   -4102.0247    6535.4495    9405.0539   -28246.577    15.290798    13.242224    28.174506    5704.8912 
  957500      957.483    563.61408    23.167202   -432.38922   -409.22201   -3867.5187     5236.949    8556.1143   -25395.619      15.2908    13.242226    28.174488    5704.8894 
  958000      957.983     562.4422    23.119033   -432.33571   -409.21668   -2912.1384    6128.2073    12508.521   -27373.144    15.290803    13.242228    28.174471    5704.8877 
  958500      958.483    578.97209    23.798489   -433.01024   -409.21175   -4570.2418      4212.54    7381.7974   -25305.063    15.290805     13.24223    28.174453    5704.8859 
  959000      958.983    593.04972    24.377146    -433.5844   -409.20726   -4509.1455    6533.7217     9608.067   -29669.225    15.290807    13.242232    28.174436    5704.8841 
  959500      959.483    574.16726    23.600988   -432.80456   -409.20357   -3018.1301    3713.7871    9673.5952   -22441.773     15.29081    13.242234    28.174418    5704.8823 
  960000      959.983    582.87215      23.9588   -433.15777   -409.19897   -3535.0416    8122.0422    10048.074   -28775.241    15.290812    13.242236    28.174401    5704.8805 
  960500      960.483    574.44496    23.612403   -432.80612   -409.19372   -2743.5565    8900.9741    10943.137   -28074.781    15.290814    13.242238    28.174383    5704.8787 
  961000      960.983    575.88502    23.671596   -432.86083   -409.18923   -3750.4937    6902.8766    9562.7752   -27717.133    15.290817     13.24224    28.174366    5704.8769 
  961500      961.483    555.14741    22.819182   -432.00182   -409.18264   -4368.9568    5606.2656    10972.288   -29685.424    15.290819    13.242242    28.174348    5704.8752 
  962000      961.983    583.85497    23.999199   -433.17712   -409.17792   -2925.4621    9770.9331    7441.3794   -25988.699    15.290821    13.242244    28.174331    5704.8734 
  962500      962.483    588.41756    24.186743   -433.35934   -409.17259   -2710.8035    6103.9238    12462.905   -26699.239    15.290824    13.242246    28.174313    5704.8716 
  963000      962.983    588.36375    24.184531   -433.35201   -409.16748   -4433.4014     6950.003    8240.6615   -28490.869    15.290826    13.242248    28.174296    5704.8698 
  963500      963.483    544.34721    22.375243   -431.53541   -409.16016    -3520.849    6408.3908    9414.4611   -26385.399    15.290828     13.24225    28.174278     5704.868 
  964000      963.983    557.67059    22.922897   -432.07961   -409.15671   -3342.8874    5250.8123    7548.3211   -22827.796    15.290831    13.242252    28.174261    5704.8662 
  964500      964.483    559.78724    23.009901   -432.16098   -409.15108   -3304.9792    7412.9791     8232.414   -25560.331    15.290833    13.242254    28.174243    5704.8645 
  965000      964.983    593.34503    24.389285   -433.53553   -409.14625   -2474.1122    7239.5625    8702.2297   -23364.129    15.290835    13.242256    28.174226    5704.8627 
  965500      965.483    580.79497    23.873418   -433.01328   -409.13986   -3450.3236    6321.8897    8257.7488   -24930.609    15.290838    13.242258    28.174208    5704.8609 
  966000      965.983    543.15262     22.32614   -431.45815   -409.13201   -2915.0568    5275.5155    12341.812   -26362.498     15.29084    13.242261    28.174191    5704.8591 
  966500      966.483    583.65237    23.990871   -433.11873   -409.12786   -4530.9145    6017.3439    11314.686   -30924.774    15.290842    13.242263    28.174173    5704.8573 
  967000      966.983    569.17071    23.395606   -432.51733   -409.12172   -2948.5547    10166.137    9839.1793    -28850.98    15.290845    13.242265    28.174156    5704.8555 
  967500      967.483     545.3902    22.418115   -431.53289   -409.11478   -2437.5703    8711.8372    8477.3726   -24501.921    15.290847    13.242267    28.174138    5704.8538 
  968000      967.983    527.93708    21.700709   -430.80936   -409.10866   -534.18908    10469.145    10592.754   -22664.466     15.29085    13.242269    28.174121     5704.852 
  968500      968.483     574.6144    23.619368   -432.72398   -409.10461   -2446.0914    7773.3134    7867.7863   -22979.374    15.290852    13.242271    28.174103    5704.8502 
  969000      968.983    602.84665    24.779846    -433.8787   -409.09886    -3116.789    5381.0624    10028.601   -24760.031    15.290854    13.242273    28.174086    5704.8484 
  969500      969.483    561.41767    23.076919    -432.1678   -409.09088   -2445.7165     7819.846    9733.4961   -24890.492    15.290857    13.242275    28.174068    5704.8466 
  970000      969.983    581.23677    23.891578   -432.97604   -409.08446   -3261.5459    7792.2929    6695.4427   -24272.373    15.290859    13.242277    28.174051    5704.8448 
  970500      970.483    585.36845     24.06141   -433.14042   -409.07901   -4152.3269    6874.6674    7383.5191   -26715.167    15.290861    13.242279    28.174033    5704.8431 
  971000      970.983    559.13634    22.983146   -432.05583   -409.07269   -3076.8484    5488.1341    10686.273   -25404.953    15.290864    13.242281    28.174016    5704.8413 
  971500      971.483    586.14442    24.093306   -433.15883   -409.06553   -4683.7365     3326.155    8822.4262   -26199.791    15.290866    13.242283    28.173998    5704.8395 
  972000      971.983    565.91059      23.2616   -432.32105   -409.05945   -3745.9456    7611.4478    7399.9176   -26249.202    15.290868    13.242285    28.173981    5704.8377 
  972500      972.483    594.23576    24.425898   -433.47939    -409.0535   -3885.1605    5192.9613    6410.3819   -23258.825    15.290871    13.242287    28.173963    5704.8359 
  973000      972.983    557.92575    22.933385   -431.98052   -409.04714   -3521.5535    7329.1049    7365.7067   -25259.472    15.290873    13.242289    28.173946    5704.8341 
  973500      973.483    605.32385    24.881671   -433.92195   -409.04028     -3616.53    9034.1175    6299.7717   -26183.479    15.290875    13.242291    28.173928    5704.8324 
  974000      973.983    597.28346    24.551173   -433.58532   -409.03415   -2925.4734    8425.4769    9725.2451   -26927.142    15.290878    13.242293    28.173911    5704.8306 
  974500      974.483    557.56911    22.918726   -431.94564   -409.02691    -3813.157    7211.7567    10955.922    -29607.15     15.29088    13.242295    28.173893    5704.8288 
  975000      974.983    545.32095    22.415268   -431.43496   -409.01969   -1463.7915    5709.3974    11698.926   -21799.698    15.290882    13.242297    28.173876     5704.827 
  975500      975.483    566.87674    23.301313   -432.31541    -409.0141   -2793.7615    7382.8181    10675.674   -26439.777    15.290885    13.242299    28.173858    5704.8252 
  976000      975.983    574.72914    23.624084   -432.63162   -409.00754   -4937.8036    9748.5646    6079.3124   -30641.288    15.290887    13.242302    28.173841    5704.8234 
  976500      976.483    557.81509    22.928836   -431.92938   -409.00054   -2933.2072    6438.7012    10657.057    -25895.38    15.290889    13.242304    28.173823    5704.8217 
  977000      976.983    569.47578    23.408146   -432.40188   -408.99373   -3379.1175     7966.659    10922.927   -29026.938    15.290892    13.242306    28.173806    5704.8199 
  977500      977.483    594.80122    24.449141   -433.43674    -408.9876   -3314.3758    8823.2716     4754.126   -23520.525    15.290894    13.242308    28.173788    5704.8181 
  978000      977.983    543.25429    22.330319   -431.31168   -408.98136   -1311.3163    10699.295    8646.1557   -23279.399    15.290897     13.24231    28.173771    5704.8163 
  978500      978.483    568.92715    23.385595   -432.35958   -408.97398   -4102.8486    3830.4075    9154.6685   -25293.622    15.290899    13.242312    28.173753    5704.8145 
  979000      978.983     570.3447    23.443863   -432.40888   -408.96502   -3728.8116    5109.4774     9196.843   -25492.755    15.290901    13.242314    28.173736    5704.8127 
  979500      979.483     574.8658    23.629701   -432.58862   -408.95892   -3354.7583    9167.5498    10055.659   -29287.483    15.290904    13.242316    28.173718     5704.811 
  980000      979.983    544.66026    22.388111   -431.33901    -408.9509   -2542.5148    7379.2524    9968.7498   -24975.547    15.290906    13.242318    28.173701    5704.8092 
  980500      980.483    541.71768    22.267157   -431.20955   -408.94239     -1862.13    7211.1219    8223.2869   -21020.799    15.290908     13.24232    28.173683    5704.8074 
  981000      980.983    560.41899    23.035869   -431.97084   -408.93498   -2872.4012    9559.0903    11448.063   -29624.357    15.290911    13.242322    28.173666    5704.8056 
  981500      981.483    540.83075      22.2307   -431.15692   -408.92622   -3977.9308    7610.1293    9441.5344   -28985.456    15.290913    13.242324    28.173648    5704.8038 
  982000      981.983    574.61427    23.619362   -432.53817    -408.9188   -599.59966    9894.3004    9012.6797   -20705.779    15.290915    13.242326    28.173631     5704.802 
  982500      982.483    564.69231    23.211523   -432.12259   -408.91107   -2869.0845     9707.874     7226.156   -25541.283    15.290918    13.242328    28.173613    5704.8003 
  983000      982.983    535.07802    21.994235   -430.89764   -408.90341   -2672.5791    6820.6642    11001.275   -25839.677     15.29092     13.24233    28.173596    5704.7985 
  983500      983.483    602.51437    24.766188   -433.66389    -408.8977   -2329.8848    8112.3166    8962.7682   -24064.739    15.290922    13.242332    28.173578    5704.7967 
  984000      983.983    575.57487    23.658848    -432.5478   -408.88895   -2059.8337    8701.9924    8083.0319   -22964.525    15.290925    13.242334    28.173561    5704.7949 
  984500      984.483    586.15579    24.093773   -432.97596   -408.88219   -3494.9483    11224.621    6917.0332     -28626.5    15.290927    13.242336    28.173543    5704.7931 
  985000      984.983    578.06126     23.76105   -432.63519   -408.87414   -2999.0522    6392.7731    4761.8482   -20151.778    15.290929    13.242338    28.173526    5704.7913 
  985500      985.483    580.30511    23.853282   -432.71958   -408.86629   -3837.2364    6832.0757    5426.7752    -23770.56    15.290932     13.24234    28.173508    5704.7896 
  986000      985.983    597.18195    24.547001   -433.40616   -408.85916    -3859.215    6462.8883    9435.2235   -27475.757    15.290934    13.242343    28.173491    5704.7878 
  986500      986.483    566.73448    23.295466   -432.14639   -408.85093   -2630.6608    9181.9562    10025.515   -27099.453    15.290936    13.242345    28.173473     5704.786 
  987000      986.983    627.83417    25.806951   -434.65266   -408.84571   -5636.6124    6847.2949    6462.9877    -30220.12    15.290939    13.242347    28.173456    5704.7842 
  987500      987.483    553.36801    22.746041   -431.58322   -408.83718   -3082.5555    7136.7423    10862.266   -27246.675    15.290941    13.242349    28.173438    5704.7824 
  988000      987.983    566.26765    23.276276   -432.10692   -408.83064   -2889.7887    7498.2283    12089.564   -28257.159    15.290944    13.242351    28.173421    5704.7806 
  988500      988.483    572.18818    23.519638   -432.33954    -408.8199   -2763.6208     7269.485    9686.6269   -25246.974    15.290946    13.242353    28.173403    5704.7789 
  989000      988.983     596.4512    24.516963   -433.32991   -408.81294   -2568.8806     8841.534    10050.696   -26598.871    15.290948    13.242355    28.173386    5704.7771 
  989500      989.483    573.20791    23.561554    -432.3669   -408.80535   -3378.8605    6618.7772    8654.9897   -25410.348    15.290951    13.242357    28.173368    5704.7753 
  990000      989.983    541.40232    22.254194   -431.05037   -408.79618   -2307.9148    10723.307    9463.9901   -27111.041    15.290953    13.242359    28.173351    5704.7735 
  990500      990.483    575.09495    23.639121   -432.42702    -408.7879   -3825.5533    5556.0112    10747.745   -27780.416    15.290955    13.242361    28.173333    5704.7717 
  991000      990.983    548.95763    22.564753   -431.34369   -408.77893   -2644.3824     4864.231    9997.3875   -22794.766    15.290958    13.242363    28.173316    5704.7699 
  991500      991.483    588.19206    24.177474    -432.9468   -408.76932   -3525.2241    7167.6586    7536.4369   -25279.768     15.29096    13.242365    28.173298    5704.7681 
  992000      991.983    604.22575    24.836534    -433.5986   -408.76207   -3973.0901    4602.8079    8659.1423    -25181.22    15.290962    13.242367    28.173281    5704.7664 
  992500      992.483    575.81961    23.668907   -432.42272   -408.75381   -3833.9272    6783.8514    5971.8333   -24257.466    15.290965    13.242369    28.173263    5704.7646 
  993000      992.983    612.06691    25.158843   -433.90351   -408.74467   -3797.4417    8571.4499    5766.8098   -25730.585    15.290967    13.242371    28.173246    5704.7628 
  993500      993.483    562.71579    23.130278   -431.86725   -408.73697   -2607.3814    7561.6476    8542.3185    -23926.11    15.290969    13.242373    28.173228     5704.761 
  994000      993.983     591.2123     24.30162    -433.0283   -408.72668   -365.61274    6592.0432    14787.405   -22476.287    15.290972    13.242375    28.173211    5704.7592 
  994500      994.483    578.22455    23.767762    -432.4856   -408.71784    -2414.258    9003.1342    11326.051   -27571.959    15.290974    13.242377    28.173193    5704.7574 
  995000      994.983    581.03876    23.883439   -432.59188   -408.70844   -4639.8869    7852.8372    9469.8913   -31242.389    15.290976    13.242379    28.173176    5704.7557 
  995500      995.483    586.93094    24.125636   -432.82408   -408.69844   -2248.8694    11447.996    7958.1416   -26152.746    15.290979    13.242381    28.173158    5704.7539 
  996000      995.983    583.30863    23.976741    -432.6663   -408.68956    -4115.131    7679.9468    7494.2236   -27519.563    15.290981    13.242384    28.173141    5704.7521 
  996500      996.483      568.642    23.373874   -432.05448    -408.6806   -4401.3634    6718.4348    10399.174   -30321.699    15.290983    13.242386    28.173123    5704.7503 
  997000      996.983    591.24516     24.30297   -432.97531   -408.67234   -2972.1853    5478.6326    8873.9675   -23269.156    15.290986    13.242388    28.173106    5704.7485 
  997500      997.483    553.79623    22.763642   -431.42497   -408.66133   -974.69781    9483.1625    11299.268   -23706.524    15.290988     13.24239    28.173088    5704.7467 
  998000      997.983    593.62005     24.40059   -433.05485   -408.65426    -3788.144    6196.4559    9090.6986   -26651.587    15.290991    13.242392    28.173071     5704.745 
  998500      998.483    560.97339    23.058658    -431.7032   -408.64455   -2044.6268    10357.969    8205.5379   -24697.387    15.290993    13.242394    28.173053    5704.7432 
  999000      998.983     577.0651    23.720103   -432.35494   -408.63483   -2138.1024    8729.9599    6266.8654   -21411.133    15.290995    13.242396    28.173036    5704.7414 
  999500      999.483    600.91455    24.700428   -433.32608   -408.62565   -3295.1135    7835.9013    10839.503   -28560.745    15.290998    13.242398    28.173018    5704.7396 
 1000000      999.983    611.37271    25.130308   -433.74733   -408.61702    -4528.665    4456.6537    8930.9487   -26973.597       15.291      13.2424    28.173001    5704.7378 
 1000017         1000    588.25101    24.179897   -432.79629    -408.6164   -3116.5688    8672.2038    8949.3336   -26971.244       15.291      13.2424       28.173    5704.7378 
Loop time of 873.335 on 28 procs for 1000000 steps with 319 atoms

Performance: 98.931 ns/day, 0.243 hours/ns, 1145.036 timesteps/s
86.8% CPU use with 28 MPI tasks x no OpenMP threads

MPI task timing breakdown:
Section |  min time  |  avg time  |  max time  |%varavg| %total
---------------------------------------------------------------
Pair    | 737.9      | 760.5      | 795.8      |  54.3 | 87.08
Neigh   | 0.025425   | 0.036583   | 0.046114   |   3.0 |  0.00
Comm    | 67.075     | 99.506     | 123.26     | 149.7 | 11.39
Output  | 0.10006    | 0.10224    | 0.12318    |   1.3 |  0.01
Modify  | 4.9553     | 8.176      | 12.763     |  74.0 |  0.94
Other   |            | 5.015      |            |       |  0.57

Nlocal:    11.3929 ave 15 max 6 min
Histogram: 1 2 3 2 1 3 3 6 5 2
Nghost:    648 ave 700 max 598 min
Histogram: 7 1 2 2 1 2 2 4 4 3
Neighs:    695.286 ave 928 max 394 min
Histogram: 3 2 2 1 2 3 4 3 4 4
FullNghs:  1390.57 ave 1834 max 727 min
Histogram: 3 0 3 2 1 3 3 5 2 6

Total # of neighbors = 38936
Ave neighs/atom = 122.056
Neighbor list builds = 541
Dangerous builds = 0

write_restart   POSCAR_1x1x1.rest

#unfix    1
#undump   1
Total wall time: 0:14:33
