LAMMPS (7 Dec 2015)
#----------- Initialize Simulation ------------ restart01
#processors	2 2 2
units		metal
boundary	p p p     ## periodic boundary condition  on x y z axis ##
atom_style atomic
#atom_modify map array sort 0 0.0

read_data	POSCAR_1x1x1.lammps
  triclinic box = (0 0 0) to (15.3386 13.2836 27.8231) with tilt (-7.6692 0 0)
  2 by 2 by 7 MPI processor grid
  reading atoms ...
  319 atoms

#----------- Define Potential -----------------
pair_style meam
pair_coeff * * MgAlZn.library.meam Mg Al Zn MgAlZn.parameter.meam Mg Al Zn 	#1=Mg 2=Al 3=Zn	#atoms/mass

#----------- Neighbor List --------------------
neighbor 2.0 bin
neigh_modify delay 10 check yes

#--------------  Run a simulation (minimization) ---------------------------------------
minimize       1.0e-4   1.0e-6   100   1000          #結構優化的條件
WARNING: Resetting reneighboring criteria during minimization (../min.cpp:168)
Neighbor list info ...
  2 neighbor list requests
  update every 1 steps, delay 0 steps, check yes
  max neighbors/atom: 2000, page size: 100000
  master list distance cutoff = 8
  ghost atom cutoff = 8
  binsize = 4 -> bins = 6 4 7
Memory usage per processor = 8.65577 Mbytes
Step Temp E_pair E_mol TotEng Press 
       0            0   -434.43918            0   -434.43918   -6856.5707 
      12            0   -456.61106            0   -456.61106   -23238.738 
Loop time of 0.0187683 on 28 procs for 12 steps with 319 atoms

83.2% CPU use with 28 MPI tasks x no OpenMP threads

Minimization stats:
  Stopping criterion = energy tolerance
  Energy initial, next-to-last, final = 
        -434.439181067     -456.573935665     -456.611059855
  Force two-norm initial, final = 19.51 0.768861
  Force max component initial, final = 2.62835 0.154367
  Final line search alpha, max atom move = 0.61117 0.0943447
  Iterations, force evaluations = 12 20

MPI task timing breakdown:
Section |  min time  |  avg time  |  max time  |%varavg| %total
---------------------------------------------------------------
Pair    | 0.015411   | 0.016064   | 0.016799   |   0.3 | 85.59
Neigh   | 0          | 0          | 0          |   0.0 |  0.00
Comm    | 0.0011301  | 0.0018333  | 0.002452   |   0.8 |  9.77
Output  | 0          | 0          | 0          |   0.0 |  0.00
Modify  | 0          | 0          | 0          |   0.0 |  0.00
Other   |            | 0.0008712  |            |       |  4.64

Nlocal:    11.3929 ave 16 max 7 min
Histogram: 1 6 1 2 3 4 4 4 2 1
Nghost:    649 ave 694 max 596 min
Histogram: 4 4 0 3 1 1 3 5 2 5
Neighs:    701.821 ave 980 max 424 min
Histogram: 2 5 2 3 1 2 3 6 2 2
FullNghs:  1403.64 ave 1999 max 864 min
Histogram: 4 3 3 0 4 3 4 2 4 1

Total # of neighbors = 39302
Ave neighs/atom = 123.204
Neighbor list builds = 0
Dangerous builds = 0
velocity all  create 600.0 4928459 #rot yes dist gaussian

#--------------  Run a simulation (Relaxation)  ----------------------------------------
fix  1  all  nvt   temp  600.0  600.0  100				#damping constant
#fix  2  all  npt   temp  393.0  393.0  50 iso 0.0 0.0 1000.0
fix  2  all deform 1 x final 0 15.3433 y final 0 13.2877 z final 0 27.7881 xy final -7.67155 units lattice
#fix  3  all  npt   temp  393.0  393.0  50 z 0.0 0.0 1000.0

#variable b equal 1
#fix 2 all efield  0.0  0.0  v_b
#compute pot all pe/atom


#----------- Output --------------------------
thermo	 500
timestep  0.001		#1.0 fs
thermo_style	custom step time temp ke pe etotal press pxx pyy pzz lx ly lz vol

dump 1 all custom 10000 dump.eq id type x y z
dump_modify 1 sort  id

run        1000000	#1000 ps
Neighbor list info ...
  2 neighbor list requests
  update every 1 steps, delay 10 steps, check yes
  max neighbors/atom: 2000, page size: 100000
  master list distance cutoff = 8
  ghost atom cutoff = 8
  binsize = 4 -> bins = 6 4 7
Memory usage per processor = 7.56171 Mbytes
Step Time Temp KinEng PotEng TotEng Press Pxx Pyy Pzz Lx Ly Lz Volume 
      12            0          600    24.662836   -456.61106   -431.94822   -18591.926   -5707.7148   -13143.174    -36924.89      15.3386      13.2836      27.8231    5669.0075 
     500        0.488    307.56663    12.642442   -444.58641   -431.94397   -11622.183    1198.5196    -5016.281   -31048.786    15.338602    13.283602    27.823083    5669.0057 
    1000        0.988    314.92622    12.944956   -444.88878   -431.94382   -13224.407   -1044.8753   -5890.6757    -32737.67    15.338605    13.283604    27.823065    5669.0039 
    1500        1.488    325.24001    13.368901   -445.31227   -431.94337   -11398.041   -350.28027   -6658.4038    -27185.44    15.338607    13.283606    27.823048     5669.002 
    2000        1.988    299.98509    12.330805   -444.27282   -431.94202   -11538.488    1197.4092   -7844.8087   -27968.064    15.338609    13.283608     27.82303    5669.0002 
    2500        2.488    310.77716     12.77441    -444.7153   -431.94089   -12388.885   -1239.8688   -4924.1069    -31002.68    15.338612     13.28361    27.823013    5668.9984 
    3000        2.988    307.98758    12.659745   -444.59906   -431.93932   -12303.897   -16.726279   -5927.4581   -30967.506    15.338614    13.283612    27.822995    5668.9966 
    3500        3.488    314.58224    12.930817   -444.86818   -431.93737   -11984.187   -932.27767   -8499.2244   -26521.058    15.338616    13.283614    27.822978    5668.9947 
    4000        3.988     319.4235    13.129815   -445.06496   -431.93514   -12435.808    963.98832   -7698.8897   -30572.523    15.338619    13.283616     27.82296    5668.9929 
    4500        4.488    307.29254    12.631176    -444.5638   -431.93262   -11634.143    87.584794   -8836.1664   -26153.847    15.338621    13.283618    27.822943    5668.9911 
    5000        4.988    304.04726    12.497779   -444.42731   -431.92953   -11200.938    2227.6206   -6881.7468   -28948.689    15.338623     13.28362    27.822925    5668.9893 
    5500        5.488    316.44823    13.007518   -444.93431   -431.92679   -12726.362    -255.8088   -9112.3591   -28810.919    15.338626    13.283623    27.822908    5668.9875 
    6000        5.988    295.57336    12.149462   -444.07251   -431.92305   -12232.351    427.76838   -6092.2947   -31032.525    15.338628    13.283625     27.82289    5668.9856 
    6500        6.488    307.21501    12.627989    -444.5472   -431.91921   -11221.841    1581.6818   -6625.4388   -28621.765     15.33863    13.283627    27.822873    5668.9838 
    7000        6.988    298.85294    12.284268   -444.19915   -431.91488   -11189.675    208.60569   -7040.9913    -26736.64    15.338633    13.283629    27.822855     5668.982 
    7500        7.488    323.07966    13.280101   -445.19111   -431.91101   -12220.039    1509.3492   -5272.8719   -32896.595    15.338635    13.283631    27.822838    5668.9802 
    8000        7.988    324.61928    13.343387   -445.24969    -431.9063   -11472.127    887.36907   -7215.7481   -28088.002    15.338638    13.283633     27.82282    5668.9783 
    8500        8.488     307.6642    12.646453   -444.54694   -431.90049   -11872.772    940.28122   -6307.2578   -30251.339     15.33864    13.283635    27.822803    5668.9765 
    9000        8.988    325.54694    13.381518   -445.27673   -431.89521   -12197.679   -361.39097   -6026.7298   -30204.916    15.338642    13.283637    27.822785    5668.9747 
    9500        9.488    298.58915    12.273425   -444.16276   -431.88934   -12523.097   -487.47859   -4521.8643   -32559.948    15.338645    13.283639    27.822768    5668.9729 
   10000        9.988    304.87094    12.531637   -444.41498   -431.88334   -11695.998    806.65181   -7752.1783   -28142.469    15.338647    13.283641     27.82275    5668.9711 
   10500       10.488    305.97457    12.577001   -444.45438   -431.87738   -10769.862    2121.9122   -7104.9579   -27326.539    15.338649    13.283643    27.822733    5668.9692 
   11000       10.988    326.88906    13.436685    -445.3075   -431.87082   -12419.412   -640.70793   -7270.8615   -29346.666    15.338652    13.283645    27.822715    5668.9674 
   11500       11.488    324.74647    13.348615   -445.21259   -431.86397   -12639.602    889.63694   -6583.8286   -32224.613    15.338654    13.283647    27.822698    5668.9656 
   12000       11.988    290.21243    11.929102   -443.78514   -431.85603    -11384.86   -1219.6352   -6367.4218   -26567.522    15.338656    13.283649     27.82268    5668.9638 
   12500       12.488    295.33571    12.139693   -443.98856   -431.84886   -11409.658   -450.03932   -6266.2005   -27512.735    15.338659    13.283651    27.822663    5668.9619 
   13000       12.988    293.51416    12.064819   -443.90604   -431.84122   -10367.543    324.64612   -5471.1831   -25956.093    15.338661    13.283653    27.822645    5668.9601 
   13500       13.488    314.85505    12.942031   -444.77524   -431.83321   -12065.318    699.03762   -6711.0497   -30183.941    15.338663    13.283655    27.822628    5668.9583 
   14000       13.988    325.56994    13.382463   -445.20741   -431.82494    -11489.23    126.87936   -4374.3147   -30220.255    15.338666    13.283657     27.82261    5668.9565 
   14500       14.488    322.94372    13.274513   -445.09091    -431.8164   -13038.673    -1084.188   -8586.4913   -29445.339    15.338668    13.283659    27.822593    5668.9547 
   15000       14.988    327.09404    13.445111   -445.25225   -431.80714   -11493.036    482.62888   -7402.7598   -27558.977     15.33867    13.283661    27.822575    5668.9528 
   15500       15.488    314.19495    12.914897   -444.71271   -431.79781   -12348.288   -1000.9445   -6117.5902    -29926.33    15.338673    13.283664    27.822558     5668.951 
   16000       15.988    318.77843      13.1033   -444.89147   -431.78817   -12401.987   -918.83518   -6205.4418   -30081.685    15.338675    13.283666     27.82254    5668.9492 
   16500       16.488    310.92633    12.780542   -444.55848   -431.77794   -12591.775      260.165   -8729.7931   -29305.697    15.338677    13.283668    27.822523    5668.9474 
   17000       16.988    309.21874    12.710351   -444.47804   -431.76769   -11690.753     559.8987    -7246.401   -28385.756     15.33868     13.28367    27.822505    5668.9455 
   17500       17.488    311.27924    12.795048   -444.55228   -431.75723     -11626.9    358.57095   -5826.9062   -29412.365    15.338682    13.283672    27.822488    5668.9437 
   18000       17.988    311.45455    12.802254   -444.54841   -431.74616   -12053.726   -134.05661   -5430.0994   -30597.023    15.338685    13.283674     27.82247    5668.9419 
   18500       18.488    302.17158     12.42068   -444.15582   -431.73514   -10858.654    2885.3162   -5544.6727   -29916.604    15.338687    13.283676    27.822453    5668.9401 
   19000       18.988    314.41414    12.923907   -444.64759   -431.72368   -12396.975   -17.335205   -8231.0564   -28942.534    15.338689    13.283678    27.822435    5668.9383 
   19500       19.488    318.18262    13.078809   -444.79089   -431.71208   -11817.612    192.34822   -8638.1482   -27007.035    15.338692     13.28368    27.822418    5668.9364 
   20000       19.988    300.72065     12.36104    -444.0606   -431.69956   -12027.884    728.09866   -6206.0316    -30605.72    15.338694    13.283682      27.8224    5668.9346 
   20500       20.488    325.69264    13.387507   -445.07517   -431.68766   -11956.845    284.16049   -8720.0613   -27434.634    15.338696    13.283684    27.822383    5668.9328 
   21000       20.988    317.72226    13.059887   -444.73482   -431.67493   -12091.258    869.05194   -4934.8011   -32208.026    15.338699    13.283686    27.822365     5668.931 
   21500       21.488    318.60625    13.096223   -444.75839   -431.66217   -11284.392    1227.5228   -5937.6761   -29143.023    15.338701    13.283688    27.822348    5668.9291 
   22000       21.988    305.71106    12.566169   -444.21495   -431.64878   -11764.464   -1519.6016   -3898.4903     -29875.3    15.338703     13.28369     27.82233    5668.9273 
   22500       22.488    306.09012     12.58175   -444.21676   -431.63501   -11567.877   -366.62731   -5956.1273   -28380.877    15.338706    13.283692    27.822313    5668.9255 
   23000       22.988    303.48084    12.474497   -444.09583   -431.62133    -12039.51   -83.889784   -6391.6919   -29642.947    15.338708    13.283694    27.822295    5668.9237 
   23500       23.488    312.34636    12.838911   -444.44639   -431.60748   -12156.427    61.236576   -6511.1818   -30019.337     15.33871    13.283696    27.822278    5668.9219 
   24000       23.988    327.69151     13.46967   -445.06331   -431.59364   -11869.542    462.51942   -7178.4068   -28892.738    15.338713    13.283698     27.82226      5668.92 
   24500       24.488    313.97329    12.905786   -444.48442   -431.57863   -11406.881    -445.2741   -8004.1681   -25771.202    15.338715      13.2837    27.822243    5668.9182 
   25000       24.988    320.83576    13.187866    -444.7518   -431.56394   -12073.288    423.34221    -6075.741   -30567.467    15.338717    13.283702    27.822225    5668.9164 
   25500       25.488    307.68621    12.647357   -444.19607   -431.54871   -12609.304    186.00065   -7531.0304   -30482.882     15.33872    13.283705    27.822208    5668.9146 
   26000       25.988    308.82166     12.69403    -444.2278   -431.53377   -11949.034   -180.43602   -7889.8427   -27776.824    15.338722    13.283707     27.82219    5668.9127 
   26500       26.488    307.06123    12.621668    -444.1396   -431.51794   -10942.056    1046.0178   -7922.8913   -25949.293    15.338724    13.283709    27.822173    5668.9109 
   27000       26.988    317.43408    13.048041   -444.55033   -431.50229   -11744.352   -1264.2454    -4786.745   -29182.065    15.338727    13.283711    27.822155    5668.9091 
   27500       27.488     315.9104     12.98541   -444.47157   -431.48616   -12875.472    1527.5061   -6174.4987   -33979.422    15.338729    13.283713    27.822138    5668.9073 
   28000       27.988    322.82823    13.269766   -444.73996   -431.47019   -11285.982   -1030.4931   -5350.9151   -27476.537    15.338732    13.283715     27.82212    5668.9055 
   28500       28.488     318.9173    13.109008   -444.56277   -431.45376   -11839.001   -1042.8249   -5916.9768   -28557.202    15.338734    13.283717    27.822103    5668.9036 
   29000       28.988    335.04644    13.771992   -445.20943   -431.43744   -12605.124   -1188.0777   -7954.8224   -28672.472    15.338736    13.283719    27.822085    5668.9018 
   29500       29.488     305.5883    12.561123   -443.98128   -431.42015   -12202.139    1555.0582   -6287.2783   -31874.198    15.338739    13.283721    27.822068       5668.9 
   30000       29.988     323.4733    13.296281   -444.69959   -431.40331   -11214.837    1452.5806    -5575.062   -29522.029    15.338741    13.283723     27.82205    5668.8982 
   30500       30.488    304.84599    12.530611   -443.91642   -431.38581   -10374.231    890.92671   -6311.2256   -25702.395    15.338743    13.283725    27.822033    5668.8963 
   31000       30.988     326.8754    13.436124   -444.80533   -431.36921   -11590.487    449.31601   -8220.4945   -27000.281    15.338746    13.283727    27.822015    5668.8945 
   31500       31.488     317.2473    13.040363   -444.39126   -431.35089   -11278.229    720.16552   -4276.9595   -30277.892    15.338748    13.283729    27.821998    5668.8927 
   32000       31.988    314.73229    12.936984    -444.2702   -431.33322   -12241.567    275.37254   -4346.1724   -32653.901     15.33875    13.283731     27.82198    5668.8909 
   32500       32.488    324.81866    13.351582   -444.66693   -431.31534   -11712.908   -83.831382   -8526.7282   -26528.164    15.338753    13.283733    27.821963    5668.8891 
   33000       32.988    321.41536     13.21169   -444.50928   -431.29759   -11236.996   -915.93857   -6764.7229   -26030.326    15.338755    13.283735    27.821945    5668.8872 
   33500       33.488     305.9876    12.577536   -443.85695   -431.27941   -10766.627    1698.2808   -5296.9463   -28701.216    15.338757    13.283737    27.821928    5668.8854 
   34000       33.988     326.9132    13.437678   -444.69893   -431.26125   -11339.952    165.40779   -4022.2614   -30163.002     15.33876    13.283739     27.82191    5668.8836 
   34500       34.488    317.09764    13.034212   -444.27699   -431.24278   -10944.774    1945.5359   -4925.4318   -29854.425    15.338762    13.283741    27.821893    5668.8818 
   35000       34.988    320.78276    13.185687   -444.40983   -431.22414   -11357.706    496.76503   -7889.4695   -26680.414    15.338764    13.283743    27.821875    5668.8799 
   35500       35.488     349.0699    14.348423   -445.55433    -431.2059   -11814.688    2641.3294   -7968.2445    -30117.15    15.338767    13.283746    27.821858    5668.8781 
   36000       35.988    315.37803    12.963528   -444.15063    -431.1871   -11049.714    1639.1264   -3276.7901   -31511.479    15.338769    13.283748     27.82184    5668.8763 
   36500       36.488    323.18175    13.284297   -444.45235   -431.16805   -11334.684    2272.6804   -4283.8226    -31992.91    15.338771     13.28375    27.821823    5668.8745 
   37000       36.988    319.70183    13.141256   -444.29066    -431.1494   -11258.595   -40.311953   -5935.1634   -27800.309    15.338774    13.283752    27.821805    5668.8726 
   37500       37.488    323.46273    13.295847   -444.42698   -431.13113   -11862.343    309.77595   -4135.1867   -31761.619    15.338776    13.283754    27.821788    5668.8708 
   38000       37.988    332.28018    13.658286    -444.7705   -431.11221   -11913.801    1500.9319   -4646.8832   -32595.452    15.338779    13.283756     27.82177     5668.869 
   38500       38.488    324.83622    13.352304   -444.44516   -431.09286   -11303.619    584.38336   -6137.5228   -28357.718    15.338781    13.283758    27.821753    5668.8672 
   39000       38.988    324.84365    13.352609   -444.42669   -431.07408   -11872.507    304.74005   -6495.7183   -29426.542    15.338783     13.28376    27.821735    5668.8654 
   39500       39.488    326.77252    13.431895   -444.48702   -431.05512   -11663.243    541.30321   -4994.8194   -30536.214    15.338786    13.283762    27.821718    5668.8635 
   40000       39.988    333.17265     13.69497    -444.7309   -431.03593   -12281.255   -1715.1393    -6478.738   -28649.887    15.338788    13.283764      27.8217    5668.8617 
   40500       40.488    324.34669    13.332182   -444.34862   -431.01644   -12294.753    -263.7639   -5540.3634   -31080.133     15.33879    13.283766    27.821683    5668.8599 
   41000       40.988    320.32165    13.166734   -444.16424   -430.99751    -11202.84   -1901.7097   -4789.5504   -26917.261    15.338793    13.283768    27.821665    5668.8581 
   41500       41.488    319.86843    13.148104   -444.12691    -430.9788   -12602.996   -2209.1406   -7853.0629   -27746.784    15.338795     13.28377    27.821648    5668.8562 
   42000       41.988    317.10871    13.034666   -443.99429   -430.95963   -11284.469    409.11304   -5171.3734   -29091.146    15.338797    13.283772     27.82163    5668.8544 
   42500       42.488    335.95812    13.809466   -444.75026   -430.94079   -10769.002    668.44198   -5547.0197   -27428.429      15.3388    13.283774    27.821613    5668.8526 
   43000       42.988    307.26969    12.630236   -443.55169   -430.92145   -11406.962   -214.27519   -6626.4404    -27380.17    15.338802    13.283776    27.821595    5668.8508 
   43500       43.488    311.31562    12.796543   -443.69874   -430.90219   -9974.8117    802.55757    -3049.508   -27677.485    15.338804    13.283778    27.821578     5668.849 
   44000       43.988    328.54243    13.504647   -444.38902   -430.88437   -11568.387    893.24094   -7361.4516   -28236.952    15.338807     13.28378     27.82156    5668.8471 
   44500       44.488    318.76238     13.10264   -443.96801   -430.86537   -10938.653    1064.5234   -6979.3749   -26901.107    15.338809    13.283782    27.821543    5668.8453 
   45000       44.988    338.71286    13.922699   -444.76926   -430.84656   -11687.794    1246.7492   -6068.4685   -30241.663    15.338811    13.283784    27.821525    5668.8435 
   45500       45.488    327.25248    13.451624   -444.27944   -430.82782   -12297.499   -1893.9201   -5972.1269    -29026.45    15.338814    13.283787    27.821508    5668.8417 
   46000       45.988     318.5959    13.095797   -443.90478   -430.80899    -11043.76   -587.41075   -5262.3369   -27281.532    15.338816    13.283789     27.82149    5668.8398 
   46500       46.488    322.29944     13.24803   -444.03854   -430.79051   -11416.424    551.84183   -5777.6734   -29023.441    15.338818    13.283791    27.821473     5668.838 
   47000       46.988    307.60724    12.644111   -443.41594   -430.77183   -10609.168    1184.6146   -4118.9929   -28893.125    15.338821    13.283793    27.821455    5668.8362 
   47500       47.488    324.27675    13.329307   -444.08352   -430.75422    -11662.58   -1360.4293   -5435.4544   -28191.857    15.338823    13.283795    27.821438    5668.8344 
   48000       47.988    327.26788    13.452257   -444.18789   -430.73564   -11366.081    801.32512   -4410.4434   -30489.124    15.338826    13.283797     27.82142    5668.8326 
   48500       48.488    330.39467    13.580782   -444.29828    -430.7175   -12034.453    1766.1278   -8664.0836   -29205.402    15.338828    13.283799    27.821403    5668.8307 
   49000       48.988    317.36596    13.045241   -443.74409   -430.69885   -10641.208    3440.2557   -5282.2848   -30081.593     15.33883    13.283801    27.821385    5668.8289 
   49500       49.488    336.51264     13.83226   -444.51393   -430.68167   -11598.534     879.4855    -6638.551   -29036.537    15.338833    13.283803    27.821368    5668.8271 
   50000       49.988    341.54416    14.039079   -444.70315   -430.66407   -11068.718    1609.0919   -5964.6481   -28850.597    15.338835    13.283805     27.82135    5668.8253 
   50500       50.488    346.29371    14.234308   -444.88024   -430.64593   -12179.651   -320.15897   -6884.7268   -29334.067    15.338837    13.283807    27.821333    5668.8234 
   51000       50.988    332.10233    13.650975   -444.27886   -430.62789   -10504.139   -1215.7156   -6268.6874   -24028.013     15.33884    13.283809    27.821315    5668.8216 
   51500       51.488    313.06041    12.868262   -443.47843   -430.61017   -11060.256   -695.84444   -5604.8804   -26880.043    15.338842    13.283811    27.821298    5668.8198 
   52000       51.988    338.05232    13.895548   -444.48858   -430.59303   -11562.084   -204.74396   -6994.6304   -27486.879    15.338844    13.283813     27.82128     5668.818 
   52500       52.488    334.70804    13.758082   -444.33352   -430.57544   -12406.801    1025.6957     -8023.25   -30222.847    15.338847    13.283815    27.821263    5668.8162 
   53000       52.988    327.80995    13.474538   -444.03317   -430.55863   -11444.812    282.21666   -7547.0271   -27069.626    15.338849    13.283817    27.821245    5668.8143 
   53500       53.488    339.27664    13.945873   -444.48713   -430.54125   -12789.651   -3250.0524   -5703.4748   -29415.426    15.338851    13.283819    27.821228    5668.8125 
   54000       53.988    330.03437    13.565973   -444.09043   -430.52446   -12241.216    -190.9035    -6629.899   -29902.846    15.338854    13.283821     27.82121    5668.8107 
   54500       54.488    324.10272    13.322154   -443.82922   -430.50706   -9996.3346    905.92475   -3657.3216   -27237.607    15.338856    13.283823    27.821193    5668.8089 
   55000       54.988     329.7087    13.552586   -444.04298   -430.49039   -10137.431    3117.3621   -6384.0762   -27145.578    15.338858    13.283825    27.821175     5668.807 
   55500       55.488    349.47773    14.365186   -444.83894   -430.47375   -12286.817   -1249.8022   -5738.7581    -29871.89    15.338861    13.283828    27.821158    5668.8052 
   56000       55.988    329.44162    13.541607   -443.99842   -430.45681   -10921.743    679.69689   -4198.2562   -29246.669    15.338863     13.28383     27.82114    5668.8034 
   56500       56.488    332.11448    13.651475   -444.09152   -430.44004   -11862.297   -740.74111   -6261.3046   -28584.846    15.338865    13.283832    27.821123    5668.8016 
   57000       56.988    323.45396    13.295487   -443.71903   -430.42354   -10738.662    1534.1257   -4756.0256   -28994.087    15.338868    13.283834    27.821105    5668.7998 
   57500       57.488    332.84121    13.681347   -444.08846   -430.40711   -11584.732    2495.0426   -9169.3017   -28079.937     15.33887    13.283836    27.821088    5668.7979 
   58000       57.988    339.00821    13.934839   -444.32585   -430.39101   -10201.164    691.31949   -5017.4583   -26277.352    15.338873    13.283838     27.82107    5668.7961 
   58500       58.488    332.23025    13.656233   -444.03099   -430.37475   -12206.441    574.51862    -6775.086   -30418.757    15.338875     13.28384    27.821053    5668.7943 
   59000       58.988    331.59466    13.630108   -443.98822   -430.35811   -11326.689    819.36123   -5039.3287     -29760.1    15.338877    13.283842    27.821035    5668.7925 
   59500       59.488    372.23596    15.300657   -445.64306    -430.3424   -12535.551   -575.37433   -6948.5207   -30082.759     15.33888    13.283844    27.821018    5668.7906 
   60000       59.988    324.52214    13.339394   -443.66512   -430.32573   -9371.7585    3595.6315   -7396.7978   -24314.109    15.338882    13.283846       27.821    5668.7888 
   60500       60.488    325.34075    13.373042   -443.68259   -430.30955   -10363.559    795.58289   -4664.1074   -27222.153    15.338884    13.283848    27.820983     5668.787 
   61000       60.988    343.95801      14.1383   -444.43237   -430.29407   -12244.781   -1509.4743   -4193.8975   -31030.972    15.338887     13.28385    27.820965    5668.7852 
   61500       61.488    340.76422     14.00702   -444.28527   -430.27825   -10464.461    532.61007   -4653.7147   -27272.279    15.338889    13.283852    27.820948    5668.7833 
   62000       61.988    332.41548    13.663847   -443.92573   -430.26188   -12118.811    919.90442    -7036.064   -30240.273    15.338891    13.283854     27.82093    5668.7815 
   62500       62.488      314.187    12.914571   -443.16032   -430.24575   -10221.436    339.51484   -3364.9414   -27638.882    15.338894    13.283856    27.820913    5668.7797 
   63000       62.988    318.09506     13.07521   -443.30542   -430.23021   -10120.341    3356.9757   -5361.2772   -28356.722    15.338896    13.283858    27.820895    5668.7779 
   63500       63.488    313.35342    12.880306    -443.0945   -430.21419   -10533.192    1204.1651   -6929.8465   -25873.895    15.338898     13.28386    27.820878    5668.7761 
   64000       63.988    337.79887     13.88513   -444.08387   -430.19874    -10605.85    1830.0851   -6203.5769   -27444.059    15.338901    13.283862     27.82086    5668.7742 
   64500       64.488    338.34792    13.907699    -444.0907     -430.183   -11106.368    944.03835   -6613.0739   -27650.067    15.338903    13.283864    27.820843    5668.7724 
   65000       64.988    326.96163    13.439668   -443.60712   -430.16745   -11117.972    307.15397   -4258.5304    -29402.54    15.338905    13.283866    27.820825    5668.7706 
   65500       65.488    326.14437    13.406075   -443.55745   -430.15138   -11630.433   -748.84339    -5063.074   -29079.382    15.338908    13.283869    27.820808    5668.7688 
   66000       65.988    332.85066    13.681735   -443.81791   -430.13617   -11037.155   -1099.6764   -5956.7131   -26055.077     15.33891    13.283871     27.82079    5668.7669 
   66500       66.488    319.81574    13.145938   -443.26623   -430.12029   -10642.586    920.21909   -4158.9316   -28689.046    15.338912    13.283873    27.820773    5668.7651 
   67000       66.988    339.85597    13.969687    -444.0742   -430.10451   -10636.546    1998.3107   -4191.9933   -29715.955    15.338915    13.283875    27.820755    5668.7633 
   67500       67.488    361.85317    14.873875   -444.96294   -430.08907   -12386.963   -452.64051   -6892.6645   -29815.584    15.338917    13.283877    27.820738    5668.7615 
   68000       67.988    329.08311    13.526871   -443.59991   -430.07304   -10418.153    2628.7045   -6013.6887   -27869.473     15.33892    13.283879     27.82072    5668.7597 
   68500       68.488    361.27244    14.850005   -444.90742   -430.05742    -11324.96    1905.5118   -6236.5268   -29643.864    15.338922    13.283881    27.820703    5668.7578 
   69000       68.988    334.61082    13.754086   -443.79559   -430.04151   -12024.586   -1051.7808   -7112.3776     -27909.6    15.338924    13.283883    27.820685     5668.756 
   69500       69.488    312.59741    12.849231   -442.87499   -430.02576   -9429.0053    1641.7862   -209.45841   -29719.344    15.338927    13.283885    27.820668    5668.7542 
   70000       69.988    334.69605    13.757589   -443.76791   -430.01032     -9961.19    242.06495   -3037.4759   -27088.159    15.338929    13.283887     27.82065    5668.7524 
   70500       70.488     335.7036    13.799005   -443.79347   -429.99446   -10508.579    2470.7067   -6756.0286   -27240.416    15.338931    13.283889    27.820633    5668.7505 
   71000       70.988     341.5006    14.037289   -444.01587   -429.97858   -11316.127     1008.548   -5824.0885    -29132.84    15.338934    13.283891    27.820615    5668.7487 
   71500       71.488    336.34757    13.825475   -443.78824   -429.96276   -11833.389   -529.49144   -4977.1032   -29993.572    15.338936    13.283893    27.820598    5668.7469 
   72000       71.988    346.54921     14.24481   -444.19188   -429.94707   -11855.028    1371.2938   -6394.0029   -30542.376    15.338938    13.283895     27.82058    5668.7451 
   72500       72.488    343.07008    14.101802   -444.03263   -429.93083   -9949.2549    1838.5506   -6175.6009   -25510.714    15.338941    13.283897    27.820563    5668.7433 
   73000       72.988    338.59099     13.91769   -443.83292   -429.91523   -10902.886    435.89942   -4864.7264    -28279.83    15.338943    13.283899    27.820545    5668.7414 
   73500       73.488    328.64421     13.50883   -443.40788   -429.89905   -10282.253      3816.14   -4643.5664   -30019.333    15.338945    13.283901    27.820528    5668.7396 
   74000       73.988    340.37389    13.990976   -443.87438    -429.8834   -10877.449    2426.3745   -5760.5132   -29298.208    15.338948    13.283903     27.82051    5668.7378 
   74500       74.488    331.46572    13.624808   -443.49193   -429.86713   -10947.385    2208.8983   -5824.4128   -29226.641     15.33895    13.283905    27.820493     5668.736 
   75000       74.988    340.29891    13.987894   -443.83916   -429.85126   -10981.827    26.401059   -7500.1673   -25471.715    15.338952    13.283907    27.820475    5668.7341 
   75500       75.488    337.22902    13.861706   -443.69683   -429.83512   -11160.603    4409.4999   -6137.3343   -31753.974    15.338955     13.28391    27.820458    5668.7323 
   76000       75.988    344.65448    14.166928   -443.98644   -429.81951   -12784.497   -86.322048   -5456.4635   -32810.707    15.338957    13.283912     27.82044    5668.7305 
   76500       76.488    342.69412    14.086348   -443.88926   -429.80292   -10034.518    1244.3349   -6880.7407    -24467.15    15.338959    13.283914    27.820423    5668.7287 
   77000       76.988    342.36197    14.072695   -443.85938   -429.78669   -10927.746     3705.773   -6793.8976   -29695.112    15.338962    13.283916    27.820405    5668.7269 
   77500       77.488    323.59429    13.301255   -443.07164   -429.77038   -10635.158    2279.2623   -5327.3402   -28857.396    15.338964    13.283918    27.820388     5668.725 
   78000       77.988    312.44975    12.843161   -442.59672   -429.75356   -9261.2604    2216.1585   -5524.6477   -24475.292    15.338967     13.28392     27.82037    5668.7232 
   78500       78.488    338.80655     13.92655   -443.66406   -429.73751   -11787.395     1008.228   -6685.5509   -29684.863    15.338969    13.283922    27.820353    5668.7214 
   79000       78.988    343.98443    14.139386   -443.86068    -429.7213   -10785.641    1482.0448   -5997.6404   -27841.328    15.338971    13.283924    27.820335    5668.7196 
   79500       79.488    338.31478    13.906336    -443.6109   -429.70456   -10031.489    499.68889   -5696.5634   -24897.593    15.338974    13.283926    27.820318    5668.7177 
   80000       79.988    336.58324    13.835162   -443.52255   -429.68738   -11515.254    1103.6126   -4670.1582   -30979.216    15.338976    13.283928      27.8203    5668.7159 
   80500       80.488    344.15589    14.146434   -443.81771   -429.67128   -10793.548    623.52718   -5097.7738   -27906.397    15.338978     13.28393    27.820283    5668.7141 
   81000       80.988    345.24246    14.191097   -443.84551   -429.65441   -10837.658    1263.9014   -5267.0254    -28509.85    15.338981    13.283932    27.820265    5668.7123 
   81500       81.488    342.18422    14.065389   -443.70256   -429.63717   -10273.479    2499.3302   -5015.9551   -28303.812    15.338983    13.283934    27.820248    5668.7104 
   82000       81.988    339.77219    13.966243   -443.58652   -429.62028   -10918.414    2812.1024   -7284.2451   -28283.098    15.338985    13.283936     27.82023    5668.7086 
   82500       82.488    353.41191      14.5269   -444.13073   -429.60383   -10592.874    2416.7199   -5777.0246   -28418.317    15.338988    13.283938    27.820213    5668.7068 
   83000       82.988    341.27968    14.028208   -443.61428   -429.58607   -11390.167    1236.1971   -5406.6441   -30000.055     15.33899     13.28394    27.820195     5668.705 
   83500       83.488    345.24132     14.19105   -443.76022   -429.56917   -10585.746    920.49304   -5614.8172   -27062.915    15.338992    13.283942    27.820178    5668.7032 
   84000       83.988    347.36261    14.278245    -443.8302   -429.55196   -11553.542    2084.1214   -6676.6433   -30068.105    15.338995    13.283944     27.82016    5668.7013 
   84500       84.488    348.63609    14.330591   -443.86501   -429.53442   -10702.803    1956.9173   -7449.3015   -26616.026    15.338997    13.283946    27.820143    5668.6995 
   85000       84.988    348.76926    14.336065   -443.85301   -429.51694   -10094.338    1345.7279   -4984.0009   -26644.741    15.338999    13.283948    27.820125    5668.6977 
   85500       85.488    359.26356     14.76743   -444.26696   -429.49953   -11505.593    464.97742   -4627.6557     -30354.1    15.339002    13.283951    27.820108    5668.6959 
   86000       85.988    362.93457    14.918326   -444.39991   -429.48158   -11138.159    923.25339   -7057.5348   -27280.195    15.339004    13.283953     27.82009     5668.694 
   86500       86.488    349.65269    14.372378   -443.83627   -429.46389   -10222.838    19.446756   -4616.2355   -26071.724    15.339006    13.283955    27.820073    5668.6922 
   87000       86.988    328.77985    13.514406   -442.96017   -429.44576   -11862.054   -30.242309   -3279.4917   -32276.427    15.339009    13.283957    27.820055    5668.6904 
   87500       87.488    338.63327    13.919428   -443.34749   -429.42806   -11509.044    2319.8132   -6254.7009   -30592.245    15.339011    13.283959    27.820038    5668.6886 
   88000       87.988    345.57937    14.204945   -443.61543   -429.41048   -11475.207   -1096.6036   -5600.9095   -27728.108    15.339014    13.283961     27.82002    5668.6868 
   88500       88.488    348.47063     14.32379   -443.71562   -429.39183     -10411.1    2770.4675   -6952.9743   -27050.792    15.339016    13.283963    27.820003    5668.6849 
   89000       88.988     322.6871    13.263965   -442.63759   -429.37362   -9796.5084    728.80392   -4446.5658   -25671.763    15.339018    13.283965    27.819985    5668.6831 
   89500       89.488    350.80544    14.419762   -443.77579   -429.35602   -11520.714    602.74147   -6689.3301   -28475.554    15.339021    13.283967    27.819968    5668.6813 
   90000       89.988    305.41444    12.553977   -441.89099   -429.33702   -10100.941    2102.5953   -4288.6017   -28116.818    15.339023    13.283969     27.81995    5668.6795 
   90500       90.488    348.30757    14.317087   -443.63631   -429.31922   -11010.778    971.73891   -4764.0249   -29240.049    15.339025    13.283971    27.819933    5668.6776 
   91000       90.988    336.61708    13.836553   -443.13718   -429.30062   -11185.746    2215.6636    -7480.246   -28292.656    15.339028    13.283973    27.819915    5668.6758 
   91500       91.488    329.17057    13.530466   -442.81214   -429.28167   -10144.907    1.7856547   -3552.7131   -26883.794     15.33903    13.283975    27.819898     5668.674 
   92000       91.988    355.43247    14.609954   -443.87329   -429.26334   -9817.2796    2489.3706   -5683.5122   -26257.697    15.339032    13.283977     27.81988    5668.6722 
   92500       92.488    334.92935    13.767179   -443.01155   -429.24437   -11981.407    1396.0061   -7230.2713   -30109.954    15.339035    13.283979    27.819863    5668.6704 
   93000       92.988    351.95554    14.467036   -443.69261   -429.22557   -10083.537    2233.4537   -5108.9932   -27375.071    15.339037    13.283981    27.819845    5668.6685 
   93500       93.488    351.74227     14.45827   -443.66483   -429.20656   -11174.071    1736.1091   -6762.0052   -28496.316    15.339039    13.283983    27.819828    5668.6667 
   94000       93.988    336.04884    13.813195   -443.00078   -429.18758   -10215.994    186.90863   -3668.4543   -27166.436    15.339042    13.283985     27.81981    5668.6649 
   94500       94.488    367.90532    15.122647   -444.29155    -429.1689   -10726.794    1969.1332   -5372.9697   -28776.545    15.339044    13.283987    27.819793    5668.6631 
   95000       94.988    369.95738    15.206997   -444.35632   -429.14932   -10638.372    492.22538   -4748.4623   -27658.879    15.339046    13.283989    27.819775    5668.6612 
   95500       95.488    339.75464    13.965522   -443.09533    -429.1298    -10368.45    2400.0861   -6032.4446   -27472.992    15.339049    13.283992    27.819758    5668.6594 
   96000       95.988    354.96444    14.590716    -443.7013   -429.11058   -10355.678    2039.3848   -3456.8803   -29649.537    15.339051    13.283994     27.81974    5668.6576 
   96500       96.488    360.78855    14.830115   -443.92145   -429.09134   -10914.558    953.58258   -6114.0843   -27583.171    15.339053    13.283996    27.819723    5668.6558 
   97000       96.988    331.94933    13.644686   -442.71627   -429.07159   -9626.4642    813.90116   -4398.8012   -25294.493    15.339056    13.283998    27.819705    5668.6539 
   97500       97.488    361.53316    14.860722   -443.91288   -429.05216   -10885.295    -264.3055   -2653.4414   -29738.137    15.339058       13.284    27.819688    5668.6521 
   98000       97.988    338.00672    13.893674   -442.92527   -429.03159   -10212.422    2925.8988   -8070.4271   -25492.739    15.339061    13.284002     27.81967    5668.6503 
   98500       98.488    345.79582    14.213842   -443.22573   -429.01189   -10623.222    1833.8823   -4514.0656   -29189.483    15.339063    13.284004    27.819653    5668.6485 
   99000       98.988    333.33875    13.701798   -442.69407   -428.99227   -9168.0582    2781.6373   -4285.6172   -26000.195    15.339065    13.284006    27.819635    5668.6467 
   99500       99.488    373.92305    15.370005    -444.3428   -428.97279   -11820.492    571.34783   -3767.8544   -32264.971    15.339068    13.284008    27.819618    5668.6448 
  100000       99.988    346.23897    14.232058   -443.18431   -428.95225   -10317.727    1783.4937   -4744.7229   -27991.951     15.33907     13.28401      27.8196     5668.643 
  100500      100.488    349.90846    14.382891   -443.31511   -428.93222   -8609.3435    4084.9688    -2271.887   -27641.112    15.339072    13.284012    27.819583    5668.6412 
  101000      100.988    348.36728    14.319542   -443.23103   -428.91149   -10024.946    2044.2103    -7483.945   -24635.103    15.339075    13.284014    27.819565    5668.6394 
  101500      101.488    358.28832    14.727343   -443.61878   -428.89144   -11112.891    356.24093   -6574.8755    -27120.04    15.339077    13.284016    27.819548    5668.6375 
  102000      101.988    355.40793    14.608946   -443.47993   -428.87098   -11065.172    1467.9992   -5918.7593   -28744.755    15.339079    13.284018     27.81953    5668.6357 
  102500      102.488    336.44313    13.829403   -442.67966   -428.85026   -11006.671    1403.3312   -5267.4462   -29155.899    15.339082     13.28402    27.819513    5668.6339 
  103000      102.988    342.10825    14.062266   -442.89206   -428.82979   -9877.9883    1579.8374   -5483.5887   -25730.214    15.339084    13.284022    27.819495    5668.6321 
  103500      103.488    349.02449    14.346556   -443.15614   -428.80958   -10910.208    1025.7424    -5159.879   -28596.486    15.339086    13.284024    27.819478    5668.6303 
  104000      103.988    371.02245    15.250776   -444.03982   -428.78904   -10526.936    1967.6954   -4732.9336    -28815.57    15.339089    13.284026     27.81946    5668.6284 
  104500      104.488    364.45048    14.980637   -443.74868   -428.76804   -10633.644   -287.00418   -5652.8156   -25961.113    15.339091    13.284028    27.819443    5668.6266 
  105000      104.988    357.58568    14.698461   -443.44533   -428.74687   -9019.9363    1186.6651   -2844.8245   -25401.649    15.339093     13.28403    27.819425    5668.6248 
  105500      105.488    352.16027    14.475451   -443.20145     -428.726   -12086.969   -249.48871   -9522.4533   -26488.966    15.339096    13.284033    27.819408     5668.623 
  106000      105.988    342.79319     14.09042   -442.79534   -428.70492   -10286.782     2027.642   -5559.5169    -27328.47    15.339098    13.284035     27.81939    5668.6211 
  106500      106.488    347.03015    14.264579    -442.9488   -428.68422   -10260.182    433.77323   -3203.6097   -28010.708      15.3391    13.284037    27.819373    5668.6193 
  107000      106.988    350.35112    14.401087   -443.06402   -428.66294   -10657.028    2519.1176   -5323.4057   -29166.795    15.339103    13.284039    27.819355    5668.6175 
  107500      107.488    351.74509    14.458386   -443.09973   -428.64135   -9501.4993    1932.6419      -5413.3    -25023.84    15.339105    13.284041    27.819338    5668.6157 
  108000      107.988     341.3562    14.031353   -442.65095    -428.6196   -9662.9915    2921.9161   -4610.5405    -27300.35    15.339108    13.284043     27.81932    5668.6139 
  108500      108.488    366.07259    15.047313   -443.64632   -428.59901   -11096.721    389.17916   -7378.9448   -26300.397     15.33911    13.284045    27.819303     5668.612 
  109000      108.988    337.62788    13.878102   -442.45521   -428.57711   -9208.4097    3686.8933   -5997.7005   -25314.422    15.339112    13.284047    27.819285    5668.6102 
  109500      109.488    372.96412    15.330588   -443.88696   -428.55637   -10851.624    253.48019   -5205.7363   -27602.616    15.339115    13.284049    27.819268    5668.6084 
  110000      109.988    360.02364    14.798673   -443.33319   -428.53452   -10556.159    1190.1905   -6639.8318   -26218.835    15.339117    13.284051     27.81925    5668.6066 
  110500      110.488    339.15218    13.940757   -442.45333   -428.51257   -9123.0837     4285.602   -4236.6948   -27418.158    15.339119    13.284053    27.819233    5668.6047 
  111000      110.988    349.39966    14.361977   -442.85285   -428.49087   -10760.915     1179.481   -4705.0511   -28757.174    15.339122    13.284055    27.819215    5668.6029 
  111500      111.488    360.12433    14.802812   -443.27247   -428.46966   -11181.334     976.6727   -7095.0418   -27425.632    15.339124    13.284057    27.819198    5668.6011 
  112000      111.988    364.67975    14.990061   -443.43767   -428.44761   -10586.147    763.86804   -4951.0339   -27571.275    15.339126    13.284059     27.81918    5668.5993 
  112500      112.488    373.24647    15.342194   -443.76844   -428.42625   -11152.993    1410.5966   -5380.7161    -29488.86    15.339129    13.284061    27.819163    5668.5974 
  113000      112.988    357.87475    14.710344   -443.11404    -428.4037   -10459.371     2352.671   -5830.5826   -27900.202    15.339131    13.284063    27.819145    5668.5956 
  113500      113.488    343.45516     14.11763   -442.49974   -428.38211   -9673.5285     1856.589   -5174.4409   -25702.734    15.339133    13.284065    27.819128    5668.5938 
  114000      113.988    361.67779    14.866667   -443.22679   -428.36012   -11209.433    2704.9181    -6586.291   -29746.927    15.339136    13.284067     27.81911     5668.592 
  114500      114.488    346.76251    14.253578   -442.59123   -428.33765     -10324.5    2024.7314   -5736.2115   -27262.021    15.339138    13.284069    27.819093    5668.5902 
  115000      114.988    351.04087    14.429439   -442.74547   -428.31603   -9517.3091    4009.9986   -5084.7781   -27477.148     15.33914    13.284071    27.819075    5668.5883 
  115500      115.488     375.4721    15.433678   -443.72751   -428.29383   -10511.152    2057.3546    -6840.293   -26750.519    15.339143    13.284074    27.819058    5668.5865 
  116000      115.988    350.85892     14.42196   -442.69358   -428.27162   -11127.181    2938.3644   -8924.0949   -27395.814    15.339145    13.284076     27.81904    5668.5847 
  116500      116.488    348.46252    14.323456   -442.57254   -428.24908   -10360.543    1510.4355   -3672.2258    -28919.84    15.339147    13.284078    27.819023    5668.5829 
  117000      116.988    373.77728    15.364013   -443.59152   -428.22751   -11540.622    744.56699   -3890.6474   -31475.785     15.33915     13.28408    27.819005     5668.581 
  117500      117.488     358.5915    14.739805    -442.9443   -428.20449    -10316.78    2604.1359   -5858.3794   -27696.097    15.339152    13.284082    27.818988    5668.5792 
  118000      117.988    354.25673    14.561626   -442.74379   -428.18216   -10664.567    1065.9654   -5737.2781   -27322.388    15.339155    13.284084     27.81897    5668.5774 
  118500      118.488    362.05661    14.882238   -443.04219   -428.15995    -9899.234   -11.007995   -3664.0938     -26022.6    15.339157    13.284086    27.818953    5668.5756 
  119000      118.988    355.66425    14.619481   -442.75671   -428.13723   -9446.1487    1883.6151    -3539.594   -26682.467    15.339159    13.284088    27.818935    5668.5738 
  119500      119.488    363.83308    14.955259   -443.07035   -428.11509   -10142.909    1056.0228   -3466.4801   -28018.271    15.339162     13.28409    27.818918    5668.5719 
  120000      119.988    357.46876    14.693656    -442.7858   -428.09214    -10647.27    3226.2848   -6640.5096   -28527.585    15.339164    13.284092      27.8189    5668.5701 
  120500      120.488     346.3033    14.234702   -442.30425   -428.06954   -9524.1015     1285.994   -5203.8591   -24654.439    15.339166    13.284094    27.818883    5668.5683 
  121000      120.988    371.44979    15.268342   -443.31567   -428.04733   -9903.0053    1709.2217   -4597.8068   -26820.431    15.339169    13.284096    27.818865    5668.5665 
  121500      121.488    351.49496    14.448104   -442.47294   -428.02484   -10118.545    2791.9555   -5767.7876   -27379.802    15.339171    13.284098    27.818848    5668.5646 
  122000      121.988    360.97977    14.837974   -442.83982   -428.00184   -10662.576    489.84362   -2759.1501   -29718.421    15.339173      13.2841     27.81883    5668.5628 
  122500      122.488    360.38939    14.813707   -442.79284   -427.97913   -11141.621   -139.71779   -5394.4742   -27890.672    15.339176    13.284102    27.818813     5668.561 
  123000      122.988    354.12799    14.556334   -442.51269   -427.95636   -9678.3845     1222.771   -3364.5849    -26893.34    15.339178    13.284104    27.818795    5668.5592 
  123500      123.488    345.53525    14.203132   -442.13617   -427.93304   -10180.245   -648.80236   -153.61603   -29738.317     15.33918    13.284106    27.818778    5668.5573 
  124000      123.988    382.29131     15.71398   -443.62511   -427.91113    -10452.75    1227.5654   -3621.0999   -28964.716    15.339183    13.284108     27.81876    5668.5555 
  124500      124.488    357.86386    14.709896   -442.59737   -427.88747   -10719.649   -281.40918   -3702.4389     -28175.1    15.339185     13.28411    27.818743    5668.5537 
  125000      124.988    365.17751    15.010522   -442.87505   -427.86452   -9902.6977      746.095   -5534.0531   -24920.135    15.339187    13.284112    27.818725    5668.5519 
  125500      125.488    363.41954    14.938261   -442.77982   -427.84155    -10390.51    2791.7347   -3834.0125   -30129.253     15.33919    13.284115    27.818708    5668.5501 
  126000      125.988    384.97382    15.824243   -443.64329   -427.81905    -10891.81    806.75291    -5273.348   -28208.836    15.339192    13.284117     27.81869    5668.5482 
  126500      126.488    378.49881     15.55809   -443.35387   -427.79578   -10485.933     1268.508   -1806.4708   -30919.837    15.339194    13.284119    27.818673    5668.5464 
  127000      126.988    360.09446    14.801584   -442.57414   -427.77256   -10257.609    1573.4764   -4397.2058   -27949.096    15.339197    13.284121    27.818655    5668.5446 
  127500      127.488    353.22095     14.51905   -442.26845    -427.7494   -9597.5665    1765.4421   -5406.4294   -25151.712    15.339199    13.284123    27.818638    5668.5428 
  128000      127.988     382.0761    15.705133    -443.4319   -427.72677   -10722.163    1653.8268   -5114.9199   -28705.396    15.339202    13.284125     27.81862    5668.5409 
  128500      128.488    366.36199    15.059209   -442.76203   -427.70282   -9863.1922    2039.1482   -5789.4061   -25839.319    15.339204    13.284127    27.818603    5668.5391 
  129000      128.988    385.23614    15.835026   -443.51514   -427.68011   -10628.134      614.942   -4451.1546   -28048.189    15.339206    13.284129    27.818585    5668.5373 
  129500      129.488    365.15049    15.009411   -442.66617   -427.65676   -10000.135    1140.4813    -6450.806    -24690.08    15.339209    13.284131    27.818568    5668.5355 
  130000      129.988    379.49813    15.599167   -443.23289   -427.63372   -10481.801   -149.74907   -5755.8135    -25539.84    15.339211    13.284133     27.81855    5668.5337 
  130500      130.488    365.85544    15.038388   -442.64854   -427.61016   -10301.053    83.334094   -4688.6194   -26297.873    15.339213    13.284135    27.818533    5668.5318 
  131000      130.988    386.64283    15.892847   -443.47995    -427.5871   -11264.812    54.599986   -6935.8938   -26913.143    15.339216    13.284137    27.818515      5668.53 
  131500      131.488       376.52    15.476751   -443.04054   -427.56379   -10890.129    542.55054   -4193.5888   -29019.348    15.339218    13.284139    27.818498    5668.5282 
  132000      131.988    371.51877    15.271177   -442.81127   -427.54009   -9163.4887    3367.8289    -5911.748   -24946.547     15.33922    13.284141     27.81848    5668.5264 
  132500      132.488     371.0638    15.252476   -442.76914   -427.51666   -9518.9925    1934.1997   -4784.6708   -25706.507    15.339223    13.284143    27.818463    5668.5245 
  133000      132.988    359.23832    14.766393   -442.25913   -427.49274   -9343.1265    1878.7318   -702.59677   -29205.515    15.339225    13.284145    27.818445    5668.5227 
  133500      133.488    370.58407    15.232757   -442.70238   -427.46963   -9352.2456      2504.39   -3879.6336   -26681.493    15.339227    13.284147    27.818428    5668.5209 
  134000      133.988    364.32707    14.975565   -442.42151   -427.44594   -8882.3346    1772.0609   -3580.9487   -24838.116     15.33923    13.284149     27.81841    5668.5191 
  134500      134.488    377.01394    15.497055   -442.91942   -427.42237   -8690.7027    3140.4322   -7061.8666   -22150.674    15.339232    13.284151    27.818393    5668.5172 
  135000      134.988    374.67579    15.400946   -442.79979   -427.39885   -8939.8455    1978.2161   -5477.9124    -23319.84    15.339234    13.284153    27.818375    5668.5154 
  135500      135.488    369.84196    15.202253   -442.57778   -427.37553   -9887.2743    1508.6692   -3470.8517    -27699.64    15.339237    13.284156    27.818358    5668.5136 
  136000      135.988    372.38156    15.306642   -442.65812   -427.35148   -10496.604    1306.5499   -2126.1441   -30670.219    15.339239    13.284158     27.81834    5668.5118 
  136500      136.488    375.58728    15.438412    -442.7666   -427.32819   -9710.0776    4802.1641   -4960.1172    -28972.28    15.339241     13.28416    27.818323      5668.51 
  137000      136.988    382.58005    15.725848   -443.02996   -427.30412   -9069.9311    2801.2335   -5931.0451   -24079.982    15.339244    13.284162    27.818305    5668.5081 
  137500      137.488    364.49023    14.982271   -442.26319   -427.28092   -9174.7243    3193.1339   -4455.0604   -26262.246    15.339246    13.284164    27.818288    5668.5063 
  138000      137.988    378.35028    15.551985   -442.80892   -427.25693   -11055.711    2950.6134   -4401.2408   -31716.505    15.339249    13.284166     27.81827    5668.5045 
  138500      138.488    377.17393    15.503631   -442.73653   -427.23289   -9413.3407    1025.4308    -2600.294   -26665.159    15.339251    13.284168    27.818253    5668.5027 
  139000      138.988    385.57992    15.849157   -443.05861   -427.20945   -9670.3531     3002.132    -2754.231    -29258.96    15.339253     13.28417    27.818235    5668.5008 
  139500      139.488    364.92091    14.999974   -442.18506   -427.18508   -9312.0589    2402.0252   -4875.2414   -25462.961    15.339256    13.284172    27.818218     5668.499 
  140000      139.988    388.41118    15.965535   -443.12746   -427.16193   -8784.6155    4673.5114     -4408.72   -26618.638    15.339258    13.284174      27.8182    5668.4972 
  140500      140.488    366.66005    15.071461   -442.20891   -427.13745   -10812.874    2063.4984   -5419.3024   -29082.819     15.33926    13.284176    27.818183    5668.4954 
  141000      140.988    372.11492    15.295682   -442.40957   -427.11389   -9187.4545    2004.7339   -4528.6548   -25038.443    15.339263    13.284178    27.818165    5668.4936 
  141500      141.488    378.74194    15.568084   -442.65806   -427.08998   -9662.5701    1706.6652   -4632.7091   -26061.666    15.339265     13.28418    27.818148    5668.4917 
  142000      141.988    361.25362    14.849231   -441.91519   -427.06596   -10221.746    2819.7045   -4312.5316   -29172.412    15.339267    13.284182     27.81813    5668.4899 
  142500      142.488    392.01492    16.113666   -443.15599   -427.04232   -9549.5062    2112.9293   -6001.8486   -24759.599     15.33927    13.284184    27.818113    5668.4881 
  143000      142.988    380.13177    15.625212    -442.6429   -427.01769   -9210.3682    2554.8314   -5001.5853   -25184.351    15.339272    13.284186    27.818095    5668.4863 
  143500      143.488     402.2168    16.533011   -443.52751    -426.9945   -11139.196   -142.69961   -4564.7764   -28710.112    15.339274    13.284188    27.818078    5668.4844 
  144000      143.988    384.90652    15.821477   -442.79114   -426.96967   -8711.5071    1771.1284   -3513.4022   -24392.248    15.339277     13.28419     27.81806    5668.4826 
  144500      144.488    382.07189     15.70496   -442.65037   -426.94541   -9995.3438     3932.936   -6038.2085   -27880.759    15.339279    13.284192    27.818043    5668.4808 
  145000      144.988    373.73505    15.362277   -442.28377   -426.92149   -9448.7829    4439.5148   -3257.2724   -29528.591    15.339281    13.284194    27.818025     5668.479 
  145500      145.488    374.94365    15.411956   -442.30891   -426.89695   -9254.7682     2137.279   -5827.7918   -24073.792    15.339284    13.284197    27.818008    5668.4771 
  146000      145.988    401.06377    16.485617    -443.3587   -426.87308   -10755.278    1307.2493   -6604.5359   -26968.547    15.339286    13.284199     27.81799    5668.4753 
  146500      146.488    383.96668    15.782845    -442.6317   -426.84885   -9680.6943    2323.7057   -6902.3059   -24463.483    15.339288    13.284201    27.817973    5668.4735 
  147000      146.988    377.37194     15.51177   -442.33618   -426.82441    -8363.374    4738.4658   -4298.8443   -25529.743    15.339291    13.284203    27.817955    5668.4717 
  147500      147.488    378.41552    15.554666   -442.35486   -426.80019   -10007.426    2504.5233   -5698.2533   -26828.548    15.339293    13.284205    27.817938    5668.4699 
  148000      147.988    360.56109    14.820765   -441.59658   -426.77581    -9747.893    4017.6656   -6026.8159   -27234.529    15.339296    13.284207     27.81792     5668.468 
  148500      148.488    388.49395    15.968938   -442.72057   -426.75163   -10390.045    254.37181   -4198.6298   -27225.877    15.339298    13.284209    27.817903    5668.4662 
  149000      148.988     357.8074    14.707575   -441.43473   -426.72715   -9500.5279    2981.7662   -4060.4948   -27422.855      15.3393    13.284211    27.817885    5668.4644 
  149500      149.488    393.81803    16.187782   -442.89127   -426.70349   -9686.1576    2140.3024   -4319.7054    -26879.07    15.339303    13.284213    27.817868    5668.4626 
  150000      149.988    380.69983    15.648562   -442.32763   -426.67907   -9956.0521     2951.215   -5995.3296   -26824.042    15.339305    13.284215     27.81785    5668.4607 
  150500      150.488    382.61604    15.727327   -442.38211   -426.65478   -10417.732     408.5496   -3671.1157   -27990.631    15.339307    13.284217    27.817833    5668.4589 
  151000      150.988     372.7173    15.320443   -441.95043   -426.62999   -9284.6995    1328.4359   -3654.4593   -25528.075     15.33931    13.284219    27.817815    5668.4571 
  151500      151.488    391.03374    16.073335   -442.67923   -426.60589   -9736.1622    1671.4807   -5040.7497   -25839.218    15.339312    13.284221    27.817798    5668.4553 
  152000      151.988    377.98146    15.536825   -442.11789   -426.58107    -9649.935    3645.4507   -3567.7877   -29027.468    15.339314    13.284223     27.81778    5668.4534 
  152500      152.488    376.06659    15.458114   -442.01515   -426.55704   -9348.0265    2285.0497   -2993.5238   -27335.605    15.339317    13.284225    27.817763    5668.4516 
  153000      152.988     394.8116    16.228623   -442.76142   -426.53279   -9188.6306    4904.4185   -2935.7567   -29534.554    15.339319    13.284227    27.817745    5668.4498 
  153500      153.488    379.43519     15.59658   -442.10468    -426.5081   -8376.9505    3150.2865    -2227.613   -26053.525    15.339321    13.284229    27.817728     5668.448 
  154000      153.988    373.97889      15.3723   -441.85576   -426.48346   -10002.302   -132.11141   -5343.7354   -24531.059    15.339324    13.284231     27.81771    5668.4462 
  154500      154.488    370.67891    15.236655   -441.69524   -426.45859   -9217.7147    2637.5869   -3791.0981   -26499.633    15.339326    13.284233    27.817693    5668.4443 
  155000      154.988    351.75786    14.458911   -440.89286   -426.43395   -8553.0489    4920.3367   -2137.2022   -28442.281    15.339328    13.284235    27.817675    5668.4425 
  155500      155.488    385.24124    15.835236    -442.2449   -426.40967   -9564.0341    2275.7353   -4362.6931   -26605.144    15.339331    13.284238    27.817658    5668.4407 
  156000      155.988    361.25861    14.849436    -441.2342   -426.38477   -6517.9969    5258.4772   -3587.8895   -21224.579    15.339333     13.28424     27.81764    5668.4389 
  156500      156.488    390.70173    16.059688   -442.42012   -426.36043   -9833.8817     2537.112    -3806.581   -28232.176    15.339335    13.284242    27.817623     5668.437 
  157000      156.988    400.97335      16.4819    -442.8177    -426.3358   -9606.0239     1419.898   -4008.4175   -26229.552    15.339338    13.284244    27.817605    5668.4352 
  157500      157.488    373.78279    15.364239   -441.67511   -426.31087   -9202.4412    1154.8927   -4171.3269   -24590.889     15.33934    13.284246    27.817588    5668.4334 
  158000      157.988    384.11882    15.789099   -442.07518   -426.28608   -8686.6255    1404.7847   -4434.5568   -23030.105    15.339343    13.284248     27.81757    5668.4316 
  158500      158.488    371.14223      15.2557   -441.51714   -426.26144   -9921.8543    251.59711   -6062.4879   -23954.672    15.339345     13.28425    27.817553    5668.4298 
  159000      158.988    389.63142    16.015693   -442.25236   -426.23667   -9729.4666    3690.8944    -2322.045   -30557.249    15.339347    13.284252    27.817535    5668.4279 
  159500      159.488    366.00985    15.044735   -441.25617   -426.21144   -8061.3163    1423.6899   -2288.5651   -23319.074     15.33935    13.284254    27.817518    5668.4261 
  160000      159.988    382.66556    15.729363   -441.91656    -426.1872   -10020.191    1325.5261   -4558.4476   -26827.652    15.339352    13.284256      27.8175    5668.4243 
  160500      160.488    404.82239    16.640113   -442.80245   -426.16234   -9163.6266    2536.1766   -4811.8549   -25215.202    15.339354    13.284258    27.817483    5668.4225 
  161000      160.988    401.97503    16.523074   -442.66074   -426.13766   -11383.955    1002.2476   -6665.3543   -28488.758    15.339357     13.28426    27.817465    5668.4206 
  161500      161.488    392.64361    16.139508     -442.252   -426.11249   -9587.5133    4221.8311     -3473.18   -29511.191    15.339359    13.284262    27.817448    5668.4188 
  162000      161.988     393.0574    16.156517   -442.24378   -426.08726   -9818.5507    652.17867    -3561.222   -26546.609    15.339361    13.284264     27.81743     5668.417 
  162500      162.488    384.08672     15.78778   -441.84985   -426.06207   -10607.514    840.02808    -4702.197   -27960.372    15.339364    13.284266    27.817413    5668.4152 
  163000      162.988    394.90674    16.232533   -442.26979   -426.03726   -8441.3551     4367.063   -1842.8208   -27848.307    15.339366    13.284268    27.817395    5668.4133 
  163500      163.488    403.08122    16.568543   -442.58083   -426.01228   -10121.645    753.61492   -5090.9811   -26027.568    15.339368     13.28427    27.817378    5668.4115 
  164000      163.988    400.67294    16.469552    -442.4565   -425.98695   -9828.1895    383.86506   -2985.2449   -26883.189    15.339371    13.284272     27.81736    5668.4097 
  164500      164.488     401.1264    16.488191   -442.45056   -425.96237   -9584.6643    1994.5564   -4988.6453   -25759.904    15.339373    13.284274    27.817343    5668.4079 
  165000      164.988    375.68244    15.442324   -441.37916   -425.93683   -9336.9912    2905.1689   -3346.5855   -27569.557    15.339375    13.284276    27.817325    5668.4061 
  165500      165.488    384.18645    15.791879   -441.70393   -425.91205     -8743.12     2248.038   -2185.7492   -26291.649    15.339378    13.284279    27.817308    5668.4042 
  166000      165.988    394.22135    16.204361   -442.09145   -425.88709   -8948.6694    1482.3546   -5576.0492   -22752.314     15.33938    13.284281     27.81729    5668.4024 
  166500      166.488     383.5893    15.767333   -441.62916   -425.86182    -9835.165    1512.5382   -1940.3959   -29077.637    15.339382    13.284283    27.817273    5668.4006 
  167000      166.988    359.29668    14.768791   -440.60496   -425.83617   -8777.3636     3510.552   -274.97849   -29567.664    15.339385    13.284285    27.817255    5668.3988 
  167500      167.488    379.48746    15.598728   -441.41002   -425.81129    -9502.801    549.70751   -3457.5836   -25600.527    15.339387    13.284287    27.817238    5668.3969 
  168000      167.988    389.43186     16.00749   -441.79376   -425.78627   -7900.6022    3402.0147   -3565.9485   -23537.873     15.33939    13.284289     27.81722    5668.3951 
  168500      168.488    394.68752    16.223523   -441.98434   -425.76082   -8540.4526    2639.5259   -3172.2631   -25088.621    15.339392    13.284291    27.817203    5668.3933 
  169000      168.988    381.40821     15.67768    -441.4128   -425.73512   -8514.6983    1122.0453   -2529.8675   -24136.273    15.339394    13.284293    27.817185    5668.3915 
  169500      169.488    394.28408    16.206939   -441.91608   -425.70915    -9232.098    1457.4218   -2341.2621   -26812.454    15.339397    13.284295    27.817168    5668.3896 
  170000      169.988    368.90944    15.163922   -440.84731   -425.68338   -8650.8571    5851.7864     -5055.86   -26748.498    15.339399    13.284297     27.81715    5668.3878 
  170500      170.488    383.36322     15.75804   -441.41607   -425.65803   -8898.0938    188.18997   -5142.0501   -21740.421    15.339401    13.284299    27.817133     5668.386 
  171000      170.988    394.88121    16.231484   -441.86432   -425.63283   -9163.1753     4097.943   -5454.9337   -26132.535    15.339404    13.284301    27.817115    5668.3842 
  171500      171.488    391.91256    16.109458   -441.71669   -425.60724   -9218.0545    1764.7293    -4127.135   -25291.758    15.339406    13.284303    27.817098    5668.3824 
  172000      171.988    389.78649    16.022067   -441.60424   -425.58217   -8376.9571    880.26499    -5072.986    -20938.15    15.339408    13.284305     27.81708    5668.3805 
  172500      172.488     399.5016    16.421404   -441.97856   -425.55716   -9538.2123    1095.8716   -5468.1433   -24242.365    15.339411    13.284307    27.817063    5668.3787 
  173000      172.988    406.74711    16.719228   -442.25029   -425.53106   -9643.7521    3097.4693   -3428.3718   -28600.354    15.339413    13.284309    27.817045    5668.3769 
  173500      173.488    392.09095    16.116791   -441.62262   -425.50583   -8749.8811    4096.2496   -4135.6571   -26210.236    15.339415    13.284311    27.817028    5668.3751 
  174000      173.988    396.56171    16.300561   -441.78037   -425.47981   -8183.2041    4524.0652   -1090.2225   -27983.455    15.339418    13.284313     27.81701    5668.3732 
  174500      174.488    379.40539    15.595355   -441.04929   -425.45393   -8155.4612    2833.7585   -2777.6422     -24522.5     15.33942    13.284315    27.816993    5668.3714 
  175000      174.988    416.34297    17.113664   -442.54286   -425.42919   -8356.1124    2987.2154   -3243.0089   -24812.544    15.339422    13.284317    27.816975    5668.3696 
  175500      175.488    379.25863    15.589322   -440.99216   -425.40284   -7878.2313    3464.3386   -1120.2096   -25978.823    15.339425     13.28432    27.816958    5668.3678 
  176000      175.988    389.22697    15.999068   -441.37662   -425.37755    -8892.079    3553.7144   -2788.9574   -27440.994    15.339427    13.284322     27.81694     5668.366 
  176500      176.488    391.99017    16.112648   -441.46411   -425.35146   -9946.8011    1432.2672   -5015.5526   -26257.118    15.339429    13.284324    27.816923    5668.3641 
  177000      176.988    390.00673     16.03112   -441.35704   -425.32592   -8748.6579     2930.112   -6164.8405   -23011.245    15.339432    13.284326    27.816905    5668.3623 
  177500      177.488    409.32718    16.825282   -442.12541   -425.30013    -10351.55    2517.0393   -8444.5447   -25127.144    15.339434    13.284328    27.816888    5668.3605 
  178000      177.988    405.02273    16.648349   -441.92236   -425.27401   -9214.6725    3646.7728   -3014.6296   -28276.161    15.339437     13.28433     27.81687    5668.3587 
  178500      178.488     404.8836    16.642629   -441.89074   -425.24811    -8478.537    3459.4515   -3547.1313   -25347.931    15.339439    13.284332    27.816853    5668.3568 
  179000      178.988    411.91411    16.931617   -442.15408   -425.22247   -9406.0114    3053.4478   -4414.6554   -26856.827    15.339441    13.284334    27.816835     5668.355 
  179500      179.488    415.76887    17.090066   -442.28687    -425.1968   -9324.5881    360.47718   -3600.0707   -24734.171    15.339444    13.284336    27.816818    5668.3532 
  180000      179.988    399.90559     16.43801   -441.60847   -425.17046   -9269.6952    1655.4455   -3246.6723   -26217.859    15.339446    13.284338      27.8168    5668.3514 
  180500      180.488    414.04158    17.019066   -442.16375   -425.14469   -10282.778     3518.411   -4692.1311   -29674.612    15.339448     13.28434    27.816783    5668.3495 
  181000      180.988    384.64363    15.810671    -440.9284   -425.11773   -8505.2126    2303.4978   -2415.8263   -25403.309    15.339451    13.284342    27.816765    5668.3477 
  181500      181.488    397.69387    16.347098   -441.43966   -425.09256   -8897.4275     1683.351   -3406.8774   -24968.756    15.339453    13.284344    27.816748    5668.3459 
  182000      181.988    410.66408    16.880235   -441.94687   -425.06663   -8209.0464    6364.6024   -5760.9117    -25230.83    15.339455    13.284346     27.81673    5668.3441 
  182500      182.488    391.15854    16.078465   -441.11858   -425.04011    -8987.946    2697.7077   -4421.2865   -25240.259    15.339458    13.284348    27.816713    5668.3423 
  183000      182.988    413.89194    17.012915   -442.02695   -425.01403   -9645.1038    3340.1072   -3685.4517   -28589.967     15.33946     13.28435    27.816695    5668.3404 
  183500      183.488    384.95021    15.823273   -440.81082   -424.98755   -8765.6988    2252.6529   -1247.7588    -27301.99    15.339462    13.284352    27.816678    5668.3386 
  184000      183.988    396.42082    16.294769   -441.25636    -424.9616   -7521.2193    4728.9028   -3754.9956   -23537.565    15.339465    13.284354     27.81666    5668.3368 
  184500      184.488    400.07683    16.445049   -441.38064   -424.93559   -8315.8342    3555.9432   -5610.8659    -22892.58    15.339467    13.284356    27.816643     5668.335 
  185000      184.988    420.90591    17.301222   -442.21105   -424.90983   -9446.1326    2490.3536   -5537.2228   -25291.529    15.339469    13.284358    27.816625    5668.3331 
  185500      185.488    416.11733    17.104389   -441.98792   -424.88353   -8689.4128    2169.1125   -5244.6066   -22992.744    15.339472    13.284361    27.816608    5668.3313 
  186000      185.988    406.79056    16.721014   -441.57852   -424.85751   -9684.1691    1873.0709   -3953.4101   -26972.168    15.339474    13.284363     27.81659    5668.3295 
  186500      186.488    390.65448    16.057746   -440.88865    -424.8309   -9167.3637    2885.6924   -4367.4877   -26020.296    15.339476    13.284365    27.816573    5668.3277 
  187000      186.988    413.31306     16.98912   -441.79367   -424.80455   -8292.1164    2540.7911   -5165.8039   -22251.336    15.339479    13.284367    27.816555    5668.3258 
  187500      187.488    382.90183    15.739075   -440.51656   -424.77748   -7414.9025    5574.1444   -4549.8518       -23269    15.339481    13.284369    27.816538     5668.324 
  188000      187.988    422.62375    17.371834   -442.12394   -424.75211   -10173.272    1415.5461   -5701.5436   -26233.818    15.339484    13.284371     27.81652    5668.3222 
  188500      188.488    412.47848    16.954815   -441.68066   -424.72584    -8549.027    2021.1924   -2430.3188   -25237.955    15.339486    13.284373    27.816503    5668.3204 
  189000      188.988    386.32196    15.879658   -440.57862   -424.69896   -7290.7739    5718.2568    -833.8824   -26756.696    15.339488    13.284375    27.816485    5668.3186 
  189500      189.488    407.58639    16.753727   -441.42641   -424.67269   -8103.8431    3700.6315   -3555.4594   -24456.702    15.339491    13.284377    27.816468    5668.3167 
  190000      189.988     399.8083    16.434011   -441.08023   -424.64622   -9509.3566    1353.3964   -3985.6431   -25895.823    15.339493    13.284379     27.81645    5668.3149 
  190500      190.488    376.32787    15.468854   -440.08841   -424.61955   -8015.0353    1085.7005   -960.87861   -24169.928    15.339495    13.284381    27.816433    5668.3131 
  191000      190.988    405.21858    16.656399   -441.24992   -424.59352   -9988.3351    1682.8536    -4150.786   -27497.073    15.339498    13.284383    27.816415    5668.3113 
  191500      191.488    403.77597    16.597101   -441.16403   -424.56693   -8658.0954    3840.8929   -1860.6511   -27954.528      15.3395    13.284385    27.816398    5668.3094 
  192000      191.988     419.7813    17.254995   -441.79523   -424.54024   -7836.5647    2738.5315   -2804.7256     -23443.5    15.339502    13.284387     27.81638    5668.3076 
  192500      192.488    412.25191    16.945502   -441.45945   -424.51395   -9126.0155    5172.7109   -5673.2435   -26877.514    15.339505    13.284389    27.816363    5668.3058 
  193000      192.988    411.65721    16.921057   -441.40836    -424.4873   -7376.7706    2650.1922   -2097.4887   -22683.015    15.339507    13.284391    27.816345     5668.304 
  193500      193.488    426.34015    17.524595   -441.98524   -424.46065   -8776.3238    3114.2517   -1261.9669   -28181.256    15.339509    13.284393    27.816328    5668.3021 
  194000      193.988    406.39767    16.704865   -441.13881   -424.43395   -9655.4188    1487.5106   -4651.0534   -25802.714    15.339512    13.284395     27.81631    5668.3003 
  194500      194.488    408.74625    16.801403   -441.20885   -424.40745    -9037.652    1882.3411   -3895.9863   -25099.311    15.339514    13.284397    27.816293    5668.2985 
  195000      194.988    391.58596    16.096034   -440.47644   -424.38041   -7898.7706    2700.5212   -5559.7007   -20837.132    15.339516    13.284399    27.816275    5668.2967 
  195500      195.488    425.22146    17.478612   -441.83367   -424.35506   -9847.1123    1075.1379   -4808.3032   -25808.172    15.339519    13.284402    27.816258    5668.2949 
  196000      195.988    393.64357    16.180611   -440.50793   -424.32731   -6579.9543    4638.1121    -3001.424   -21376.551    15.339521    13.284404     27.81624     5668.293 
  196500      196.488     422.9047    17.383382   -441.68422   -424.30084   -8193.3109    5304.1668   -4171.5714   -25712.528    15.339523    13.284406    27.816223    5668.2912 
  197000      196.988      404.082     16.60968   -440.88396   -424.27428   -7852.0056    1650.6369   -1489.5101   -23717.144    15.339526    13.284408    27.816205    5668.2894 
  197500      197.488    397.84653    16.353373   -440.60116   -424.24779   -8125.1169    4399.4036   -4323.5929   -24451.161    15.339528     13.28441    27.816188    5668.2876 
  198000      197.988    414.23999    17.027221   -441.24834   -424.22112   -8385.9806    4774.1485   -4510.5552   -25421.535    15.339531    13.284412     27.81617    5668.2857 
  198500      198.488    417.00767    17.140986   -441.33539   -424.19441   -8585.6781    3914.5063   -1408.3281   -28263.212    15.339533    13.284414    27.816153    5668.2839 
  199000      198.988    418.82832    17.215823   -441.38379   -424.16797   -8388.9181    2151.4173   -3135.3984   -24182.773    15.339535    13.284416    27.816135    5668.2821 
  199500      199.488    410.11701    16.857747    -440.9987   -424.14095   -8416.5248    5280.6415   -5193.9029   -25336.313    15.339538    13.284418    27.816118    5668.2803 
  200000      199.988    418.03752    17.183318    -441.2979   -424.11458   -8257.6187    4685.6244   -4761.2423   -24697.238     15.33954     13.28442      27.8161    5668.2784 
  200500      200.488    394.91568    16.232901   -440.32015   -424.08725   -7312.1422    8058.7487   -4628.3667   -25366.809    15.339542    13.284422    27.816083    5668.2766 
  201000      200.988    428.77696     17.62476   -441.68547   -424.06071   -7892.2633    3785.3848   -3027.7578   -24434.417    15.339545    13.284424    27.816065    5668.2748 
  201500      201.488    401.36783    16.498115   -440.53177   -424.03365   -8235.9503    1617.8716   -3489.1913   -22836.531    15.339547    13.284426    27.816048     5668.273 
  202000      201.988    417.57958    17.164494   -441.17129   -424.00679   -7703.0098    3077.3513   -2882.2271   -23304.154    15.339549    13.284428     27.81603    5668.2712 
  202500      202.488    422.94316    17.384963   -441.36474   -423.97977   -8346.8438     4036.968   -4148.3769   -24929.122    15.339552     13.28443    27.816013    5668.2693 
  203000      202.988    413.01849    16.977012   -440.93023   -423.95322   -7916.7397    5441.7315   -4019.5399   -25172.411    15.339554    13.284432    27.815995    5668.2675 
  203500      203.488      416.667    17.126983   -441.05313   -423.92614   -8368.3725    4119.9501   -3782.4881    -25442.58    15.339556    13.284434    27.815978    5668.2657 
  204000      203.988    424.96283    17.467981     -441.367   -423.89902   -8146.4694    2100.2425   -2732.2091   -23807.442    15.339559    13.284436     27.81596    5668.2639 
  204500      204.488    430.31018    17.687782   -441.55977   -423.87199   -8482.2376    1541.5978   -3960.4608    -23027.85    15.339561    13.284438    27.815943     5668.262 
  205000      204.988    415.90104    17.095498    -440.9405     -423.845   -8034.1499    4203.6429   -3899.0686   -24407.024    15.339563     13.28444    27.815925    5668.2602 
  205500      205.488    411.68414    16.922164   -440.73998   -423.81781   -6336.2225    5413.9347   -1626.1343   -22796.468    15.339566    13.284443    27.815908    5668.2584 
  206000      205.988    421.22503     17.31434   -441.10472   -423.79038    -7803.195    2214.1599   -5144.6829   -20479.062    15.339568    13.284445     27.81589    5668.2566 
  206500      206.488    408.20197     16.77903   -440.54238   -423.76335   -8638.4758     4135.193   -929.95938   -29120.661     15.33957    13.284447    27.815873    5668.2547 
  207000      206.988     428.8019    17.625785   -441.36251   -423.73672   -7835.7249    2157.3782   -320.61093   -25343.942    15.339573    13.284449    27.815855    5668.2529 
  207500      207.488    424.98803    17.469017   -441.17884   -423.70983   -7601.3163    2929.3188    -5065.549   -20667.719    15.339575    13.284451    27.815838    5668.2511 
  208000      207.988     429.4434    17.652153   -441.33446   -423.68231   -8420.0456    3731.7481   -5089.8867   -23901.998    15.339578    13.284453     27.81582    5668.2493 
  208500      208.488    402.46163    16.543075   -440.19792   -423.65485   -7477.0822    5622.2578   -1195.8147    -26857.69     15.33958    13.284455    27.815803    5668.2475 
  209000      208.988    430.16033    17.681623   -441.30987   -423.62824   -8301.0765    4965.3016   -3800.1065   -26068.425    15.339582    13.284457    27.815785    5668.2456 
  209500      209.488    416.44975    17.118053   -440.71841   -423.60036   -7432.3105    3709.7145   -4638.1354   -21368.511    15.339585    13.284459    27.815768    5668.2438 
  210000      209.988    422.89962    17.383173   -440.95645   -423.57328   -8964.6722    2829.9426   -6160.1176   -23563.842    15.339587    13.284461     27.81575     5668.242 
  210500      210.488    430.62892    17.700884   -441.24705   -423.54616   -8526.4843    4073.7341   -2431.2656   -27221.921    15.339589    13.284463    27.815733    5668.2402 
  211000      210.988    423.69559    17.415891   -440.93484   -423.51895   -8387.1579    4263.8655   -2243.5038   -27181.835    15.339592    13.284465    27.815715    5668.2383 
  211500      211.488    422.69633    17.374817   -440.86668   -423.49186   -8421.3976    3790.6853   -4712.5826   -24342.296    15.339594    13.284467    27.815698    5668.2365 
  212000      211.988    427.10463    17.556019   -441.02048   -423.46446   -8300.1583    3427.9955   -2454.6783   -25873.792    15.339596    13.284469     27.81568    5668.2347 
[...]
  948500      948.488    578.43376    23.776361   -435.81791   -412.04155    -3669.085    4183.2431     7281.893   -22472.391    15.343058    13.287489    27.789903    5665.5472 
  949000      948.988    554.73127    22.802077   -434.83761   -412.03554   -1037.1609    5295.9466    6882.2516   -15289.681     15.34306    13.287491    27.789885    5665.5454 
  949500      949.488    545.14692    22.408115   -434.43933   -412.03122   -2158.5338    4451.8968    4740.2769   -15667.775    15.343063    13.287493    27.789868    5665.5436 
  950000      949.988    556.84228     22.88885   -434.91604   -412.02719   -3355.6248    3428.7953     6550.017   -20045.687    15.343065    13.287495     27.78985    5665.5418 
  950500      950.488    575.39054    23.651271   -435.67342   -412.02215   -3150.3272    778.68918    8685.1214   -18914.792    15.343067    13.287497    27.789833    5665.5399 
  951000      950.988    558.14694    22.942477   -434.96072   -412.01824   -1935.2993    4094.1283    9091.7622   -18991.789     15.34307    13.287499    27.789815    5665.5381 
  951500      951.488    569.23151    23.398105   -435.41255   -412.01444   -3383.5874    1150.9889    10642.477   -21944.228    15.343072    13.287501    27.789798    5665.5363 
  952000      951.988    582.47237    23.942367   -435.95349   -412.01113   -2406.4545    5267.7093    5913.6545   -18400.727    15.343074    13.287503     27.78978    5665.5345 
  952500      952.488    559.85984    23.012885   -435.02098   -412.00809   -1990.6144    5047.3607    6267.2499   -17286.454    15.343077    13.287505    27.789763    5665.5326 
  953000      952.988    557.42342    22.912737   -434.91566   -412.00293   -1792.1294    5412.5654     8221.735   -19010.689    15.343079    13.287507    27.789745    5665.5308 
  953500      953.488    573.02936    23.554215    -435.5525   -411.99829    -3037.105     1750.452    7298.6488   -18160.416    15.343081    13.287509    27.789728     5665.529 
  954000      953.988    601.85919    24.739257   -436.73449   -411.99523    -4550.333    446.28013    5895.0548   -19992.334    15.343084    13.287511     27.78971    5665.5272 
  954500      954.488     566.3144    23.278198   -435.26772   -411.98953   -2121.8264     6247.738    2589.9066   -15203.124    15.343086    13.287513    27.789693    5665.5253 
  955000      954.988    592.95588    24.373289   -436.35885   -411.98556   -2969.3639    5013.6171     5159.409   -19081.118    15.343088    13.287515    27.789675    5665.5235 
  955500      955.488    568.04735    23.349431   -435.32972   -411.98029   -3733.7101    1764.3504    7822.8624   -20788.343    15.343091    13.287518    27.789658    5665.5217 
  956000      955.988    557.12085      22.9003   -434.87613   -411.97583    -1920.802    4795.5108    7818.3288   -18376.246    15.343093     13.28752     27.78964    5665.5198 
  956500      956.488    571.26105    23.481529   -435.45153      -411.97   -3901.6873    3687.0698    4595.8961   -19988.028    15.343095    13.287522    27.789623     5665.518 
  957000      956.988    567.44174    23.324537   -435.28979   -411.96526   -1625.4146    3102.5898    9655.0591   -17633.893    15.343098    13.287524    27.789605    5665.5162 
  957500      957.488    607.80553     24.98368   -436.94529   -411.96161   -3725.8241    3683.9071    1849.1974   -16710.577      15.3431    13.287526    27.789588    5665.5144 
  958000      957.988    576.89617    23.713159   -435.66884   -411.95568   -2632.4443    5579.4088    5366.4175   -18843.159    15.343103    13.287528     27.78957    5665.5125 
  958500      958.488    547.98525    22.524783   -434.47586   -411.95108   -3468.0534    3970.3237    5301.6548   -19676.139    15.343105     13.28753    27.789553    5665.5107 
  959000      958.988    574.37735    23.609624   -435.55556   -411.94594   -3824.6059    1323.0739     7827.376   -20624.268    15.343107    13.287532    27.789535    5665.5089 
  959500      959.488     577.4621    23.736422   -435.67722    -411.9408   -2639.9421    3266.4164    6112.7966   -17299.039     15.34311    13.287534    27.789518    5665.5071 
  960000      959.988    534.87519    21.985898   -433.92057   -411.93467   -1464.9302    5431.6977    4292.7433   -14119.231    15.343112    13.287536      27.7895    5665.5052 
  960500      960.488     557.1542    22.901671   -434.83077    -411.9291   -2858.4439     1947.857    4512.8608   -15036.049    15.343114    13.287538    27.789483    5665.5034 
  961000      960.988    549.59446     22.59093   -434.51498   -411.92405   -1769.7255      4586.08    8142.8595   -18038.116    15.343117     13.28754    27.789465    5665.5016 
  961500      961.488    548.14804    22.531475   -434.44862   -411.91714   -2927.0285    6204.3353    2759.8356   -17745.256    15.343119    13.287542    27.789448    5665.4998 
  962000      961.988    599.04411    24.623544   -436.53675    -411.9132   -2457.4122    4007.3122    5649.5397   -17029.089    15.343121    13.287544     27.78943    5665.4979 
  962500      962.488    533.08169    21.912177   -433.81779   -411.90561   -1732.8829    2982.1189    6556.3109   -14737.078    15.343124    13.287546    27.789413    5665.4961 
  963000      962.988    577.25219    23.727793   -435.62941   -411.90161   -2879.0306    2706.3253    8413.2946   -19756.712    15.343126    13.287548    27.789395    5665.4943 
  963500      963.488    561.92648    23.097834   -434.99276   -411.89493   -4835.1294   -382.25378    6531.7996   -20654.934    15.343128     13.28755    27.789378    5665.4925 
  964000      963.988    582.92913    23.961142   -435.84989   -411.88875   -3172.9128    3189.9442     1944.231   -14652.913    15.343131    13.287552     27.78936    5665.4906 
  964500      964.488    575.74996    23.666045   -435.54876   -411.88272   -3250.8682    4691.0107    7789.8464   -22233.462    15.343133    13.287554    27.789343    5665.4888 
  965000      964.988    569.71093    23.417812   -435.29505   -411.87724   -4043.3213    3517.5465    7114.4579   -22761.968    15.343135    13.287556    27.789325     5665.487 
  965500      965.488    556.17196    22.861296   -434.73276   -411.87146   -1595.2744     5676.176    5793.7005     -16255.7    15.343138    13.287559    27.789308    5665.4852 
  966000      965.988    573.16188    23.559662   -435.42517   -411.86551   -1736.3328    4666.2493    5850.9197   -15726.167     15.34314    13.287561     27.78929    5665.4833 
  966500      966.488    594.55846    24.439163   -436.29903   -411.85987   -2619.8889    3571.0864    5884.1735   -17314.927    15.343142    13.287563    27.789273    5665.4815 
  967000      966.988    541.93487    22.276084   -434.12908     -411.853   -1850.9874    7285.8194    6524.9317   -19363.714    15.343145    13.287565    27.789255    5665.4797 
  967500      967.488    597.90967    24.576913   -436.42463   -411.84772   -3181.6128     1298.077    7762.9744    -18605.89    15.343147    13.287567    27.789238    5665.4779 
  968000      967.988    583.64714    23.990656   -435.83186    -411.8412   -3685.3181    1814.8678    4104.0452   -16974.867     15.34315    13.287569     27.78922     5665.476 
  968500      968.488    578.93808    23.797091   -435.63135   -411.83426   -3516.4856   -71.551948      9072.17   -19550.075    15.343152    13.287571    27.789203    5665.4742 
  969000      968.988    582.60885    23.947977   -435.77619   -411.82821   -4350.5884    24.208631    7063.9391   -20139.913    15.343154    13.287573    27.789185    5665.4724 
  969500      969.488    574.70638    23.623148   -435.44413   -411.82098    -2650.678    2283.6073    8752.0148   -18987.656    15.343157    13.287575    27.789168    5665.4705 
  970000      969.988    567.62623    23.332121   -435.14654   -411.81442   -2744.2206    2923.9092    9276.4766   -20433.048    15.343159    13.287577     27.78915    5665.4687 
  970500      970.488    530.27542    21.796826   -433.60417   -411.80734   -1308.5545    9029.8327    5892.5999   -18848.096    15.343161    13.287579    27.789133    5665.4669 
  971000      970.988     559.4247    22.994999     -434.796     -411.801   -2721.2536    1474.4038    7868.1746   -17506.339    15.343164    13.287581    27.789115    5665.4651 
  971500      971.488     580.6166    23.866086   -435.66081   -411.79472   -2949.8324    1388.2825    9021.6206     -19259.4    15.343166    13.287583    27.789098    5665.4632 
  972000      971.988    552.51335     22.71091   -434.49743   -411.78652   -2606.0575    1880.3471    7450.2174   -17148.737    15.343168    13.287585     27.78908    5665.4614 
  972500      972.488     564.4614    23.202031   -434.98124   -411.77921   -2827.7585    3852.1794    8918.1173   -21253.572    15.343171    13.287587    27.789063    5665.4596 
  973000      972.988    577.46247    23.736437   -435.50912   -411.77268   -2775.5929    2954.4033    6792.7044   -18073.886    15.343173    13.287589    27.789045    5665.4578 
  973500      973.488    595.15511    24.463688   -436.23006   -411.76637   -4626.1421    2437.4482    5115.3768   -21431.251    15.343175    13.287591    27.789028    5665.4559 
  974000      973.988     566.2368    23.275009   -435.03566   -411.76065   -2274.2716    3119.2198    7067.8983   -17009.933    15.343178    13.287593     27.78901    5665.4541 
  974500      974.488    562.86064    23.136232   -434.88934   -411.75311   -1664.4684    3736.5318    7934.1176   -16664.055     15.34318    13.287595    27.788993    5665.4523 
  975000      974.988    554.58961    22.796254   -434.54229   -411.74604   -1553.3394    2460.0775    7133.1098   -14253.205    15.343182    13.287597    27.788975    5665.4505 
  975500      975.488    596.58816    24.522593   -436.26263   -411.74004   -2760.5341    1457.1716    8659.9401   -18398.714    15.343185      13.2876    27.788958    5665.4486 
  976000      975.988    562.97203    23.140811   -434.87356   -411.73275   -2431.9983    5634.2483     4534.716   -17464.959    15.343187    13.287602     27.78894    5665.4468 
  976500      976.488    567.35361    23.320915   -435.04611   -411.72519   -2337.4282     1385.525    8086.3323   -16484.142    15.343189    13.287604    27.788923     5665.445 
  977000      976.988      572.441    23.530031   -435.24886   -411.71883   -2902.2593    2110.6327    6703.7105   -17521.121    15.343192    13.287606    27.788905    5665.4432 
  977500      977.488    595.26001       24.468   -436.17935   -411.71135   -4357.9888    4384.7057    6225.6479    -23684.32    15.343194    13.287608    27.788888    5665.4413 
  978000      977.988     549.4606    22.585427   -434.28867   -411.70324   -2888.4611    3031.0148    5776.5954   -17472.994    15.343197     13.28761     27.78887    5665.4395 
  978500      978.488      574.608    23.619104   -435.31575   -411.69664   -2371.1123    2687.6662    9940.2185   -19741.222    15.343199    13.287612    27.788853    5665.4377 
  979000      978.988    562.71508    23.130249   -434.81887   -411.68862   -1306.8002    5946.3732    6184.7417   -16051.516    15.343201    13.287614    27.788835    5665.4359 
  979500      979.488    577.07731    23.720605   -435.40129   -411.68068   -601.09629    3107.9284    8405.6795   -13316.897    15.343204    13.287616    27.788818     5665.434 
  980000      979.988    551.51655    22.669937   -434.34239   -411.67245   -2440.0012    716.03485    5353.4216    -13389.46    15.343206    13.287618      27.7888    5665.4322 
  980500      980.488    567.11841    23.311247   -434.97727   -411.66603   -2851.6019    4571.6843    6332.3615   -19458.852    15.343208     13.28762    27.788783    5665.4304 
  981000      980.988     574.7235    23.623852   -435.28168   -411.65783   -4185.2709    4243.5412    5354.3431   -22153.697    15.343211    13.287622    27.788765    5665.4285 
  981500      981.488    593.10081    24.379246   -436.03056   -411.65132   -3969.0088    1631.7327     5546.035   -19084.794    15.343213    13.287624    27.788748    5665.4267 
  982000      981.988    586.62304    24.112979   -435.75479   -411.64181   -3652.8257    1608.0508     5140.038   -17706.566    15.343215    13.287626     27.78873    5665.4249 
  982500      982.488    559.97123    23.017464   -434.65091   -411.63345   -3154.3658    1153.9517    5309.1396   -15926.189    15.343218    13.287628    27.788713    5665.4231 
  983000      982.988    581.84338    23.916513   -435.54165   -411.62514   -3745.7063    2784.4533    4728.4655   -18750.038     15.34322     13.28763    27.788695    5665.4212 
  983500      983.488    574.77697     23.62605   -435.24316   -411.61711   -2503.3623    1494.7553    7896.0877    -16900.93    15.343222    13.287632    27.788678    5665.4194 
  984000      983.988    560.61449    23.043905   -434.65335   -411.60945   -2507.7792    5815.5768    8007.4299   -21346.344    15.343225    13.287634     27.78866    5665.4176 
  984500      984.488    580.15167    23.846975   -435.44955   -411.60257   -2414.2263    4131.9334    4681.4502   -16056.063    15.343227    13.287636    27.788643    5665.4158 
  985000      984.988    588.50074    24.190162    -435.7842   -411.59403   -2742.8313    2096.2227    7538.5571   -17863.274    15.343229    13.287638    27.788625    5665.4139 
  985500      985.488    561.54803    23.082278   -434.66798   -411.58571   -2620.8325    4548.5133    5729.1731   -18140.184    15.343232    13.287641    27.788608    5665.4121 
  986000      985.988    587.26302    24.139286   -435.71769    -411.5784   -1877.3544    5720.6932    5105.7398   -16458.496    15.343234    13.287643     27.78859    5665.4103 
  986500      986.488    554.32473    22.785366   -434.35413   -411.56877   -1948.3495    3737.1911    7723.7745   -17306.014    15.343236    13.287645    27.788573    5665.4085 
  987000      986.988    577.34833    23.731745   -435.29283   -411.56108   -1133.9299    3707.8726    10887.664   -17997.326    15.343239    13.287647    27.788555    5665.4066 
  987500      987.488    565.55196    23.246859   -434.79975   -411.55289   -2252.4608    1608.0945    7616.7392   -15982.216    15.343241    13.287649    27.788538    5665.4048 
  988000      987.988    581.05008    23.883904   -435.42886   -411.54496   -3470.2688    2567.9777    9439.8563    -22418.64    15.343244    13.287651     27.78852     5665.403 
  988500      988.488    584.49958    24.025695   -435.56077   -411.53508   -3230.7313    4760.5407    6856.5846   -21309.319    15.343246    13.287653    27.788503    5665.4012 
  989000      988.988    579.54719    23.822129   -435.34895   -411.52682    -3683.202    3890.8081    6160.3068   -21100.721    15.343248    13.287655    27.788485    5665.3993 
  989500      989.488     597.4419    24.557686   -436.07736   -411.51967   -3100.7077    2728.8586    9421.5172   -21452.499    15.343251    13.287657    27.788468    5665.3975 
  990000      989.988    570.53839    23.451824   -434.96224   -411.51042   -2312.9371    1911.5793    8758.7427   -17609.133    15.343253    13.287659     27.78845    5665.3957 
  990500      990.488     562.4443    23.119119   -434.62002    -411.5009   -2128.1929    5554.7511     7373.719   -19313.049    15.343255    13.287661    27.788433    5665.3939 
  991000      990.988    573.60131    23.577725   -435.06952    -411.4918   -2818.9672    544.47791    6457.8391   -15459.219    15.343258    13.287663    27.788415     5665.392 
  991500      991.488    589.04616    24.212581   -435.69487   -411.48229   -2069.9327    6732.2704    7442.1443   -20384.213     15.34326    13.287665    27.788398    5665.3902 
  992000      991.988    592.12428    24.339106   -435.81378   -411.47467    -2703.231     197.8176    7811.7331   -16119.244    15.343262    13.287667     27.78838    5665.3884 
  992500      992.488    574.19729    23.602222   -435.06673   -411.46451   -2693.2974    1903.6983    6282.5802   -16266.171    15.343265    13.287669    27.788363    5665.3866 
  993000      992.988    590.11854    24.256661   -435.71419   -411.45753   -1141.9011    7289.1972    9092.9323   -19807.833    15.343267    13.287671    27.788345    5665.3847 
  993500      993.488    568.00382    23.347642   -434.79574    -411.4481   -2014.0336    4912.7976     5740.657   -16695.555    15.343269    13.287673    27.788328    5665.3829 
  994000      993.988    588.82215    24.203373   -435.64218    -411.4388   -917.74996     5326.334    9423.9711   -17503.555    15.343272    13.287675     27.78831    5665.3811 
  994500      994.488    596.13451    24.503946   -435.93449   -411.43054   -3399.3552    2613.8538     7180.133   -19992.052    15.343274    13.287677    27.788293    5665.3792 
  995000      994.988    599.59365    24.646133   -436.06658   -411.42045   -3169.6009    911.84365    9939.2542     -20359.9    15.343276    13.287679    27.788275    5665.3774 
  995500      995.488     567.7335     23.33653   -434.74727   -411.41074   -1023.0935    1791.7845    11310.836   -16171.901    15.343279    13.287682    27.788258    5665.3756 
  996000      995.988    565.15167    23.230405   -434.63293   -411.40252   -1988.2542     6556.365    4045.4308   -16566.558    15.343281    13.287684     27.78824    5665.3738 
  996500      996.488    586.00175    24.087441   -435.48023   -411.39279   -1616.4867    1749.1682    7304.5997   -13903.228    15.343283    13.287686    27.788223    5665.3719 
  997000      996.988     588.3341    24.183312   -435.56741   -411.38409   -2640.0428    3284.0978    5910.4375   -17114.664    15.343286    13.287688    27.788205    5665.3701 
  997500      997.488    591.91868    24.330655   -435.70576    -411.3751   -3006.2677    4563.1137    6361.0748   -19942.992    15.343288     13.28769    27.788188    5665.3683 
  998000      997.988     563.3545    23.156532   -434.52029   -411.36376   -1596.4704    5948.0478    6013.5029   -16750.962    15.343291    13.287692     27.78817    5665.3665 
  998500      998.488    593.47548    24.394647   -435.74944   -411.35479   -2252.9725    3765.7946    5457.3799   -15982.092    15.343293    13.287694    27.788153    5665.3646 
  999000      998.988    580.55415    23.863519   -435.20863   -411.34511   -765.55684    953.95221    6855.9313   -10106.554    15.343295    13.287696    27.788135    5665.3628 
  999500      999.488    586.37959    24.102972   -435.43861   -411.33563   -2431.1052     6981.846    7046.0686    -21321.23    15.343298    13.287698    27.788118     5665.361 
 1000000      999.988    602.00781    24.745366   -436.07016    -411.3248   -1427.7851    4456.7174    9797.1308   -18537.204      15.3433      13.2877      27.7881    5665.3592 
 1000012         1000    594.78914    24.448645   -435.77359   -411.32494   -1400.7893    3894.5825    9326.7936   -17423.744      15.3433      13.2877      27.7881    5665.3591 
Loop time of 894.269 on 28 procs for 1000000 steps with 319 atoms

Performance: 96.615 ns/day, 0.248 hours/ns, 1118.231 timesteps/s
87.0% CPU use with 28 MPI tasks x no OpenMP threads

MPI task timing breakdown:
Section |  min time  |  avg time  |  max time  |%varavg| %total
---------------------------------------------------------------
Pair    | 746.24     | 780.85     | 808.55     |  61.9 | 87.32
Neigh   | 0.018139   | 0.025543   | 0.032789   |   2.7 |  0.00
Comm    | 74.549     | 100.07     | 134.31     | 168.1 | 11.19
Output  | 0.10153    | 0.10412    | 0.12768    |   1.4 |  0.01
Modify  | 5.2585     | 8.1158     | 12.878     |  85.7 |  0.91
Other   |            | 5.11       |            |       |  0.57

Nlocal:    11.3929 ave 17 max 7 min
Histogram: 1 3 3 5 1 6 4 2 1 2
Nghost:    645.643 ave 687 max 591 min
Histogram: 3 3 1 3 1 3 1 2 8 3
Neighs:    702.071 ave 1084 max 448 min
Histogram: 5 3 2 3 5 5 1 3 0 1
FullNghs:  1404.14 ave 2146 max 867 min
Histogram: 4 3 5 1 4 5 3 1 1 1

Total # of neighbors = 39316
Ave neighs/atom = 123.248
Neighbor list builds = 379
Dangerous builds = 0

write_restart   POSCAR_1x1x1.rest

#unfix    1
#undump   1
Total wall time: 0:14:54
