LAMMPS (7 Dec 2015)
#----------- Initialize Simulation ------------ restart01
#processors	2 2 2
units		metal
boundary	p p p     ## periodic boundary condition  on x y z axis ##
atom_style atomic
#atom_modify map array sort 0 0.0

read_data	POSCAR_1x1x1.lammps
  triclinic box = (0 0 0) to (15.4147 13.3495 27.2633) with tilt (-7.70725 0 0)
  2 by 2 by 7 MPI processor grid
  reading atoms ...
  319 atoms

#----------- Define Potential -----------------
pair_style meam
pair_coeff * * MgAlZn.library.meam Mg Al Zn MgAlZn.parameter.meam Mg Al Zn 	#1=Mg 2=Al 3=Zn	#atoms/mass

#----------- Neighbor List --------------------
neighbor 2.0 bin
neigh_modify delay 10 check yes

#--------------  Run a simulation (minimization) ---------------------------------------
minimize       1.0e-4   1.0e-6   100   1000          #結構優化的條件
WARNING: Resetting reneighboring criteria during minimization (../min.cpp:168)
Neighbor list info ...
  2 neighbor list requests
  update every 1 steps, delay 0 steps, check yes
  max neighbors/atom: 2000, page size: 100000
  master list distance cutoff = 8
  ghost atom cutoff = 8
  binsize = 4 -> bins = 6 4 7
Memory usage per processor = 8.65586 Mbytes
Step Temp E_pair E_mol TotEng Press 
       0            0   -435.64867            0   -435.64867   -5225.3438 
      13            0   -458.14963            0   -458.14963   -21278.801 
Loop time of 0.0212304 on 28 procs for 13 steps with 319 atoms

87.2% CPU use with 28 MPI tasks x no OpenMP threads

Minimization stats:
  Stopping criterion = energy tolerance
  Energy initial, next-to-last, final = 
        -435.648667314     -458.117967802     -458.149631709
  Force two-norm initial, final = 20.2834 0.762948
  Force max component initial, final = 3.73204 0.164655
  Final line search alpha, max atom move = 0.390012 0.0642173
  Iterations, force evaluations = 13 23

MPI task timing breakdown:
Section |  min time  |  avg time  |  max time  |%varavg| %total
---------------------------------------------------------------
Pair    | 0.016553   | 0.01823    | 0.019053   |   0.4 | 85.87
Neigh   | 0          | 0          | 0          |   0.0 |  0.00
Comm    | 0.0013433  | 0.0021389  | 0.0037766  |   1.2 | 10.07
Output  | 0          | 0          | 0          |   0.0 |  0.00
Modify  | 0          | 0          | 0          |   0.0 |  0.00
Other   |            | 0.0008612  |            |       |  4.06

Nlocal:    11.3929 ave 17 max 5 min
Histogram: 1 1 3 1 3 8 6 3 1 1
Nghost:    641.357 ave 679 max 581 min
Histogram: 3 2 1 2 0 1 5 3 7 4
Neighs:    709.786 ave 1028 max 293 min
Histogram: 1 1 3 1 4 7 1 5 4 1
FullNghs:  1419.57 ave 2145 max 617 min
Histogram: 1 1 3 3 4 5 6 3 1 1

Total # of neighbors = 39748
Ave neighs/atom = 124.602
Neighbor list builds = 0
Dangerous builds = 0
velocity all  create 600.0 4928459 #rot yes dist gaussian

#--------------  Run a simulation (Relaxation)  ----------------------------------------
fix  1  all  nvt   temp  600.0  600.0  100				#damping constant
#fix  2  all  npt   temp  393.0  393.0  50 iso 0.0 0.0 1000.0
fix  2  all deform 1 x final 0 15.4194 y final 0 13.3536 z final 0 27.2283 xy final -7.7096 units lattice
#fix  3  all  npt   temp  393.0  393.0  50 z 0.0 0.0 1000.0

#variable b equal 1
#fix 2 all efield  0.0  0.0  v_b
#compute pot all pe/atom


#----------- Output --------------------------
thermo	 500
timestep  0.001		#1.0 fs
thermo_style	custom step time temp ke pe etotal press pxx pyy pzz lx ly lz vol

dump 1 all custom 10000 dump.eq id type x y z
dump_modify 1 sort  id

run        1000000	#1000 ps
Neighbor list info ...
  2 neighbor list requests
  update every 1 steps, delay 10 steps, check yes
  max neighbors/atom: 2000, page size: 100000
  master list distance cutoff = 8
  ghost atom cutoff = 8
  binsize = 4 -> bins = 6 4 7
Memory usage per processor = 7.56238 Mbytes
Step Time Temp KinEng PotEng TotEng Press Pxx Pyy Pzz Lx Ly Lz Volume 
      13            0          600    24.662836   -458.14963    -433.4868   -16583.282   -12395.243   -10693.304   -26661.299      15.4147      13.3495      27.2633     5610.202 
     500        0.487    310.94262    12.781211    -446.2637   -433.48249   -9353.4125   -5504.1377   -3459.4947   -19096.605    15.414702    13.349502    27.263283    5610.2002 
    1000        0.987    330.65915    13.591654   -447.07423   -433.48257   -10696.398   -6389.6303   -5717.5795   -19981.983    15.414705    13.349504    27.263265    5610.1983 
    1500        1.487    312.31739    12.837721   -446.31938   -433.48166   -9440.0722   -8125.5896   -2415.6493   -17778.978    15.414707    13.349506    27.263248    5610.1964 
    2000        1.987    331.97796    13.645863   -447.12707   -433.48121   -10001.282   -6247.1513    -5315.892   -18440.802    15.414709    13.349508     27.26323    5610.1945 
    2500        2.487    312.09313    12.828503   -446.30814   -433.47964   -9173.4893   -4831.9136   -3914.2252   -18774.329    15.414712     13.34951    27.263213    5610.1926 
    3000        2.987    314.23598    12.916584    -446.3947   -433.47811   -10323.815   -7246.6242   -5274.0053   -18450.817    15.414714    13.349512    27.263195    5610.1907 
    3500        3.487     313.6387    12.892033   -446.36876   -433.47673   -10096.165   -6774.2741   -4234.8453   -19279.377    15.414716    13.349514    27.263178    5610.1889 
    4000        3.987    314.50257    12.927542   -446.40098   -433.47344   -10230.806   -7164.7548   -4630.0376   -18897.626    15.414719    13.349516     27.26316     5610.187 
    4500        4.487    317.72704    13.060083   -446.53132   -433.47124   -9211.2509   -5498.1022   -4992.3703    -17143.28    15.414721    13.349518    27.263143    5610.1851 
    5000        4.987    306.46312    12.597083   -446.06542   -433.46834   -8943.7416   -5615.6426   -4582.4658   -16633.116    15.414723     13.34952    27.263125    5610.1832 
    5500        5.487    314.74735    12.937604   -446.40326   -433.46566   -10237.119   -7262.1216   -6119.8497   -17329.385    15.414726    13.349522    27.263108    5610.1813 
    6000        5.987    318.53749    13.093396   -446.55495   -433.46155   -9823.2019   -6509.9445   -4610.2254   -18349.436    15.414728    13.349525     27.26309    5610.1794 
    6500        6.487    320.03232    13.154841   -446.61281   -433.45797   -10957.057    -9452.249   -4872.3177   -18546.603     15.41473    13.349527    27.263073    5610.1776 
    7000        6.987    313.59721    12.890327    -446.3438   -433.45347   -10936.905   -6066.7348   -3680.7919   -23063.187    15.414733    13.349529    27.263055    5610.1757 
    7500        7.487    311.47654    12.803158   -446.25245   -433.44929   -9626.4214   -6355.5598   -2299.8732   -20223.831    15.414735    13.349531    27.263038    5610.1738 
    8000        7.987    311.60424    12.808407   -446.25287   -433.44446   -10404.543   -5933.2308   -5136.8489   -20143.548    15.414738    13.349533     27.26302    5610.1719 
    8500        8.487    326.96503    13.439808   -446.87957   -433.43976   -9507.9976    -7283.207   -4715.1776   -16525.608     15.41474    13.349535    27.263003      5610.17 
    9000        8.987     293.0592    12.046118   -445.47954   -433.43342   -9411.7862   -5648.2268   -2588.1692   -19998.963    15.414742    13.349537    27.262985    5610.1681 
    9500        9.487    312.87374     12.86059   -446.28876   -433.42817   -10114.617   -8417.6041   -4775.5038   -17150.743    15.414745    13.349539    27.262968    5610.1663 
   10000        9.987    306.25252    12.588426   -446.01102   -433.42259   -9508.1735    -5873.124   -4175.6929   -18475.704    15.414747    13.349541     27.26295    5610.1644 
   10500       10.487    318.09679    13.075281   -446.49125   -433.41597   -9954.6256    -8239.962   -6209.7699   -15414.145    15.414749    13.349543    27.262933    5610.1625 
   11000       10.987    305.37891    12.552516   -445.96168   -433.40916   -9359.6992   -6077.5564   -4847.7037   -17153.837    15.414752    13.349545    27.262915    5610.1606 
   11500       11.487    312.01036      12.8251   -446.22768   -433.40258   -10591.017   -6791.4574   -5356.8246    -19624.77    15.414754    13.349547    27.262898    5610.1587 
   12000       11.987    300.74883    12.362198   -445.75736   -433.39516   -10345.174    -5841.732   -4562.6302    -20631.16    15.414756    13.349549     27.26288    5610.1568 
   12500       12.487    309.59567    12.725845   -446.11337   -433.38752   -10613.667   -8640.3214   -4509.0458   -18691.634    15.414759    13.349551    27.262863    5610.1549 
   13000       12.987    317.59437    13.054629   -446.43409   -433.37946   -10600.008   -6255.2266   -7415.9579   -18128.841    15.414761    13.349553    27.262845    5610.1531 
   13500       13.487    319.64021    13.138723   -446.51061   -433.37189   -10186.112   -7562.9561   -6536.8999   -16458.479    15.414763    13.349555    27.262828    5610.1512 
   14000       13.987    309.57243     12.72489   -446.08785   -433.36296   -10321.368   -8927.6329   -2633.5813    -19402.89    15.414766    13.349557     27.26281    5610.1493 
   14500       14.487    315.62998    12.973884   -446.32855   -433.35466   -8888.8542   -6210.7269   -4596.3863   -15859.449    15.414768    13.349559    27.262793    5610.1474 
   15000       14.987    295.53846    12.148028    -445.4928   -433.34477   -8966.3045   -5909.5755   -4079.8916   -16909.446     15.41477    13.349561    27.262775    5610.1455 
   15500       15.487     322.6636    13.262999   -446.59897   -433.33597    -10360.94   -7182.3556   -4058.0393   -19842.425    15.414773    13.349563    27.262758    5610.1436 
   16000       15.987    319.57562    13.136068   -446.46278   -433.32671   -9281.2694   -5371.6769   -3952.9371   -18519.194    15.414775    13.349566     27.26274    5610.1418 
   16500       16.487     312.6727    12.852326   -446.16853   -433.31621   -9025.9122   -4381.3908   -6598.1714   -16098.175    15.414777    13.349568    27.262723    5610.1399 
   17000       16.987    301.59725    12.397072   -445.70268   -433.30561   -9950.0002   -6969.6695   -4031.6541   -18848.677     15.41478     13.34957    27.262705     5610.138 
   17500       17.487    306.35039    12.592449   -445.88794   -433.29549   -10148.248   -5349.4599   -2830.9879   -22264.296    15.414782    13.349572    27.262688    5610.1361 
   18000       17.987    327.23428    13.450876   -446.73562   -433.28475     -9827.84   -5274.4881   -3590.5988   -20618.433    15.414785    13.349574     27.26267    5610.1342 
   18500       18.487    329.12619    13.528642   -446.80179   -433.27314    -10651.39   -5259.6325   -5631.1381   -21063.401    15.414787    13.349576    27.262653    5610.1323 
   19000       18.987    310.07554     12.74557   -446.00717    -433.2616   -10324.835   -7165.3254   -5387.6291    -18421.55    15.414789    13.349578    27.262635    5610.1304 
   19500       19.487    296.02893    12.168188   -445.41784   -433.24965   -9856.5367   -6250.3756   -2580.5359   -20738.699    15.414792     13.34958    27.262618    5610.1286 
   20000       19.987      313.719    12.895334   -446.13324   -433.23791    -10460.73   -7854.6685   -3909.4624   -19618.059    15.414794    13.349582      27.2626    5610.1267 
   20500       20.487    319.07761    13.115598   -446.34124   -433.22564   -9785.4247   -7318.1507   -5132.5685   -16905.555    15.414796    13.349584    27.262583    5610.1248 
   21000       20.987    325.60077    13.383731   -446.59621   -433.21248   -9664.0239   -8328.5706   -618.58393   -20044.917    15.414799    13.349586    27.262565    5610.1229 
   21500       21.487    325.09554    13.362963   -446.56289   -433.19993   -9239.2089   -5352.2811   -3711.3786   -18653.967    15.414801    13.349588    27.262548     5610.121 
   22000       21.987    324.48585    13.337902   -446.52444   -433.18654   -9969.2364   -6937.4123   -5463.2237   -17507.073    15.414803     13.34959     27.26253    5610.1191 
   22500       22.487    323.14549    13.282807   -446.45607   -433.17326   -9241.9713   -5920.8953    -4866.015   -16939.004    15.414806    13.349592    27.262513    5610.1173 
   23000       22.987    309.16044    12.707955   -445.86762   -433.15966   -9757.0876   -8650.7781   -3895.6415   -16724.843    15.414808    13.349594    27.262495    5610.1154 
   23500       23.487    326.44801    13.418556   -446.56379   -433.14523   -10053.014   -7085.5527   -4558.0718   -18515.417     15.41481    13.349596    27.262478    5610.1135 
   24000       23.987    319.65744    13.139431    -446.2707   -433.13126   -9638.2673   -5418.3357   -4701.3472   -18795.119    15.414813    13.349598     27.26246    5610.1116 
   24500       24.487    319.59778    13.136979   -446.25305   -433.11607   -9761.3658   -6837.9144   -5552.0694   -16894.114    15.414815      13.3496    27.262443    5610.1097 
   25000       24.987    314.94112    12.945568   -446.04692   -433.10136   -9820.7579   -6297.8028   -3356.8978   -19807.573    15.414817    13.349602    27.262425    5610.1078 
   25500       25.487    303.75123    12.485611   -445.57183   -433.08622   -9134.7308   -3844.9351    -4490.435   -19068.822     15.41482    13.349604    27.262408     5610.106 
   26000       25.987    313.83401    12.900061   -445.97103   -433.07097   -9350.3245   -7636.5677   -4257.3601   -16157.046    15.414822    13.349607     27.26239    5610.1041 
   26500       26.487    331.77587    13.637556   -446.69327   -433.05571   -10224.347   -5224.6033   -6373.7767   -19074.661    15.414824    13.349609    27.262373    5610.1022 
   27000       26.987    304.88167    12.532078   -445.57173   -433.03965   -8932.2184   -6322.4383   -3845.4196   -16628.797    15.414827    13.349611    27.262355    5610.1003 
   27500       27.487    316.59781    13.013666   -446.03717    -433.0235   -9232.2506   -5801.5608   -3405.5555   -18489.636    15.414829    13.349613    27.262338    5610.0984 
   28000       27.987    322.18123    13.243171   -446.25035   -433.00718   -10274.728   -7764.7547    -4920.906   -18138.524    15.414832    13.349615     27.26232    5610.0965 
   28500       28.487    307.19616    12.627214   -445.61816   -432.99095   -9696.5783    -7927.526   -4157.8272   -17004.382    15.414834    13.349617    27.262303    5610.0946 
   29000       28.987    328.96924     13.52219    -446.4964   -432.97421   -9821.6568     -5001.31   -4712.3091   -19751.351    15.414836    13.349619    27.262285    5610.0928 
   29500       29.487    313.41372    12.882785   -445.83973   -432.95695   -9594.4395   -6449.9252   -1616.8442   -20716.549    15.414839    13.349621    27.262268    5610.0909 
   30000       29.987    310.11124    12.747038   -445.68752   -432.94048   -10134.652   -8074.3363   -3253.4021   -19076.219    15.414841    13.349623     27.26225     5610.089 
   30500       30.487    335.63459    13.796168   -446.71983   -432.92366   -9609.3769   -6573.5631   -3525.9788   -18728.589    15.414843    13.349625    27.262233    5610.0871 
   31000       30.987    317.14324    13.036086   -445.94175   -432.90566   -9782.1868   -6150.0996   -4531.9788   -18664.482    15.414846    13.349627    27.262215    5610.0852 
   31500       31.487    314.70048    12.935677   -445.82363   -432.88796   -9223.0827   -6683.0122   -5352.8922   -15633.344    15.414848    13.349629    27.262198    5610.0833 
   32000       31.987    319.95283    13.151573   -446.02242   -432.87085   -9531.8199   -4919.0378   -4300.1931   -19376.229     15.41485    13.349631     27.26218    5610.0815 
   32500       32.487    322.21816    13.244689   -446.09733   -432.85264   -9137.4613   -7249.1537   -3513.4854   -16649.745    15.414853    13.349633    27.262163    5610.0796 
   33000       32.987    319.81984    13.146107   -445.98091   -432.83481   -9573.5746   -7619.1788   -5025.3987   -16076.146    15.414855    13.349635    27.262145    5610.0777 
   33500       33.487    332.19318     13.65471   -446.47136   -432.81665   -9006.0872   -4973.2597   -5115.5124    -16929.49    15.414857    13.349637    27.262128    5610.0758 
   34000       33.987    335.64209    13.796476   -446.59473   -432.79825   -8934.0927   -3790.0372   -7802.8019   -15209.439     15.41486    13.349639     27.26211    5610.0739 
   34500       34.487    311.82142    12.817334   -445.59745   -432.78012   -9045.1789   -6021.8771   -4093.6326   -17020.027    15.414862    13.349641    27.262093     5610.072 
   35000       34.987    306.38899    12.594036   -445.35518   -432.76115     -9267.64   -7402.6359   -5245.5214   -15154.763    15.414864    13.349643    27.262075    5610.0701 
   35500       35.487    328.88349    13.518666   -446.26183   -432.74317   -9865.2148   -6864.7873    -6451.797    -16279.06    15.414867    13.349645    27.262058    5610.0683 
   36000       35.987    322.48227    13.255545   -445.97952   -432.72398   -9376.8729   -6505.1715   -2648.7921   -18976.655    15.414869    13.349648     27.26204    5610.0664 
   36500       36.487    318.67085    13.098878   -445.80429   -432.70541   -9192.3568   -6538.6579    -3037.051   -18001.361    15.414871     13.34965    27.262023    5610.0645 
   37000       36.987     309.8729    12.737241   -445.42363   -432.68639    -9835.639   -6710.3132   -4747.8183   -18048.785    15.414874    13.349652    27.262005    5610.0626 
   37500       37.487    324.25505    13.328415   -445.99595   -432.66754    -9506.942   -7432.5327   -2523.3021   -18564.991    15.414876    13.349654    27.261988    5610.0607 
   38000       37.987    332.11724    13.651588   -446.30061   -432.64902    -9689.395   -6013.9764   -4374.4646   -18679.744    15.414879    13.349656     27.26197    5610.0588 
   38500       38.487    329.66591    13.550827   -446.18038   -432.62955   -10760.685   -8171.4063   -5070.0407   -19040.607    15.414881    13.349658    27.261953     5610.057 
   39000       38.987    333.32554    13.701255   -446.31193   -432.61067   -8368.6138    -4082.807   -4331.0175   -16692.017    15.414883     13.34966    27.261935    5610.0551 
   39500       39.487    314.94079    12.945555   -445.53651   -432.59096   -8841.4972   -6334.4375   -4166.6377   -16023.416    15.414886    13.349662    27.261918    5610.0532 
   40000       39.987    319.74823    13.143163   -445.71519   -432.57203   -10487.212   -7508.3415   -6220.8179   -17732.478    15.414888    13.349664      27.2619    5610.0513 
   40500       40.487    309.77489    12.733212   -445.28595   -432.55274   -9407.6054   -7279.6292    -4574.536   -16368.651     15.41489    13.349666    27.261883    5610.0494 
   41000       40.987    337.28876    13.864162   -446.39831   -432.53415   -9842.6511   -7112.5033   -2993.7401    -19421.71    15.414893    13.349668    27.261865    5610.0475 
   41500       41.487    333.95705    13.727213   -446.24211   -432.51489   -9167.6306   -7130.2121    -6011.949   -14360.731    15.414895     13.34967    27.261848    5610.0456 
   42000       41.987    340.64553    14.002141   -446.49835   -432.49621   -10815.738   -8669.9063   -4704.4876    -19072.82    15.414897    13.349672     27.26183    5610.0438 
   42500       42.487    330.59931    13.589194   -446.06586   -432.47667   -9428.9366   -4575.9338    -5356.819   -18354.057      15.4149    13.349674    27.261813    5610.0419 
   43000       42.987    331.87502    13.641632   -446.09999   -432.45836   -9319.8643   -5073.8718   -5032.0721   -17853.649    15.414902    13.349676    27.261795      5610.04 
   43500       43.487    309.52829    12.723076   -445.16156   -432.43849   -8796.7331   -4175.3308   -3021.1528   -19193.716    15.414904    13.349678    27.261778    5610.0381 
   44000       43.987    337.81823    13.885926   -446.30605   -432.42013   -9640.6197   -5169.1013   -3513.9294   -20238.829    15.414907     13.34968     27.26176    5610.0362 
   44500       44.487    317.92948    13.068404   -445.46974   -432.40133   -9717.2088      -5621.3   -4791.7274   -18738.599    15.414909    13.349682    27.261743    5610.0343 
   45000       44.987    319.34278    13.126497   -445.50865   -432.38215   -9135.1242   -3177.9213   -4258.3104   -19969.141    15.414911    13.349684    27.261725    5610.0325 
   45500       45.487    330.42317    13.581954   -445.94565   -432.36369   -9002.4402   -7698.6619   -2686.1277   -16622.531    15.414914    13.349686    27.261708    5610.0306 
   46000       45.987    336.15555    13.817582   -446.16271   -432.34513   -9921.1941   -4945.7527   -5826.1035   -18991.726    15.414916    13.349689     27.26169    5610.0287 
   46500       46.487    337.18802    13.860021   -446.18687   -432.32685   -9785.4276    -5047.626   -4704.8803   -19603.777    15.414918    13.349691    27.261673    5610.0268 
   47000       46.987    322.74323    13.266272   -445.57411   -432.30784    -9680.327   -5734.0539   -3639.9594   -19666.968    15.414921    13.349693    27.261655    5610.0249 
   47500       47.487    337.65184    13.879086   -446.16884   -432.28975   -9380.0519   -5143.1803   -3244.6668   -19752.309    15.414923    13.349695    27.261638     5610.023 
   48000       47.987    341.76262    14.048059   -446.32003   -432.27197   -9153.8193   -7054.7201   -5036.2441   -15370.494    15.414926    13.349697     27.26162    5610.0212 
   48500       48.487    330.62969    13.590443   -445.84337   -432.25292   -9481.4304     -6285.01   -4678.9347   -17480.346    15.414928    13.349699    27.261603    5610.0193 
   49000       48.987    318.58337    13.095282    -445.3296   -432.23432   -9349.2824   -5346.0366   -7577.1322   -15124.678     15.41493    13.349701    27.261585    5610.0174 
   49500       49.487    324.13682    13.323555   -445.54028   -432.21673   -9119.0801    -6274.498   -3319.9342   -17762.808    15.414933    13.349703    27.261568    5610.0155 
   50000       49.987    341.07644    14.019854   -446.21888   -432.19902   -9319.3645    -4932.693   -3712.6008     -19312.8    15.414935    13.349705     27.26155    5610.0136 
   50500       50.487    323.39203    13.292941    -445.4737   -432.18076   -9497.2802    -7577.519   -3542.2841   -17372.037    15.414937    13.349707    27.261533    5610.0117 
   51000       50.987      332.114    13.651455    -445.8147   -432.16325   -10599.585   -6348.9952   -4301.5078   -21148.252     15.41494    13.349709    27.261515    5610.0098 
   51500       51.487    324.75497    13.348964   -445.49453   -432.14557   -8072.6728   -5604.3444   -2884.1482   -15729.526    15.414942    13.349711    27.261498     5610.008 
   52000       51.987    327.16967     13.44822   -445.57591   -432.12769   -9653.8403   -8219.1701   -2516.2266   -18226.124    15.414944    13.349713     27.26148    5610.0061 
   52500       52.487    362.92907      14.9181    -447.0289    -432.1108   -9517.4694   -6473.1281   -5726.5104    -16352.77    15.414947    13.349715    27.261463    5610.0042 
   53000       52.987     338.1126    13.898026   -445.99099   -432.09296   -8750.2655   -5456.9365   -1754.3328   -19039.527    15.414949    13.349717    27.261445    5610.0023 
   53500       53.487    333.54545    13.710294   -445.78622   -432.07592   -10045.809   -5012.1084   -4420.1972   -20705.121    15.414951    13.349719    27.261428    5610.0004 
   54000       53.987    332.05921    13.649203   -445.70776   -432.05856   -9964.1275   -5083.1037   -6244.7702   -18564.508    15.414954    13.349721     27.26141    5609.9985 
   54500       54.487    318.65588    13.098263   -445.13942   -432.04116   -8528.4721   -4332.9616   -4303.3053   -16949.149    15.414956    13.349723    27.261393    5609.9967 
   55000       54.987     332.2294    13.656199   -445.68067   -432.02447   -8834.2872   -6987.1594   -2341.9501   -17173.752    15.414958    13.349725    27.261375    5609.9948 
   55500       55.487    339.01182    13.934988   -445.94215   -432.00716   -9099.9278   -5947.7158   -4974.1927   -16377.875    15.414961    13.349727    27.261358    5609.9929 
   56000       55.987    351.46231    14.446762    -446.4379   -431.99114   -10459.507   -6746.9019   -5432.7092   -19198.909    15.414963     13.34973     27.26134     5609.991 
   56500       56.487    327.50746    13.462104   -445.43584   -431.97373   -8997.9362   -4855.2196   -3677.3903   -18461.199    15.414965    13.349732    27.261323    5609.9891 
   57000       56.987    340.31835    13.988693    -445.9459   -431.95721   -9777.2952   -6800.5551   -5968.1744   -16563.156    15.414968    13.349734    27.261305    5609.9872 
   57500       57.487    336.68948    13.839529   -445.78037   -431.94084   -9298.1471   -8033.9151   -4609.9321   -15250.594     15.41497    13.349736    27.261288    5609.9853 
   58000       57.987    329.15846    13.529969   -445.45395   -431.92398   -10006.794   -6357.7676   -6370.2835   -17292.332    15.414973    13.349738     27.26127    5609.9835 
   58500       58.487    334.73287    13.759103   -445.66673   -431.90762   -8614.8439   -3926.0341   -3571.9662   -18346.532    15.414975     13.34974    27.261253    5609.9816 
   59000       58.987    320.89199    13.190177   -445.08118     -431.891   -9103.2201   -7674.5972     -4445.63   -15189.433    15.414977    13.349742    27.261235    5609.9797 
   59500       59.487    333.56132    13.710947   -445.58573   -431.87479   -9102.8421   -4933.1119   -4367.8854   -18007.529     15.41498    13.349744    27.261218    5609.9778 
   60000       59.987    337.28609    13.864052   -445.72308   -431.85903   -8809.2971    -5041.476   -4653.0661   -16733.349    15.414982    13.349746      27.2612    5609.9759 
   60500       60.487    337.73831    13.882641   -445.72567   -431.84303   -8427.1264    -4644.292   -4098.2443   -16538.843    15.414984    13.349748    27.261183     5609.974 
   61000       60.987    329.40333    13.540034   -445.36672   -431.82669   -9807.0476   -6787.3185     -4449.73   -18184.094    15.414987     13.34975    27.261165    5609.9722 
   61500       61.487    339.19166     13.94238   -445.75374   -431.81136   -8635.2018   -7846.1284   -2993.7605   -15065.717    15.414989    13.349752    27.261148    5609.9703 
   62000       61.987    342.86492    14.093368   -445.88847   -431.79511   -9660.0491   -3800.4246    -5894.585   -19285.138    15.414991    13.349754     27.26113    5609.9684 
   62500       62.487    340.37116    13.990863   -445.77036    -431.7795    -9255.911   -6558.8343   -3216.6661   -17992.232    15.414994    13.349756    27.261113    5609.9665 
   63000       62.987    327.82766    13.475266    -445.2382   -431.76293   -9793.6216   -6730.0856   -3859.6188    -18791.16    15.414996    13.349758    27.261095    5609.9646 
   63500       63.487    344.61295    14.165221    -445.9129   -431.74768   -8234.0725   -5276.5635    -2937.629   -16488.025    15.414998     13.34976    27.261078    5609.9627 
   64000       63.987    333.04175     13.68959   -445.42082   -431.73123   -8985.8754   -5645.8325   -1227.0557   -20084.738    15.415001    13.349762     27.26106    5609.9608 
   64500       64.487    321.16692    13.201478   -444.91682   -431.71534   -8206.1953   -4756.3831   -6030.3746   -13831.828    15.415003    13.349764    27.261043     5609.959 
   65000       64.987    341.20041    14.024949   -445.72461   -431.69966   -9229.1084   -4964.9661   -5004.2068   -17718.152    15.415005    13.349766    27.261025    5609.9571 
   65500       65.487    337.15541    13.858681   -445.54305   -431.68437   -8045.2744   -4176.6092   -4095.5972   -15863.617    15.415008    13.349768    27.261008    5609.9552 
   66000       65.987    338.39244    13.909529   -445.57795   -431.66842   -9381.5826    -6684.234   -3920.6325   -17539.881     15.41501    13.349771     27.26099    5609.9533 
   66500       66.487    348.10138    14.308612   -445.96114   -431.65253   -8706.3936   -5257.5836   -4750.3238   -16111.273    15.415012    13.349773    27.260973    5609.9514 
   67000       66.987    326.49383    13.420439   -445.05741   -431.63697   -8619.0214   -2488.5696   -6017.2214   -17351.273    15.415015    13.349775    27.260955    5609.9495 
   67500       67.487    337.43596    13.870213    -445.4916   -431.62139   -8914.9551   -5372.3469   -3444.1224   -17928.396    15.415017    13.349777    27.260938    5609.9477 
   68000       67.987    345.52269    14.202616    -445.8083   -431.60568   -9346.1715   -6891.9478   -6073.9377   -15072.629     15.41502    13.349779     27.26092    5609.9458 
   68500       68.487    333.49402     13.70818   -445.29799   -431.58981    -9208.507   -5679.1788   -3357.1291   -18589.213    15.415022    13.349781    27.260903    5609.9439 
   69000       68.987    341.28184    14.028296   -445.60265   -431.57435   -9922.3207   -7821.1239   -1908.1113   -20037.727    15.415024    13.349783    27.260885     5609.942 
   69500       69.487    342.40422    14.074432   -445.63306   -431.55863   -9015.7178   -6555.2323   -4129.7243   -16362.197    15.415027    13.349785    27.260868    5609.9401 
   70000       69.987    352.61623    14.494194   -446.03738   -431.54319   -9538.8284   -5540.8644   -4249.5555   -18826.065    15.415029    13.349787     27.26085    5609.9382 
   70500       70.487    342.55924    14.080804   -445.60781   -431.52701   -8984.7949   -9306.0208   -2488.9496   -15159.414    15.415031    13.349789    27.260833    5609.9363 
   71000       70.987    334.56309    13.752124   -445.26345   -431.51132   -8364.9377   -6369.6801   -5064.1719   -13660.961    15.415034    13.349791    27.260815    5609.9345 
   71500       71.487     329.9599    13.562911   -445.05824   -431.49533   -9165.5887   -4633.3185   -3220.3994   -19643.048    15.415036    13.349793    27.260798    5609.9326 
   72000       71.987     347.7169    14.292808   -445.77202   -431.47921   -9763.1085   -8197.0435   -3656.0367   -17436.245    15.415038    13.349795     27.26078    5609.9307 
   72500       72.487    329.01509    13.524075   -444.98746   -431.46338   -9515.4676    -4776.047   -4942.8358    -18827.52    15.415041    13.349797    27.260763    5609.9288 
   73000       72.987    349.17678    14.352816   -445.80064   -431.44782    -9391.195   -7773.9255   -3648.2202   -16751.439    15.415043    13.349799    27.260745    5609.9269 
   73500       73.487    327.36341    13.456183   -444.88713   -431.43094   -9937.4123   -7280.4007    -6265.463   -16266.373    15.415045    13.349801    27.260728     5609.925 
   74000       73.987    336.35113    13.825621   -445.24097   -431.41535   -8476.4298   -5858.8211   -527.61035   -19042.858    15.415048    13.349803     27.26071    5609.9232 
   74500       74.487    334.76464    13.760409   -445.16015   -431.39974   -9218.1545    -5163.618   -5527.1567   -16963.689     15.41505    13.349805    27.260693    5609.9213 
   75000       74.987    329.16351    13.530176   -444.91311   -431.38294   -9149.5527   -5676.6184   -3360.5856   -18411.454    15.415052    13.349807    27.260675    5609.9194 
   75500       75.487     329.4675    13.542671   -444.90985   -431.36718   -8796.8806   -4883.3607   -2328.1541   -19179.127    15.415055    13.349809    27.260658    5609.9175 
   76000       75.987    342.76917    14.089433   -445.44023    -431.3508   -8978.3562   -4413.8979   -2592.2225   -19928.948    15.415057    13.349812     27.26064    5609.9156 
   76500       76.487    351.76716    14.459293   -445.79429     -431.335    -8135.338   -3755.5058   -3064.1673   -17586.341    15.415059    13.349814    27.260623    5609.9137 
   77000       76.987    343.48739    14.118955    -445.4375   -431.31855   -9266.9727   -5730.5683   -4223.1043   -17847.246    15.415062    13.349816    27.260605    5609.9118 
   77500       77.487    339.17961    13.941885   -445.24411   -431.30222   -8887.7761   -6405.7196   -2979.7617   -17277.847    15.415064    13.349818    27.260588      5609.91 
   78000       77.987    353.15569    14.516368   -445.80225   -431.28588   -9888.4069   -3899.8806   -6784.1198    -18981.22    15.415067     13.34982     27.26057    5609.9081 
   78500       78.487    341.37726    14.032219   -445.30154   -431.26932   -8933.5449   -4525.5205   -3033.1325   -19241.982    15.415069    13.349822    27.260553    5609.9062 
   79000       78.987    329.63172    13.549421   -444.80246   -431.25304   -6986.3673   -3074.3555   -1843.2026   -16041.544    15.415071    13.349824    27.260535    5609.9043 
   79500       79.487    360.53524    14.819702   -446.05637   -431.23667   -8737.6301   -4962.7143   -3670.0171   -17580.159    15.415074    13.349826    27.260518    5609.9024 
   80000       79.987    346.04274    14.223992   -445.44385   -431.21985   -8109.5386   -5218.2071   -2927.9059   -16182.503    15.415076    13.349828      27.2605    5609.9005 
   80500       80.487    364.20477    14.970537   -446.17339   -431.20286   -10231.415   -6993.2177   -4177.5551   -19523.471    15.415078     13.34983    27.260483    5609.8987 
   81000       80.987    342.97079    14.097721   -445.28369   -431.18597   -9177.3752   -6325.3376   -3769.0079    -17437.78    15.415081    13.349832    27.260465    5609.8968 
   81500       81.487    347.81301    14.296758   -445.46553   -431.16878   -8367.5803   -6010.8502   -4190.9107    -14900.98    15.415083    13.349834    27.260448    5609.8949 
   82000       81.987    336.46061    13.830121   -444.98203    -431.1519   -9374.3103   -8272.1477   -4750.2161   -15100.567    15.415085    13.349836     27.26043     5609.893 
   82500       82.487    332.71746     13.67626   -444.81114   -431.13488   -8510.4359   -5714.3122   -4033.1531   -15783.842    15.415088    13.349838    27.260413    5609.8911 
   83000       82.987    353.45815      14.5288   -445.64683   -431.11803   -9135.5768    -6209.967   -3564.9788   -17631.785     15.41509     13.34984    27.260395    5609.8892 
   83500       83.487    343.71106    14.128149   -445.22871   -431.10056   -9106.3466   -5749.7444   -4827.9467   -16741.349    15.415092    13.349842    27.260378    5609.8873 
   84000       83.987    331.91887    13.643434   -444.72704   -431.08361   -8573.6948   -5732.8974   -1200.1911   -18787.996    15.415095    13.349844     27.26036    5609.8855 
   84500       84.487     356.1897     14.64108   -445.70752   -431.06644    -10126.13   -6123.2597   -6757.6127   -17497.518    15.415097    13.349846    27.260343    5609.8836 
   85000       84.987     335.1049    13.774395   -444.82307   -431.04867   -8826.0375   -7203.5532   -1807.7099   -17466.849    15.415099    13.349848    27.260325    5609.8817 
   85500       85.487    355.17219    14.599256   -445.63084   -431.03159   -9024.7213   -6756.8453   -788.11928   -19529.199    15.415102     13.34985    27.260308    5609.8798 
   86000       85.987     334.8997    13.765961    -444.7798   -431.01384   -8722.9564   -4206.2697   -2554.6239   -19407.975    15.415104    13.349853     27.26029    5609.8779 
   86500       86.487    350.11842    14.391522   -445.38772    -430.9962   -9304.0033   -5758.5531   -5763.6125   -16389.844    15.415106    13.349855    27.260273     5609.876 
   87000       86.987    315.96617    12.987703   -443.96586   -430.97815   -8353.0309   -4863.2342   -3458.2769   -16737.582    15.415109    13.349857    27.260255    5609.8742 
   87500       87.487    332.57036    13.670214   -444.63053   -430.96032   -8159.0121   -4485.5717   -4437.3042    -15554.16    15.415111    13.349859    27.260238    5609.8723 
   88000       87.987    364.58295    14.986083   -445.92903   -430.94295    -9449.637   -4680.2841   -4519.4044   -19149.222    15.415114    13.349861     27.26022    5609.8704 
   88500       88.487    346.25624    14.232768   -445.15735   -430.92458   -9049.8316   -5079.7348   -4294.0398    -17775.72    15.415116    13.349863    27.260203    5609.8685 
   89000       88.987    343.68794    14.127199   -445.03324   -430.90604   -8598.0932   -1578.5881   -4153.7621   -20061.929    15.415118    13.349865    27.260185    5609.8666 
   89500       89.487     344.3576    14.154725   -445.04305   -430.88832   -8594.1241    -5715.428   -3875.0354   -16191.909    15.415121    13.349867    27.260168    5609.8647 
   90000       89.987    325.98701    13.399607   -444.26937   -430.86976   -8415.6063   -4909.5919   -3163.1911   -17174.036    15.415123    13.349869     27.26015    5609.8628 
   90500       90.487    362.61726    14.905283   -445.75731   -430.85203   -9042.0809    -4849.473   -6229.2184   -16047.551    15.415125    13.349871    27.260133     5609.861 
   91000       90.987     369.4273    15.185208   -446.01927   -430.83406   -8843.7525   -5734.7986   -3611.8511   -17184.608    15.415128    13.349873    27.260115    5609.8591 
   91500       91.487    340.84728    14.010434   -444.82604    -430.8156   -8102.8878   -5638.3925   -1489.7867   -17180.484     15.41513    13.349875    27.260098    5609.8572 
   92000       91.987    350.83759    14.421083   -445.21779   -430.79671   -9039.9127   -5256.7212   -4560.1864    -17302.83    15.415132    13.349877     27.26008    5609.8553 
   92500       92.487    345.54441    14.203508   -444.98107   -430.77756   -8436.7999   -6171.7662   -3988.3545   -15150.279    15.415135    13.349879    27.260063    5609.8534 
   93000       92.987     337.8357    13.886644   -444.64544    -430.7588   -8189.7895   -4256.1136   -4607.7097   -15705.545    15.415137    13.349881    27.260045    5609.8515 
   93500       93.487    355.92389    14.630154   -445.37088   -430.74073    -7933.815   -4731.5661   -3187.9057   -15881.973    15.415139    13.349883    27.260028    5609.8497 
   94000       93.987    358.78529    14.747771   -445.46878   -430.72101   -9166.0429   -5777.6911   -6075.1827   -15645.255    15.415142    13.349885     27.26001    5609.8478 
   94500       94.487    354.03141    14.552364    -445.2541   -430.70173   -8760.7773   -6960.0816   -3167.8401    -16154.41    15.415144    13.349887    27.259993    5609.8459 
   95000       94.987    356.79583    14.665995   -445.34835   -430.68235   -8745.1437    -5956.912    -5982.694   -14295.825    15.415146    13.349889    27.259975     5609.844 
   95500       95.487    330.59868    13.589168   -444.25157    -430.6624    -8802.398   -5169.2662   -4161.4926   -17076.435    15.415149    13.349891    27.259958    5609.8421 
   96000       95.987    345.00567    14.181364   -444.82514   -430.64377   -8659.2652    -6954.044   -5800.8853   -13222.866    15.415151    13.349894     27.25994    5609.8402 
   96500       96.487    341.16584    14.023528   -444.64719   -430.62366   -7973.5682    -6590.696   -3284.8318   -14045.177    15.415153    13.349896    27.259923    5609.8383 
   97000       96.987    348.08007    14.307736   -444.91239   -430.60465    -9246.496   -6572.8188   -3701.7118   -17464.958    15.415156    13.349898    27.259905    5609.8365 
   97500       97.487    353.65038    14.536702   -445.12082   -430.58412   -8630.2605    -6374.299   -2746.1648   -16770.318    15.415158      13.3499    27.259888    5609.8346 
   98000       97.987    349.24367    14.355565   -444.92082   -430.56525   -8800.7942   -6159.1876   -2415.8524   -17827.343    15.415161    13.349902     27.25987    5609.8327 
   98500       98.487    351.30919    14.440468   -444.98577    -430.5453    -8902.476   -6758.2499   -1852.9301   -18096.248    15.415163    13.349904    27.259853    5609.8308 
   99000       98.987    379.62616    15.604429   -446.13035   -430.52592   -8872.8097   -4619.1497   -5992.4999   -16006.779    15.415165    13.349906    27.259835    5609.8289 
   99500       99.487    351.71169    14.457013   -444.96215   -430.50514   -8254.0676   -6030.2407   -3746.3079   -14985.654    15.415168    13.349908    27.259818     5609.827 
  100000       99.987    356.41828    14.650476   -445.13572   -430.48524   -8995.3894   -6382.0312   -4480.3886   -16123.748     15.41517     13.34991      27.2598    5609.8252 
  100500      100.487     338.0905    13.897118   -444.36111   -430.46399   -7817.2449   -5020.0364   -3705.9078    -14725.79    15.415172    13.349912    27.259783    5609.8233 
  101000      100.987    369.63086    15.193575   -445.63798   -430.44441   -9332.0064   -6744.3309   -3540.1441   -17711.544    15.415175    13.349914    27.259765    5609.8214 
  101500      101.487    363.15894    14.927549   -445.35119   -430.42364     -8430.22   -5750.9232   -4411.4969    -15128.24    15.415177    13.349916    27.259748    5609.8195 
  102000      101.987    355.51831    14.613483   -445.01674   -430.40326   -8384.9898   -5236.3612   -3576.8375   -16341.771    15.415179    13.349918     27.25973    5609.8176 
  102500      102.487     355.9978    14.633192   -445.01649    -430.3833   -7744.3981   -4284.7979   -4649.8024   -14298.594    15.415182     13.34992    27.259713    5609.8157 
  103000      102.987    341.48102    14.036484   -444.39847   -430.36199   -7810.6704   -3029.8387   -6005.6144   -14396.558    15.415184    13.349922    27.259695    5609.8138 
  103500      103.487    355.55508    14.614994   -444.95685   -430.34186   -7990.8934   -4391.3091   -4051.5192   -15529.852    15.415186    13.349924    27.259678     5609.812 
  104000      103.987    360.10587    14.802053   -445.12313   -430.32108   -8912.6757   -5104.9566   -3347.0842   -18285.986    15.415189    13.349926     27.25966    5609.8101 
  104500      104.487     353.2476    14.520146   -444.82035   -430.30021   -8425.1644   -4383.8684   -3188.1962   -17703.429    15.415191    13.349928    27.259643    5609.8082 
  105000      104.987    364.65064    14.988865   -445.26833   -430.27947   -8432.9361   -5409.9916   -1703.6872    -18185.13    15.415193     13.34993    27.259625    5609.8063 
  105500      105.487    363.18556    14.928643   -445.18716   -430.25852   -9221.3973   -6212.8415   -4402.9659   -17048.385    15.415196    13.349932    27.259608    5609.8044 
  106000      105.987    355.82483    14.626082   -444.86343   -430.23734   -7958.0452   -4153.6226   -3293.8563   -16426.657    15.415198    13.349935     27.25959    5609.8025 
  106500      106.487    345.02834    14.182295   -444.39805   -430.21576   -8845.7371   -7337.7141     -4305.66   -14893.837      15.4152    13.349937    27.259573    5609.8007 
  107000      106.987     361.6332    14.864834   -445.05975   -430.19492   -8726.0634   -6612.3223   -4055.5118   -15510.356    15.415203    13.349939    27.259555    5609.7988 
  107500      107.487     379.4631    15.597727   -445.77183    -430.1741   -9979.1847     -6330.18   -7800.5409   -15806.833    15.415205    13.349941    27.259538    5609.7969 
  108000      107.987    375.82959    15.448372   -445.60143   -430.15306   -9250.2597   -6229.9527   -4256.9447   -17263.882    15.415208    13.349943     27.25952     5609.795 
  108500      108.487    335.23917    13.779914    -443.9108   -430.13088   -7436.5189   -8426.0549   -2888.1261   -10995.376     15.41521    13.349945    27.259503    5609.7931 
  109000      108.987    344.88825    14.176537     -444.286   -430.10946   -9062.4106    -6040.218   -6243.5154   -14903.498    15.415212    13.349947    27.259485    5609.7912 
  109500      109.487    359.02037    14.757434   -444.84515   -430.08772   -8259.1966   -6023.6467   -3225.6096   -15528.334    15.415215    13.349949    27.259468    5609.7893 
  110000      109.987    370.47295    15.228189   -445.29461   -430.06642   -8783.1856   -5218.3686   -3950.8911   -17180.297    15.415217    13.349951     27.25945    5609.7875 
  110500      110.487    348.63842    14.330687   -444.37545   -430.04477   -8011.7764   -5866.7832   -4793.1784   -13375.367    15.415219    13.349953    27.259433    5609.7856 
  111000      110.987    369.30485    15.180175   -445.20339   -430.02322   -7866.8911   -5452.0542   -4511.8481   -13636.771    15.415222    13.349955    27.259415    5609.7837 
  111500      111.487    374.09823    15.377205   -445.37901    -430.0018    -8381.278   -4617.5534   -1132.8974   -19393.383    15.415224    13.349957    27.259398    5609.7818 
  112000      111.987    379.77437    15.610522   -445.59056   -429.98003   -7619.5792   -3617.9227   -3821.7218   -15419.093    15.415226    13.349959     27.25938    5609.7799 
  112500      112.487     347.9082    14.300671   -444.25844   -429.95777    -8540.215   -5649.5791   -2774.9438   -17196.122    15.415229    13.349961    27.259363     5609.778 
  113000      112.987    338.98598    13.933926   -443.86946   -429.93553   -7910.5156   -5355.8058    -3696.202   -14679.539    15.415231    13.349963    27.259345    5609.7761 
  113500      113.487    367.69563    15.114028   -445.02854   -429.91451   -7893.3953   -6377.7312    -3990.508   -13311.947    15.415233    13.349965    27.259328    5609.7743 
  114000      113.987    389.78037    16.021816   -445.91511    -429.8933   -9167.4955   -6473.4425   -5264.7322   -15764.312    15.415236    13.349967     27.25931    5609.7724 
  114500      114.487    354.36444    14.566053   -444.43701   -429.87095   -8680.0268   -5409.7777   -2051.9887   -18578.314    15.415238    13.349969    27.259293    5609.7705 
  115000      114.987    371.09823    15.253891   -445.10255   -429.84866   -7914.1515   -5072.7621   -730.82291   -17938.869     15.41524    13.349971    27.259275    5609.7686 
  115500      115.487    367.22899    15.094847   -444.92103   -429.82618   -8623.1753   -5334.1639   -6047.1238   -14488.238    15.415243    13.349973    27.259258    5609.7667 
  116000      115.987    365.71328    15.032544    -444.8363   -429.80375   -7336.4177   -2645.7721   -2587.8322   -16775.649    15.415245    13.349976     27.25924    5609.7648 
  116500      116.487    374.53032    15.394966   -445.17674   -429.78177   -9223.1776   -6665.7748   -3999.5953   -17004.163    15.415247    13.349978    27.259223     5609.763 
  117000      116.987     363.3173    14.934058   -444.69296    -429.7589   -8234.7772   -6474.9209   -2211.6053   -16017.805     15.41525     13.34998    27.259205    5609.7611 
  117500      117.487    379.15192    15.584936    -445.3223   -429.73736   -9161.6661   -6888.6494   -2817.5514   -17778.798    15.415252    13.349982    27.259188    5609.7592 
  118000      117.987    357.34648    14.688629   -444.40311   -429.71448   -8533.7686   -6450.8443   -4725.2473   -14425.214    15.415255    13.349984     27.25917    5609.7573 
  118500      118.487    353.75939    14.541183   -444.23279   -429.69161   -8056.7391    -5554.031   -3000.3825   -15615.804    15.415257    13.349986    27.259153    5609.7554 
  119000      118.987     368.9356    15.164997   -444.83454   -429.66955   -9127.9957   -6431.4499   -4485.2483   -16467.289    15.415259    13.349988    27.259135    5609.7535 
  119500      119.487    369.37247    15.182954   -444.82976    -429.6468   -8337.9629   -5943.8453   -4784.3804   -14285.663    15.415262     13.34999    27.259118    5609.7516 
  120000      119.987    367.19211    15.093331   -444.71751   -429.62418   -9356.8306     -6462.12   -5765.5315    -15842.84    15.415264    13.349992      27.2591    5609.7498 
  120500      120.487    350.96554    14.426342    -444.0276   -429.60126   -8579.3748   -4308.8356   -3890.5084    -17538.78    15.415266    13.349994    27.259083    5609.7479 
  121000      120.987    380.09285    15.623613   -445.20255   -429.57893   -8316.0964    -7059.346   -2746.2399   -15142.703    15.415269    13.349996    27.259065     5609.746 
  121500      121.487    361.52513    14.860392   -444.41646   -429.55607   -6519.4453   -3114.1506   -1478.0887   -14966.096    15.415271    13.349998    27.259048    5609.7441 
  122000      121.987    385.98199    15.865684   -445.39938   -429.53369   -9056.8991   -6127.5149   -3932.5094   -17110.673    15.415273        13.35     27.25903    5609.7422 
  122500      122.487    382.28981    15.713918   -445.22518   -429.51126   -8464.9759   -6721.8248   -6255.2161   -12417.887    15.415276    13.350002    27.259013    5609.7403 
  123000      122.987    372.18022    15.298366   -444.78611   -429.48775   -8182.3762   -4639.2607   -5060.2826   -14847.585    15.415278    13.350004    27.258995    5609.7385 
  123500      123.487     360.2085    14.806272   -444.27089   -429.46462   -6612.9785   -4078.4302    453.33252   -16213.838     15.41528    13.350006    27.258978    5609.7366 
  124000      123.987    345.33982    14.195099    -443.6366    -429.4415   -7697.9879   -6830.7489   -2694.6054   -13568.609    15.415283    13.350008     27.25896    5609.7347 
  124500      124.487    368.29858    15.138812   -444.55781     -429.419   -7608.8907   -2206.0062   -3745.2364   -16875.429    15.415285     13.35001    27.258943    5609.7328 
  125000      124.987    375.81432    15.447745   -444.84368   -429.39593   -8024.4772   -6916.4788     427.1819   -17584.135    15.415287    13.350012    27.258925    5609.7309 
  125500      125.487    370.06028    15.211226   -444.58378   -429.37255   -7833.3206   -3282.6775   -2873.7034   -17343.581     15.41529    13.350014    27.258908     5609.729 
  126000      125.987    361.53783    14.860914      -444.21   -429.34909   -8045.3232   -6014.3834   -1637.4416   -16484.144    15.415292    13.350017     27.25889    5609.7271 
  126500      126.487     364.1653    14.968915   -444.29598   -429.32707   -8178.9783   -3072.7609   -7183.6243    -14280.55    15.415294    13.350019    27.258873    5609.7253 
  127000      126.987    383.74809     15.77386   -445.07791   -429.30405    -8330.087   -6632.7875   -2198.0501   -16159.423    15.415297    13.350021    27.258855    5609.7234 
  127500      127.487    387.41668    15.924656   -445.20578   -429.28112   -7756.9565   -6971.3279   -2863.1627   -13436.379    15.415299    13.350023    27.258838    5609.7215 
  128000      127.987    363.23883    14.930833   -444.18824   -429.25741   -7926.9366   -4300.4474   -2096.1965   -17384.166    15.415302    13.350025     27.25882    5609.7196 
  128500      128.487     369.0367    15.169152    -444.4033   -429.23415   -7505.0638   -4073.6128   -5495.7753   -12945.803    15.415304    13.350027    27.258803    5609.7177 
  129000      128.987    346.29148    14.234216   -443.44534   -429.21113   -6525.1355   -5802.6479   -774.73502   -12998.024    15.415306    13.350029    27.258785    5609.7158 
  129500      129.487    352.23539    14.478539   -443.66535   -429.18681   -8637.4048    -6189.281    -4130.835   -15592.099    15.415309    13.350031    27.258768     5609.714 
  130000      129.987     380.5326    15.641688   -444.80659    -429.1649   -8153.8695   -5586.1678   -2104.9231   -16770.518    15.415311    13.350033     27.25875    5609.7121 
  130500      130.487    383.91584    15.780755   -444.92226    -429.1415   -8678.4093   -7415.1451   -2358.6472   -16261.436    15.415313    13.350035    27.258733    5609.7102 
  131000      130.987    366.28442    15.056021   -444.17413   -429.11811   -8420.0017   -5022.3754   -3960.2088   -16277.421    15.415316    13.350037    27.258715    5609.7083 
  131500      131.487    350.01838     14.38741   -443.48179   -429.09438    -7330.349   -6459.0337   -599.20657   -14932.807    15.415318    13.350039    27.258698    5609.7064 
  132000      131.987    356.22597    14.642571   -443.71345   -429.07088    -8961.515   -8930.6562   -3887.4634   -14066.426     15.41532    13.350041     27.25868    5609.7045 
  132500      132.487    372.25144    15.301294   -444.34891   -429.04762    -7889.322   -5093.4445   -2441.7746   -16132.747    15.415323    13.350043    27.258663    5609.7026 
  133000      132.987    383.91007    15.780518   -444.80516   -429.02464   -8784.6154   -6579.6832   -4845.1135    -14929.05    15.415325    13.350045    27.258645    5609.7008 
  133500      133.487    382.44646    15.720357   -444.72197   -429.00161   -8144.9318   -6810.3352   -1232.9248   -16391.535    15.415327    13.350047    27.258628    5609.6989 
  134000      133.987    359.68619    14.784802   -443.76236   -428.97756   -8260.8913   -4930.4429   -4222.6002   -15629.631     15.41533    13.350049     27.25861     5609.697 
  134500      134.487    393.11914    16.159054   -445.11402   -428.95497    -8388.812   -4333.8846   -4739.6995   -16092.852    15.415332    13.350051    27.258593    5609.6951 
  135000      134.987    374.98613    15.413702   -444.34412   -428.93042   -7457.2957   -5377.6625   -1844.1859   -15150.039    15.415334    13.350053    27.258575    5609.6932 
  135500      135.487    357.45865     14.69324   -443.59988   -428.90664   -6636.9781   -5055.6685   -3255.8778   -11599.388    15.415337    13.350055    27.258558    5609.6913 
  136000      135.987    353.84764     14.54481   -443.42878   -428.88397    -7317.458   -3534.6197   -2852.8317   -15564.923    15.415339    13.350058     27.25854    5609.6894 
  136500      136.487    383.19899    15.751289   -444.61184   -428.86055    -8309.147   -4938.7393   -4710.2044   -15278.497    15.415341     13.35006    27.258523    5609.6876 
  137000      136.987    375.93619    15.452754    -444.2894   -428.83665   -7808.2206   -5116.9576   -2681.9988   -15625.705    15.415344    13.350062    27.258505    5609.6857 
  137500      137.487     385.2782    15.836755   -444.64965    -428.8129   -7291.1345   -4082.0893   -2851.7339    -14939.58    15.415346    13.350064    27.258488    5609.6838 
  138000      137.987    358.39066     14.73155   -443.51984   -428.78829   -7214.3236   -5608.8336    280.82444   -16314.962    15.415349    13.350066     27.25847    5609.6819 
  138500      138.487    358.13713    14.721129   -443.48551   -428.76438   -7514.8841    -2971.108   -2204.3131   -17369.231    15.415351    13.350068    27.258453      5609.68 
  139000      138.987    380.09579    15.623733   -444.36477   -428.74104   -8030.6396   -6205.2425   -2513.9905   -15372.686    15.415353     13.35007    27.258435    5609.6781 
  139500      139.487    388.38164    15.964321    -444.6816   -428.71728   -9375.2031   -6416.9739   -6022.9152    -15685.72    15.415356    13.350072    27.258418    5609.6763 
  140000      139.987    375.45825    15.433109   -444.12639   -428.69328   -8781.6543   -4415.9547   -3941.7444   -17987.264    15.415358    13.350074      27.2584    5609.6744 
  140500      140.487    361.64552     14.86534   -443.53452   -428.66918     -7178.66   -4250.8448   -3018.3125   -14266.823     15.41536    13.350076    27.258383    5609.6725 
  141000      140.987    385.65917    15.852414   -444.49783   -428.64542   -8351.5452   -6199.4485   -4455.8884   -14399.299    15.415363    13.350078    27.258365    5609.6706 
  141500      141.487    377.78062    15.528569   -444.15003   -428.62146   -7820.7124   -3739.1433   -2341.3982   -17381.596    15.415365     13.35008    27.258348    5609.6687 
  142000      141.987    379.42343    15.596096   -444.19349   -428.59739   -6915.0713    -4987.939   -2449.6953   -13307.579    15.415367    13.350082     27.25833    5609.6668 
  142500      142.487    374.61783    15.398563   -443.97264   -428.57408    -8766.186   -5323.3017   -3952.9616   -17022.295     15.41537    13.350084    27.258313    5609.6649 
  143000      142.987    377.22453    15.505711    -444.0553   -428.54959   -8372.6202   -5219.1647    -3278.618   -16620.078    15.415372    13.350086    27.258295    5609.6631 
  143500      143.487    391.45763    16.090759    -444.6163   -428.52554   -7529.7678   -3448.2254   -2952.4703   -16188.608    15.415374    13.350088    27.258278    5609.6612 
  144000      143.987    380.71856    15.649332   -444.15116   -428.50183   -7841.0851   -5898.6885   -3164.7454   -14459.821    15.415377     13.35009     27.25826    5609.6593 
  144500      144.487     371.3732    15.265194   -443.74239   -428.47719   -8536.3296   -5680.0133    -6562.185   -13366.791    15.415379    13.350092    27.258243    5609.6574 
  145000      144.987    370.99214     15.24953   -443.70284   -428.45331   -7952.6863   -2802.2666   -5853.8896   -15201.903    15.415381    13.350094    27.258225    5609.6555 
  145500      145.487    381.19959    15.669105   -444.09838   -428.42928    -8763.813   -6310.3519   -2694.2869     -17286.8    15.415384    13.350096    27.258208    5609.6536 
  146000      145.987      385.423    15.842707   -444.24809   -428.40538   -7254.2305   -4213.8139   -2842.3268   -14706.551    15.415386    13.350099     27.25819    5609.6518 
  146500      146.487    374.85823    15.408445   -443.78972   -428.38128   -8238.4603   -6477.7987   -2356.2819     -15881.3    15.415388    13.350101    27.258173    5609.6499 
  147000      146.987    382.07171    15.704953   -444.06169   -428.35674   -7982.5255   -5283.3593   -533.95136   -18130.266    15.415391    13.350103    27.258155     5609.648 
  147500      147.487    393.13994    16.159909   -444.49304   -428.33313   -7080.9124   -3402.3361   -851.23103    -16989.17    15.415393    13.350105    27.258138    5609.6461 
  148000      147.987    384.84434    15.818921   -444.12736   -428.30844   -6677.5098   -4696.6924   -3128.8294   -12207.008    15.415396    13.350107     27.25812    5609.6442 
  148500      148.487    370.89318    15.245463   -443.52905   -428.28359   -7261.9966   -6018.5742   -2689.8133   -13077.602    15.415398    13.350109    27.258103    5609.6423 
  149000      148.987    387.57747    15.931266   -444.19145   -428.26018   -7494.9485   -7366.4481   -1717.7106   -13400.687      15.4154    13.350111    27.258085    5609.6404 
  149500      149.487     382.2207    15.711077   -443.94609   -428.23501   -7221.1396   -2981.1836   -181.02729   -18501.208    15.415403    13.350113    27.258068    5609.6386 
  150000      149.987    380.30135    15.632183    -443.8426   -428.21042   -7543.7788   -4375.4593   -3925.6426   -14330.234    15.415405    13.350115     27.25805    5609.6367 
  150500      150.487    400.07139    16.444825   -444.63132   -428.18649   -7236.1755   -5047.8526   -2322.2597   -14338.414    15.415407    13.350117    27.258033    5609.6348 
  151000      150.987    379.23201    15.588228   -443.75007   -428.16184   -6767.5184   -4524.6618   -3165.5593   -12612.334     15.41541    13.350119    27.258015    5609.6329 
  151500      151.487    380.68894    15.648114   -443.78599   -428.13787    -7320.755   -6779.3385   -1522.5022   -13660.424    15.415412    13.350121    27.257998     5609.631 
  152000      151.987    381.75344    15.691871   -443.80524   -428.11337   -7168.8752   -5240.7612   -3461.0965   -12804.768    15.415414    13.350123     27.25798    5609.6291 
  152500      152.487     361.6765    14.866614   -442.95461     -428.088   -7130.2464   -5222.6474   -1732.0576   -14436.034    15.415417    13.350125    27.257963    5609.6272 
  153000      152.987    395.31731     16.24941   -444.31412   -428.06471   -7574.9096   -2249.5732   -6363.0921   -14112.063    15.415419    13.350127    27.257945    5609.6254 
  153500      153.487    375.93639    15.452762   -443.49276      -428.04   -7031.8313   -5412.2487   -3675.8899   -12007.355    15.415421    13.350129    27.257928    5609.6235 
  154000      153.987    390.18092     16.03828   -444.05361   -428.01533   -7406.3627    -7638.031   -4039.6062   -10541.451    15.415424    13.350131     27.25791    5609.6216 
  154500      154.487    389.33254    16.003407   -443.99396   -427.99055   -7584.9547   -4345.0334   -2918.1665   -15491.664    15.415426    13.350133    27.257893    5609.6197 
  155000      154.987    387.63556    15.933653   -443.89959   -427.96594   -7792.3713   -6048.6508   -1322.8584   -16005.605    15.415428    13.350135    27.257875    5609.6178 
  155500      155.487    402.15106    16.530309   -444.47202   -427.94171   -8421.3615   -6870.4176   -1186.0397   -17207.627    15.415431    13.350137    27.257858    5609.6159 
  156000      155.987    395.20632    16.244848   -444.16171   -427.91686   -7075.1306   -3407.1783   -3621.9796   -14196.234    15.415433     13.35014     27.25784    5609.6141 
  156500      156.487     360.1297    14.803033   -442.69477   -427.89174   -6189.4724   -6209.2352    250.87998   -12610.062    15.415435    13.350142    27.257823    5609.6122 
  157000      156.987    369.88338    15.203955   -443.07106    -427.8671   -7996.5282    -4957.744   -3789.6553   -15242.185    15.415438    13.350144    27.257805    5609.6103 
  157500      157.487    396.09358    16.281318   -444.12516   -427.84384   -6603.6465    -4779.774   -1289.3516   -13741.814     15.41544    13.350146    27.257788    5609.6084 
  158000      157.987    397.19751    16.326695   -444.14484   -427.81815   -7047.2416   -4799.9742    -970.8231   -15370.927    15.415443    13.350148     27.25777    5609.6065 
  158500      158.487    371.85609    15.285043   -443.07877   -427.79373   -6770.7362   -2055.3416   -4153.6833   -14103.184    15.415445     13.35015    27.257753    5609.6046 
  159000      158.987    412.33264     16.94882   -444.71738   -427.76856   -7149.6333   -4568.2149   -2873.9484   -14006.737    15.415447    13.350152    27.257735    5609.6027 
  159500      159.487    390.33766    16.044723   -443.78772     -427.743   -8000.2226   -5378.5886   -4189.7168   -14432.363     15.41545    13.350154    27.257718    5609.6009 
  160000      159.987    383.82312    15.776944   -443.49493   -427.71798   -7098.6043   -3868.5105   -925.51128   -16501.791    15.415452    13.350156      27.2577     5609.599 
  160500      160.487    390.53735    16.052931   -443.74593     -427.693   -7771.9072   -4450.8519    -4731.527   -14133.343    15.415454    13.350158    27.257683    5609.5971 
  161000      160.987    369.76643    15.199148   -442.86705   -427.66791   -6212.1814   -1997.8818   -4535.0255   -12103.637    15.415457     13.35016    27.257665    5609.5952 
  161500      161.487    382.45902    15.720873   -443.36363   -427.64276   -6813.7648   -2659.4262    766.26943   -18548.138    15.415459    13.350162    27.257648    5609.5933 
  162000      161.987    371.14103     15.25565   -442.87298   -427.61733   -8018.6572   -4824.4346   -2991.1308   -16240.406    15.415461    13.350164     27.25763    5609.5914 
  162500      162.487    400.76662    16.473402   -444.06649   -427.59309   -7595.9948    -1417.753   -3551.8627   -17818.369    15.415464    13.350166    27.257613    5609.5895 
  163000      162.987    403.56158    16.588288   -444.15649    -427.5682   -6109.7677   -3293.0164   -438.79114   -14597.496    15.415466    13.350168    27.257595    5609.5877 
  163500      163.487    394.94484    16.234099   -443.77756   -427.54346   -7743.2216   -4191.1851   -3923.2624   -15115.217    15.415468     13.35017    27.257578    5609.5858 
  164000      163.987    372.66038    15.318103   -442.83597   -427.51786   -6128.6511   -2293.7892   -1020.0609   -15072.103    15.415471    13.350172     27.25756    5609.5839 
  164500      164.487    365.92886    15.041406   -442.53383   -427.49243   -6774.4649   -3306.3881   -2028.0522   -14988.954    15.415473    13.350174    27.257543     5609.582 
  165000      164.987    413.95184    17.015377   -444.48303   -427.46766   -8057.2538   -5000.8566   -4517.2531   -14653.652    15.415475    13.350176    27.257525    5609.5801 
  165500      165.487    387.07704    15.910696   -443.35212   -427.44143   -6023.1818   -1645.5361   -2375.4325   -14048.577    15.415478    13.350178    27.257508    5609.5782 
  166000      165.987    378.38313    15.553335    -442.9691   -427.41576   -6792.3354   -2947.8763   -229.83983    -17199.29     15.41548    13.350181     27.25749    5609.5764 
  166500      166.487     385.5989    15.849937   -443.24132   -427.39138   -6946.1604    -3854.479   -2585.0725    -14398.93    15.415482    13.350183    27.257473    5609.5745 
  167000      166.987    375.95412    15.453491   -442.82003   -427.36654   -6923.7531   -5222.3979   -1542.5109    -14006.35    15.415485    13.350185    27.257455    5609.5726 
  167500      167.487      384.118    15.789065   -443.12993   -427.34087    -7446.121   -3509.7269   -2466.9952   -16361.641    15.415487    13.350187    27.257438    5609.5707 
  168000      167.987    393.90507     16.19136   -443.50781   -427.31645   -7412.4867   -6184.1201   -1729.0348   -14324.305     15.41549    13.350189     27.25742    5609.5688 
  168500      168.487    379.12826    15.583963   -442.87427   -427.29031   -6007.6498   -2864.1838   -3235.3203   -11923.445    15.415492    13.350191    27.257403    5609.5669 
  169000      168.987    386.16536    15.873221   -443.13816   -427.26493   -6474.1702   -4135.1682   -2178.7119    -13108.63    15.415494    13.350193    27.257385     5609.565 
  169500      169.487    382.21268    15.710747   -442.95076   -427.24001   -5988.1964   -4054.5419   -3247.3601   -10662.687    15.415497    13.350195    27.257368    5609.5632 
  170000      169.987    431.02652    17.717227   -444.93273    -427.2155   -8550.4208   -6431.2472   -3755.3296   -15464.686    15.415499    13.350197     27.25735    5609.5613 
  170500      170.487    378.92923    15.575782   -442.76491   -427.18913    -7069.899   -3774.2775   -4046.9682   -13388.451    15.415501    13.350199    27.257333    5609.5594 
  171000      170.987    387.78348    15.939734    -443.1034   -427.16367   -6312.5314   -3455.5227   -1536.8912    -13945.18    15.415504    13.350201    27.257315    5609.5575 
  171500      171.487    382.65827    15.729063   -442.86772   -427.13866   -6995.8242   -4432.5495   -995.31702   -15559.606    15.415506    13.350203    27.257298    5609.5556 
  172000      171.987    395.28355    16.248022   -443.36166   -427.11364   -7284.4205   -4848.2329    -2385.874   -14619.155    15.415508    13.350205     27.25728    5609.5537 
  172500      172.487    391.09377    16.075802   -443.16366   -427.08786   -6066.8143   -440.58144   -4482.5252   -13277.336    15.415511    13.350207    27.257263    5609.5519 
  173000      172.987    372.75329    15.321922   -442.38305   -427.06113   -6148.1875    269.94026    -3953.884   -14760.619    15.415513    13.350209    27.257245      5609.55 
  173500      173.487    393.11752    16.158988   -443.19541   -427.03643   -6485.9294   -3869.1695    54.318744   -15642.937    15.415515    13.350211    27.257228    5609.5481 
  174000      173.987    387.22566    15.916805    -442.9281   -427.01129   -6104.4213   -5231.4696   -2174.5061   -10907.288    15.415518    13.350213     27.25721    5609.5462 
  174500      174.487    402.70954    16.553265    -443.5381   -426.98484   -6678.7527   -4126.9553   -959.43523   -14949.867     15.41552    13.350215    27.257193    5609.5443 
  175000      174.987     409.9121    16.849325   -443.80869   -426.95936   -6259.4904   -1895.8584    -1095.394   -15787.219    15.415522    13.350217    27.257175    5609.5424 
  175500      175.487     392.6056    16.137946   -443.07081   -426.93286   -5669.5001   -4142.0168    617.44409   -13483.928    15.415525    13.350219    27.257158    5609.5405 
  176000      175.987    412.32543    16.948524   -443.85625   -426.90773    -5854.226   -4048.5329    1673.8524   -15187.997    15.415527    13.350222     27.25714    5609.5387 
  176500      176.487    402.25603    16.534624   -443.41587   -426.88125   -7655.5733   -4516.6057   -1849.2599   -16600.854    15.415529    13.350224    27.257123    5609.5368 
  177000      176.987     394.3882    16.211219   -443.06718   -426.85596   -6754.9957    -5203.132   -3449.1242   -11612.731    15.415532    13.350226    27.257105    5609.5349 
  177500      177.487    391.47113    16.091314   -442.92121   -426.82989   -6684.8533   -3918.3892   -4358.3423   -11777.828    15.415534    13.350228    27.257088     5609.533 
  178000      177.987    400.88803    16.478393   -443.28246   -426.80407   -7100.0059   -3235.2843   -2324.8722   -15739.861    15.415537     13.35023     27.25707    5609.5311 
  178500      178.487    406.87704    16.724569   -443.50325   -426.77868   -6697.1779   -5743.1779   -1893.9269   -12454.429    15.415539    13.350232    27.257053    5609.5292 
  179000      178.987    420.53622    17.286026   -444.03965   -426.75362   -6975.4469   -4795.6585    -2150.548   -13980.134    15.415541    13.350234    27.257035    5609.5273 
  179500      179.487    396.82211    16.311264   -443.03833   -426.72706   -6591.3698   -5948.0826    1111.2031    -14937.23    15.415544    13.350236    27.257018    5609.5255 
  180000      179.987    404.58254    16.630254   -443.33142   -426.70116   -6204.8892   -4435.3757   -889.56141    -13289.73    15.415546    13.350238       27.257    5609.5236 
  180500      180.487    406.96159    16.728045   -443.40376   -426.67572    -6364.226   -3232.3887     140.6722   -16000.961    15.415548     13.35024    27.256983    5609.5217 
  181000      180.987    382.65977    15.729125   -442.37806   -426.64894    -6049.367    -3848.998    1218.3063   -15517.409    15.415551    13.350242    27.256965    5609.5198 
  181500      181.487    386.64582    15.892971   -442.51625   -426.62328   -7022.0421    -3042.371   -3841.3744   -14182.381    15.415553    13.350244    27.256948    5609.5179 
  182000      181.987    421.82477    17.338992    -443.9366   -426.59761   -8126.4636   -5398.7401   -3969.0251   -15011.625    15.415555    13.350246     27.25693     5609.516 
  182500      182.487     398.0257    16.360738   -442.93232   -426.57158    -6334.572   -6066.3998    -952.4115   -11984.905    15.415558    13.350248    27.256913    5609.5142 
  183000      182.987    392.76427    16.144468    -442.6899   -426.54544   -7078.3513   -5805.6286   -923.34175   -14506.084     15.41556     13.35025    27.256895    5609.5123 
  183500      183.487    402.73541    16.554329   -443.07321   -426.51888   -6702.7553   -7381.5232   -1112.3323    -11614.41    15.415562    13.350252    27.256878    5609.5104 
  184000      183.987    426.16372    17.517343   -444.01105   -426.49371   -8153.8815   -5694.9892   -1505.3404   -17261.315    15.415565    13.350254     27.25686    5609.5085 
  184500      184.487    406.44272    16.706717   -443.17401   -426.46729   -5621.9359    -3762.805   -2329.9327    -10773.07    15.415567    13.350256    27.256843    5609.5066 
  185000      184.987    426.06163    17.513147   -443.95453   -426.44138   -7074.6377   -3605.3224   -4192.3566   -13426.234    15.415569    13.350258    27.256825    5609.5047 
  185500      185.487    404.26902    16.617367   -443.03181   -426.41445   -5428.4026   -3765.9997   -798.33648   -11720.872    15.415572     13.35026    27.256808    5609.5028 
  186000      185.987    389.39333    16.005906   -442.39386   -426.38796    -7233.365   -8739.0638   -2211.5092   -10749.522    15.415574    13.350263     27.25679     5609.501 
  186500      186.487    398.29798     16.37193     -442.734   -426.36207   -7463.1794   -4916.3035    -2585.509   -14887.726    15.415576    13.350265    27.256773    5609.4991 
  187000      186.987    402.00806    16.524431   -442.86057   -426.33614   -5635.8209    -1070.924   -413.46652   -15423.072    15.415579    13.350267    27.256755    5609.4972 
  187500      187.487    407.60544     16.75451   -443.06447   -426.30996    -6493.137   -2672.7336   -1202.3578    -15604.32    15.415581    13.350269    27.256738    5609.4953 
  188000      187.987    389.77255    16.021494   -442.30523   -426.28373   -5724.3051   -3448.8336   -1120.4598   -12603.622    15.415584    13.350271     27.25672    5609.4934 
  188500      188.487    415.94117    17.097148    -443.3545   -426.25735   -6805.4289   -4898.1122   -1756.7808   -13761.394    15.415586    13.350273    27.256703    5609.4915 
  189000      188.987     406.7493    16.719319   -442.95026   -426.23094   -6479.4251   -2565.1304   -2485.6953    -14387.45    15.415588    13.350275    27.256685    5609.4896 
  189500      189.487    419.61798    17.248282   -443.45338    -426.2051   -6787.4828   -3303.6475    -1025.108   -16033.693    15.415591    13.350277    27.256668    5609.4878 
  190000      189.987    414.82087    17.051098   -443.22974   -426.17865   -6778.4061   -5444.7812   -2808.4329   -12082.004    15.415593    13.350279     27.25665    5609.4859 
  190500      190.487    412.02762    16.936283   -443.08799   -426.15171   -6869.9736   -5155.1265    215.64408   -15670.438    15.415595    13.350281    27.256633     5609.484 
  191000      190.987    431.66209    17.743352   -443.86903   -426.12568   -6349.0151    -4828.811     1393.086    -15611.32    15.415598    13.350283    27.256615    5609.4821 
  191500      191.487    402.62153    16.549648   -442.64819   -426.09855   -5866.0084   -2721.0471    370.94728   -15247.925      15.4156    13.350285    27.256598    5609.4802 
  192000      191.987    407.47548    16.749168   -442.82212   -426.07295   -6694.4496   -5060.0311   -1145.7333   -13877.584    15.415602    13.350287     27.25658    5609.4783 
  192500      192.487    406.67934    16.716443   -442.76255   -426.04611   -6018.8555    -2887.233   -1723.1266   -13446.207    15.415605    13.350289    27.256563    5609.4764 
  193000      192.987    405.42795    16.665005   -442.68451    -426.0195   -5982.5197   -4620.5841   -1884.7847    -11442.19    15.415607    13.350291    27.256545    5609.4746 
  193500      193.487    412.29949    16.947458     -442.941   -425.99354   -7089.1667   -4797.7396   -5064.8959   -11404.865    15.415609    13.350293    27.256528    5609.4727 
  194000      193.987    429.97385    17.673957   -443.64139   -425.96743    -6148.464   -1808.4126   -2880.8124   -13756.167    15.415612    13.350295     27.25651    5609.4708 
  194500      194.487    398.73206    16.389772   -442.32982   -425.94005   -6241.3859   -3376.8968   -2896.4666   -12450.794    15.415614    13.350297    27.256493    5609.4689 
  195000      194.987    425.27775    17.480925   -443.39526   -425.91433   -6480.4979   -4718.1335   -4110.3767   -10612.983    15.415616    13.350299    27.256475     5609.467 
  195500      195.487    406.93203     16.72683   -442.61387   -425.88704   -5851.3862   -2565.9895   -1763.8034   -13224.366    15.415619    13.350301    27.256458    5609.4651 
  196000      195.987     426.3758     17.52606   -443.38689   -425.86083   -6671.4424   -3865.1586   -1708.4228   -14440.746    15.415621    13.350304     27.25644    5609.4633 
  196500      196.487    426.38343    17.526374   -443.36019   -425.83382   -8074.0723   -6461.4917    83.196793   -17843.922    15.415623    13.350306    27.256423    5609.4614 
  197000      196.987    413.85154    17.011254    -442.8173   -425.80605   -6399.9621   -4927.1453   -3862.1855   -10410.556    15.415626    13.350308    27.256405    5609.4595 
  197500      197.487    424.44039    17.446506   -443.22595   -425.77944    -6929.103   -3346.1111    -3797.805   -13643.393    15.415628     13.35031    27.256388    5609.4576 
  198000      197.987    412.96363    16.974757   -442.72816    -425.7534   -7271.5089    -5256.753   -1533.8439    -15023.93    15.415631    13.350312     27.25637    5609.4557 
  198500      198.487    398.72902    16.389647   -442.11681   -425.72717   -5402.2785   -2328.9886   -1175.2886   -12702.558    15.415633    13.350314    27.256353    5609.4538 
  199000      198.987    405.01723    16.648122   -442.34964   -425.70151   -6272.5454   -5725.4943    229.58639   -13321.728    15.415635    13.350316    27.256335    5609.4519 
  199500      199.487    407.90299    16.766741   -442.44125   -425.67451   -6675.8112   -6511.3797   -2057.9642    -11458.09    15.415638    13.350318    27.256318    5609.4501 
  200000      199.987    404.63927    16.632586    -442.2797   -425.64712   -6439.6038   -2785.5978   -1234.7601   -15298.454     15.41564     13.35032      27.2563    5609.4482 
  200500      200.487    415.47104    17.077823   -442.69827   -425.62044   -6465.3033   -2756.3733   -2992.5669    -13646.97    15.415642    13.350322    27.256283    5609.4463 
  201000      200.987    417.11653    17.145461   -442.73887   -425.59341   -6737.5656    -4402.655    1500.1229   -17310.165    15.415645    13.350324    27.256265    5609.4444 
  201500      201.487    399.24592    16.410894   -441.97682   -425.56593   -5482.6051   -1482.8875   -2916.5188   -12048.409    15.415647    13.350326    27.256248    5609.4425 
  202000      201.987    405.14191    16.653247   -442.19317   -425.53992    -6648.326    -4117.285   -4427.1996   -11400.493    15.415649    13.350328     27.25623    5609.4406 
  202500      202.487    434.05691     17.84179   -443.35515   -425.51336   -6702.2655   -2347.4622   -2366.9394   -15392.395    15.415652     13.35033    27.256213    5609.4387 
  203000      202.987     443.6563    18.236371   -443.72276   -425.48639    -6950.365   -3941.6357   -2124.6696    -14784.79    15.415654    13.350332    27.256195    5609.4369 
  203500      203.487    412.24079    16.945045   -442.40431   -425.45927   -7555.4424   -4155.4008    -1417.036    -17093.89    15.415656    13.350334    27.256178     5609.435 
  204000      203.987    427.38548    17.567563   -442.99982   -425.43226   -6700.3769    -4376.597   -1633.6734    -14090.86    15.415659    13.350336     27.25616    5609.4331 
  204500      204.487    413.83908    17.010742   -442.41628   -425.40554    -5625.575   -2994.6848    945.05672   -14827.097    15.415661    13.350338    27.256143    5609.4312 
  205000      204.987    427.88398    17.588054   -442.96719   -425.37914   -6357.1984   -1801.2429   -1349.2711   -15921.081    15.415663     13.35034    27.256125    5609.4293 
  205500      205.487    431.15796     17.72263   -443.07459   -425.35196   -5844.5315   -5271.3645    -617.5429   -11644.687    15.415666    13.350342    27.256108    5609.4274 
  206000      205.987    401.42713    16.500552   -441.82491   -425.32436   -6609.6211   -4282.6101   -149.65991   -15396.593    15.415668    13.350345     27.25609    5609.4256 
  206500      206.487    422.02452    17.347202   -442.64509   -425.29789        -6424   -4194.9454   -4788.0754   -10288.979     15.41567    13.350347    27.256073    5609.4237 
  207000      206.987    419.43319    17.240686   -442.51154   -425.27086   -6763.1481   -3087.7082   -3096.2099   -14105.526    15.415673    13.350349    27.256055    5609.4218 
  207500      207.487    416.61099     17.12468    -442.3678   -425.24312   -6669.2066    -1879.497    -1244.838   -16883.285    15.415675    13.350351    27.256038    5609.4199 
  208000      207.987    405.17987    16.654807   -441.87148   -425.21667   -5035.5184   -2599.3849   -1463.9838   -11043.186    15.415678    13.350353     27.25602     5609.418 
  208500      208.487    414.80736    17.050543   -442.23965   -425.18911   -6263.8534    -4790.906    1531.1803   -15531.835     15.41568    13.350355    27.256003    5609.4161 
  209000      208.987    417.68071    17.168651   -442.33044   -425.16179   -6494.2969   -6771.9284    52.954616   -12763.917    15.415682    13.350357    27.255985    5609.4142 
  209500      209.487    415.34909    17.072811   -442.20719   -425.13438    -5605.999    -3918.002   -1140.7892   -11759.206    15.415685    13.350359    27.255968    5609.4124 
  210000      209.987    454.99133    18.702294    -443.8099   -425.10761   -6234.1902   -4400.1515   -1472.4464   -12829.973    15.415687    13.350361     27.25595    5609.4105 
  210500      210.487    408.38155    16.786412   -441.86626   -425.07984   -4658.8373   -2572.8249   -604.75384   -10798.933    15.415689    13.350363    27.255933    5609.4086 
  211000      210.987    421.45055    17.323609   -442.37615   -425.05254   -6130.0735   -2695.1022   -1072.9314   -14622.187    15.415692    13.350365    27.255915    5609.4067 
  211500      211.487     422.5295    17.367959   -442.39352   -425.02556   -5394.5502   -3243.7403    2158.3579   -15098.268    15.415694    13.350367    27.255898    5609.4048 
  212000      211.987    412.59625    16.959656   -441.95714   -424.99748   -4658.8093   -1959.0846   -1892.5959   -10124.747    15.415696    13.350369     27.25588    5609.4029 
[...]
  948500      948.487    582.34278     23.93704   -437.19819   -413.26115      144.325    838.17856    3667.9438   -4073.1474    15.419158    13.353389    27.230103     5606.624 
  949000      948.987    588.16878    24.176517   -437.43476   -413.25825   -1529.6107   -712.12912    908.45221   -4785.1552     15.41916    13.353391    27.230085    5606.6221 
  949500      949.487    555.71414    22.842477   -436.09821   -413.25573   -761.11396     1468.181   -795.22201   -2956.3009    15.419163    13.353393    27.230068    5606.6202 
  950000      949.987    579.16562    23.806444   -437.05996   -413.25352   -1567.3201     565.1924    3184.1074   -8451.2602    15.419165    13.353395     27.23005    5606.6184 
  950500      950.487    542.50154    22.299377    -435.5504   -413.25102    218.30339    3542.9145    1412.2466   -4300.2509    15.419167    13.353397    27.230033    5606.6165 
  951000      950.987    579.43354    23.817457   -437.06376    -413.2463   -482.36564    1077.8378    1819.3569   -4344.2917     15.41917    13.353399    27.230015    5606.6146 
  951500      951.487    561.60168    23.084483   -436.32734   -413.24286   -2331.2164    1826.3067   -559.90972   -8260.0464    15.419172    13.353401    27.229998    5606.6127 
  952000      951.987    561.12829    23.065025   -436.30542    -413.2404   -1242.6036    1212.7564    1653.5668   -6594.1341    15.419174    13.353403     27.22998    5606.6108 
  952500      952.487    572.05413    23.514128   -436.75176   -413.23763   -1143.2426   -2998.0232    3378.0576   -3809.7621    15.419177    13.353405    27.229963    5606.6089 
  953000      952.987    579.83005    23.833756   -437.06817   -413.23442    119.21733    5641.5992   -1212.0292   -4071.9181    15.419179    13.353407    27.229945     5606.607 
  953500      953.487    560.10564    23.022989   -436.25369    -413.2307   -854.04321    2431.6586    1860.5373   -6854.3255    15.419181    13.353409    27.229928    5606.6051 
  954000      953.987    596.56464    24.521626   -437.74899   -413.22736    -1861.535   -1856.4114     2510.869   -6239.0626    15.419184    13.353411     27.22991    5606.6032 
  954500      954.487     555.7423    22.843635   -436.06688   -413.22325    155.87963    2435.7839    2623.8323   -4591.9773    15.419186    13.353413    27.229893    5606.6014 
  955000      954.987    556.31088    22.867006   -436.08712   -413.22011   -121.24814     1549.766   -1187.4264   -726.08406    15.419188    13.353415    27.229875    5606.5995 
  955500      955.487    578.72598    23.788373   -437.00464   -413.21627   -1379.9665    1370.1332    1688.0638   -7198.0964    15.419191    13.353417    27.229858    5606.5976 
  956000      955.987     576.8626    23.711779   -436.92505   -413.21328   -72.075583     3330.707    2950.9327   -6497.8665    15.419193     13.35342     27.22984    5606.5957 
  956500      956.487     565.1715     23.23122   -436.44099   -413.20977   -98.215918    4003.7836    437.17794   -4735.6092    15.419195    13.353422    27.229823    5606.5938 
  957000      956.987    576.09895     23.68039    -436.8854   -413.20501   -309.41162   -335.85308    503.71429   -1096.0961    15.419198    13.353424    27.229805    5606.5919 
  957500      957.487    581.54314    23.904172   -437.10692   -413.20275   -623.71372    7306.1921   -995.79517    -8181.538      15.4192    13.353426    27.229788      5606.59 
  958000      957.987    591.38903    24.308884   -437.50771   -413.19882   -922.30511   -1406.9977    1493.2622   -2853.1799    15.419203    13.353428     27.22977    5606.5881 
  958500      958.487     573.9645    23.592653   -436.78705   -413.19439   -1765.1623    1016.2651   -2697.5944   -3614.1576    15.419205     13.35343    27.229753    5606.5863 
  959000      958.987    571.63767     23.49701   -436.68704   -413.19003    -152.8164    5628.6893    422.17506   -6509.3136    15.419207    13.353432    27.229735    5606.5844 
  959500      959.487    578.20174    23.766824   -436.95389   -413.18707   -2067.1101    1115.0979   -139.97034   -7176.4578     15.41921    13.353434    27.229718    5606.5825 
  960000      959.987    557.28695    22.907128    -436.0911   -413.18397   -224.24812    542.49221    5060.3818   -6275.6183    15.419212    13.353436      27.2297    5606.5806 
  960500      960.487    557.81209    22.928713   -436.10995   -413.18124    224.88609    3143.0561    2680.8194   -5149.2173    15.419214    13.353438    27.229683    5606.5787 
  961000      960.987     571.5546    23.493595   -436.67029    -413.1767   -667.77745    1104.7664    1740.0293    -4848.128    15.419217     13.35344    27.229665    5606.5768 
  961500      961.487    537.14058    22.079016   -435.25058   -413.17157   -1240.1482    223.96585   -412.98385   -3531.4266    15.419219    13.353442    27.229648    5606.5749 
  962000      961.987    533.39766    21.925165   -435.09217   -413.16701   -778.61745   -1660.4125    3381.0602   -4056.5001    15.419221    13.353444     27.22963     5606.573 
  962500      962.487    551.76085    22.679979   -435.84138    -413.1614      -133.59    4423.6124    3701.3962   -8525.7786    15.419224    13.353446    27.229613    5606.5712 
  963000      962.987    569.01081    23.389034   -436.54672   -413.15769    405.02932    4632.3616    711.07388   -4128.3475    15.419226    13.353448    27.229595    5606.5693 
  963500      963.487     593.9393    24.413712   -437.56616   -413.15245   -423.18969    1851.7616    938.17342    -4059.504    15.419228     13.35345    27.229578    5606.5674 
  964000      963.987    569.29231    23.400604   -436.54876   -413.14815   -405.68368    323.25774     3263.048   -4803.3568    15.419231    13.353452     27.22956    5606.5655 
  964500      964.487    562.64565    23.127395   -436.26914   -413.14174   -18.902821    -874.5261    4134.5587    -3316.741    15.419233    13.353454    27.229543    5606.5636 
  965000      964.987    587.80575    24.161594   -437.29904   -413.13744   -2204.4569   -2614.3474     2640.547   -6639.5703    15.419235    13.353456    27.229525    5606.5617 
  965500      965.487    581.88019    23.918026   -437.05165   -413.13363   -1437.5539    2751.9478    -1833.916   -5230.6936    15.419238    13.353458    27.229508    5606.5598 
  966000      965.987    600.51592    24.684042   -437.81304   -413.12899   -921.85877    3855.7606   -3548.0344   -3073.3025     15.41924    13.353461     27.22949    5606.5579 
  966500      966.487     588.8041    24.202631   -437.32764   -413.12501   -1831.2897    2172.1024   -1348.6381   -6317.3333    15.419242    13.353463    27.229473     5606.556 
  967000      966.987    564.12055    23.188021   -436.30674   -413.11872    97.740071    4363.3815    780.35289   -4850.5142    15.419245    13.353465    27.229455    5606.5542 
  967500      967.487    559.57331    23.001108   -436.11521    -413.1141   -346.65716    1094.0292    3119.0454   -5253.0461    15.419247    13.353467    27.229438    5606.5523 
  968000      967.987    600.91605     24.70049   -437.80941   -413.10892   -470.53465    2312.7717    813.96227    -4538.338     15.41925    13.353469     27.22942    5606.5504 
  968500      968.487    583.73725     23.99436   -437.09783   -413.10347   -392.10038     2815.325    4216.3732   -8207.9993    15.419252    13.353471    27.229403    5606.5485 
  969000      968.987    556.81189      22.8876   -435.98565   -413.09805      -549.33    2749.0297    1160.9427   -5557.9625    15.419254    13.353473    27.229385    5606.5466 
  969500      969.487    567.36921    23.321556   -436.41441   -413.09286   -1443.9168   -473.68718   -1962.4287   -1895.6344    15.419257    13.353475    27.229368    5606.5447 
  970000      969.987    600.54294    24.685153   -437.77308   -413.08792   -229.51724    1084.6993    5894.7175   -7667.9685    15.419259    13.353477     27.22935    5606.5428 
  970500      970.487    585.88388    24.082596   -437.16686   -413.08426    -1483.752    1948.3441   -1541.6112   -4857.9888    15.419261    13.353479    27.229333    5606.5409 
  971000      970.987    562.49271    23.121109    -436.1992   -413.07809    1553.6576    4839.4554    3878.6134   -4057.0959    15.419264    13.353481    27.229315    5606.5391 
  971500      971.487    561.83655    23.094137   -436.16608   -413.07194   -975.08708   -642.11962    4139.6212   -6422.7628    15.419266    13.353483    27.229298    5606.5372 
  972000      971.987    573.12705    23.558231   -436.62525   -413.06702   -1130.6902   -2530.8226    1445.0034   -2306.2514    15.419268    13.353485     27.22928    5606.5353 
  972500      972.487    565.55041    23.246795   -436.30738   -413.06059   -1121.1092    1132.8836    1559.8637    -6056.075    15.419271    13.353487    27.229263    5606.5334 
  973000      972.987    563.76673    23.173477   -436.22796   -413.05448   -203.13955   -601.87127    1380.7198   -1388.2672    15.419273    13.353489    27.229245    5606.5315 
  973500      973.487    571.60313     23.49559   -436.54524   -413.04965   -612.32198     2067.715    2858.4656   -6763.1465    15.419275    13.353491    27.229228    5606.5296 
  974000      973.987    577.07717    23.720599   -436.76377   -413.04317   -804.15104    797.42722    3162.5145   -6372.3949    15.419278    13.353493     27.22921    5606.5277 
  974500      974.487    562.74698    23.131561   -436.16869   -413.03713    82.876264     1869.276    1499.5757   -3120.2229     15.41928    13.353495    27.229193    5606.5258 
  975000      974.987    596.93386    24.536803   -437.56887   -413.03207   -1718.1403    1230.5163    950.91167   -7335.8487    15.419282    13.353497    27.229175    5606.5239 
  975500      975.487    561.18781    23.067471    -436.0946   -413.02712   -452.60466    -311.8712    3675.1173   -4721.0601    15.419285    13.353499    27.229158    5606.5221 
  976000      975.987    586.65825    24.114427   -437.13556   -413.02114   -696.65031    65.517459    4508.2278   -6663.6961    15.419287    13.353502     27.22914    5606.5202 
  976500      976.487    597.68942     24.56786   -437.58291   -413.01505   -226.13134    5797.4432   -6.2112236    -6469.626    15.419289    13.353504    27.229123    5606.5183 
  977000      976.987    577.09352    23.721271   -436.73085   -413.00958    294.27704    395.30784    3861.7656   -3374.2423    15.419292    13.353506    27.229105    5606.5164 
  977500      977.487    563.64104     23.16831   -436.17135   -413.00304    270.08648    1540.4329   -1288.4151     558.2417    15.419294    13.353508    27.229088    5606.5145 
  978000      977.987    579.58183    23.823552   -436.82134   -412.99779   -1279.4904    965.19336    1195.9781   -5999.6425    15.419297     13.35351     27.22907    5606.5126 
  978500      978.487    570.56279    23.452827   -436.44575   -412.99292   -502.03303    2024.4767    2135.3553    -5665.931    15.419299    13.353512    27.229053    5606.5107 
  979000      978.987    563.14219    23.147805   -436.13371    -412.9859   -192.05852    538.31355    4384.2901   -5498.7793    15.419301    13.353514    27.229035    5606.5088 
  979500      979.487    595.46131    24.476274   -437.45666   -412.98039   -1954.3875   -1129.0513    5243.0984   -9977.2096    15.419304    13.353516    27.229018     5606.507 
  980000      979.987    573.26578    23.563933   -436.53743    -412.9735    -1469.051    2325.7542   -801.20501   -5931.7022    15.419306    13.353518       27.229    5606.5051 
  980500      980.487    596.87033    24.534192   -437.50163   -412.96743   -653.03377    523.56294    2655.4556   -5138.1199    15.419308     13.35352    27.228983    5606.5032 
  981000      980.987    595.73404    24.487485   -437.44708   -412.95959   -824.22613   -415.72922    946.41908   -3003.3683    15.419311    13.353522    27.228965    5606.5013 
  981500      981.487    591.24539     24.30298   -437.25697   -412.95399   -1278.5488    3178.1871    127.10552   -7140.9391    15.419313    13.353524    27.228948    5606.4994 
  982000      981.987    618.16024    25.409307   -438.35665   -412.94734   -625.07138     2654.197    972.19518   -5501.6063    15.419315    13.353526     27.22893    5606.4975 
  982500      982.487    547.79706    22.517048   -435.45527   -412.93823    775.68219    2062.3339    3866.9436    -3602.231    15.419318    13.353528    27.228913    5606.4956 
  983000      982.987    591.60743    24.317861   -437.25043   -412.93256    924.70352    2958.7106    1060.7263   -1245.3263     15.41932     13.35353    27.228895    5606.4937 
  983500      983.487    593.90654    24.412366   -437.33851   -412.92614   -1964.5437    787.72408    761.63654   -7442.9918    15.419322    13.353532    27.228878    5606.4919 
  984000      983.987    566.16761    23.272164   -436.19043   -412.91827    -132.0563   -1372.3092     4017.841   -3041.7007    15.419325    13.353534     27.22886      5606.49 
  984500      984.487    605.39378    24.884545   -437.79781   -412.91327   -3157.4408   -1196.7612    901.63126   -9177.1924    15.419327    13.353536    27.228843    5606.4881 
  985000      984.987     576.2953    23.688461    -436.5947   -412.90624   -1401.7073    2907.3728   -554.49024   -6558.0045    15.419329    13.353538    27.228825    5606.4862 
  985500      985.487    531.59587    21.851103   -434.74842   -412.89732     1080.199    3459.5194    3923.5427   -4142.4652    15.419332     13.35354    27.228808    5606.4843 
  986000      985.987     572.6464    23.538473   -436.43001   -412.89154   -923.13678    1587.4938   -1085.1307   -3271.7734    15.419334    13.353543     27.22879    5606.4824 
  986500      986.487     555.1329    22.818586   -435.70226   -412.88367    190.11606     3531.158     1375.455   -4336.2648    15.419336    13.353545    27.228773    5606.4805 
  987000      986.987    594.99667    24.457175   -437.33495   -412.87778    -1397.687    2347.3391    1270.6399   -7811.0399    15.419339    13.353547    27.228755    5606.4786 
  987500      987.487    579.68178    23.827661   -436.69667   -412.86901   -719.96156   -968.29962    2503.8866   -3695.4717    15.419341    13.353549    27.228738    5606.4767 
  988000      987.987    567.51407     23.32751    -436.1887   -412.86119     866.7874     2166.479    2004.6897   -1570.8065    15.419344    13.353551     27.22872    5606.4749 
  988500      988.487    580.52943    23.862503   -436.71471   -412.85221   -1054.6277    656.35525    1906.0299   -5726.2682    15.419346    13.353553    27.228703     5606.473 
  989000      988.987    555.33502    22.826894   -435.67133   -412.84444    1676.2857    5394.5931    2528.2941   -2894.0301    15.419348    13.353555    27.228685    5606.4711 
  989500      989.487    612.68393    25.184205   -438.02017   -412.83597   -2093.6419   -2338.0739    3215.6192   -7158.4711    15.419351    13.353557    27.228668    5606.4692 
  990000      989.987     600.0317    24.664139   -437.49381   -412.82967   -1306.9921    60.433992   -96.232814   -3885.1776    15.419353    13.353559     27.22865    5606.4673 
  990500      990.487    556.84286    22.888873   -435.71136   -412.82249   -881.12861     1132.842    3589.1087   -7365.3365    15.419355    13.353561    27.228633    5606.4654 
  991000      990.987    576.23149    23.685838   -436.49995   -412.81411    101.91611    1736.7873    1137.7159   -2568.7549    15.419358    13.353563    27.228615    5606.4635 
  991500      991.487    581.42652    23.899378   -436.70709   -412.80771    22.776502    2900.8085    1158.1141   -3990.5931     15.41936    13.353565    27.228598    5606.4616 
  992000      991.987    569.67077    23.416161   -436.21629   -412.80013    -801.5987   -1032.7901    2953.5301   -4325.5361    15.419362    13.353567     27.22858    5606.4598 
  992500      992.487    566.88843    23.301794    -436.0935   -412.79171   -226.93999    2950.3718    2347.5559   -5978.7476    15.419365    13.353569    27.228563    5606.4579 
  993000      992.987    621.24869    25.536257   -438.31937   -412.78312   -1033.0795    554.22664    710.88538   -4364.3505    15.419367    13.353571    27.228545     5606.456 
  993500      993.487    567.07616     23.30951   -436.08483   -412.77532   -302.32189     3308.045     -98.3446   -4116.6661    15.419369    13.353573    27.228528    5606.4541 
  994000      993.987    564.58958      23.2073   -435.97643   -412.76913   -99.579776   -1637.7295    3016.6385   -1677.6483    15.419372    13.353575     27.22851    5606.4522 
  994500      994.487    579.61383    23.824868   -436.58584   -412.76098   -405.96242   -637.44243    3379.7572    -3960.202    15.419374    13.353577    27.228493    5606.4503 
  995000      994.987     578.8416    23.793125   -436.54693    -412.7538   -1357.1191    -1714.881    3293.5972   -5650.0735    15.419376    13.353579    27.228475    5606.4484 
  995500      995.487    540.69212    22.225002   -434.97045   -412.74545   -710.80128    681.66981    2826.1717   -5640.2453    15.419379    13.353581    27.228458    5606.4465 
  996000      995.987      555.295    22.825249   -435.56278   -412.73753    -207.5281   -874.07882    1776.7598   -1525.2653    15.419381    13.353584     27.22844    5606.4446 
  996500      996.487    571.10923    23.475289   -436.20437   -412.72908   -244.76057    61.785642    266.40013   -1062.4675    15.419383    13.353586    27.228423    5606.4428 
  997000      996.987    580.27606    23.852089   -436.57227   -412.72018   -1603.4778   -4497.5462    5942.4382   -6255.3254    15.419386    13.353588    27.228405    5606.4409 
  997500      997.487    586.98844    24.127999   -436.83927   -412.71127   -578.95058   -237.83651    2909.7148     -4408.73    15.419388     13.35359    27.228388     5606.439 
  998000      997.987    555.09817    22.817158   -435.51867   -412.70151   -1196.1085   -735.17247    2538.6427   -5391.7957    15.419391    13.353592     27.22837    5606.4371 
  998500      998.487     573.5219     23.57446   -436.26843   -412.69397   -577.97343   -1583.8212     2873.563   -3023.6621    15.419393    13.353594    27.228353    5606.4352 
  999000      998.987    594.56041    24.439243   -437.12649   -412.68725   -387.86024   -1640.4958     2546.278   -2069.3629    15.419395    13.353596    27.228335    5606.4333 
  999500      999.487    587.47779    24.148114   -436.82608   -412.67796   -1768.6908   -4318.5823    5190.0762   -6177.5664    15.419398    13.353598    27.228318    5606.4314 
 1000000      999.987    543.57176    22.343368    -435.0121   -412.66873   -372.24911   -2328.3756    5636.1512   -4424.5229      15.4194      13.3536      27.2283    5606.4295 
 1000013         1000    556.74828    22.884986   -435.55436   -412.66937   -918.70615   -2341.4217    2906.0982    -3320.795      15.4194      13.3536      27.2283    5606.4295 
Loop time of 900.514 on 28 procs for 1000000 steps with 319 atoms

Performance: 95.945 ns/day, 0.250 hours/ns, 1110.477 timesteps/s
87.1% CPU use with 28 MPI tasks x no OpenMP threads

MPI task timing breakdown:
Section |  min time  |  avg time  |  max time  |%varavg| %total
---------------------------------------------------------------
Pair    | 727.38     | 781.11     | 815.28     |  78.0 | 86.74
Neigh   | 0.0087724  | 0.013528   | 0.017456   |   1.9 |  0.00
Comm    | 75.206     | 107.52     | 160.43     | 203.6 | 11.94
Output  | 0.0995     | 0.10199    | 0.12189    |   1.2 |  0.01
Modify  | 4.5595     | 6.7129     | 10.259     |  59.9 |  0.75
Other   |            | 5.049      |            |       |  0.56

Nlocal:    11.3929 ave 16 max 6 min
Histogram: 1 0 4 3 2 5 2 3 6 2
Nghost:    641.536 ave 679 max 587 min
Histogram: 4 0 2 2 1 4 3 1 6 5
Neighs:    708.679 ave 1010 max 352 min
Histogram: 1 1 4 3 3 5 2 3 4 2
FullNghs:  1417.36 ave 2031 max 749 min
Histogram: 1 4 3 2 5 2 3 5 1 2

Total # of neighbors = 39686
Ave neighs/atom = 124.408
Neighbor list builds = 202
Dangerous builds = 0

write_restart   POSCAR_1x1x1.rest

#unfix    1
#undump   1
Total wall time: 0:15:00
