LAMMPS (7 Dec 2015)
#----------- Initialize Simulation ------------ restart01
#processors	2 2 2
units		metal
boundary	p p p     ## periodic boundary condition  on x y z axis ##
atom_style atomic
#atom_modify map array sort 0 0.0

read_data	POSCAR_1x1x1.lammps
  triclinic box = (0 0 0) to (15.4813 13.4072 26.7734) with tilt (-7.74055 0 0)
  2 by 2 by 7 MPI processor grid
  reading atoms ...
  319 atoms

#----------- Define Potential -----------------
pair_style meam
pair_coeff * * MgAlZn.library.meam Mg Al Zn MgAlZn.parameter.meam Mg Al Zn 	#1=Mg 2=Al 3=Zn	#atoms/mass

#----------- Neighbor List --------------------
neighbor 2.0 bin
neigh_modify delay 10 check yes

#--------------  Run a simulation (minimization) ---------------------------------------
minimize       1.0e-4   1.0e-6   100   1000          #結構優化的條件
WARNING: Resetting reneighboring criteria during minimization (../min.cpp:168)
Neighbor list info ...
  2 neighbor list requests
  update every 1 steps, delay 0 steps, check yes
  max neighbors/atom: 2000, page size: 100000
  master list distance cutoff = 8
  ghost atom cutoff = 8
  binsize = 4 -> bins = 6 4 7
Memory usage per processor = 8.65444 Mbytes
Step Temp E_pair E_mol TotEng Press 
       0            0   -435.28188            0   -435.28188     822.1487 
      14            0   -459.37079            0   -459.37079   -17786.113 
Loop time of 0.0236773 on 28 procs for 14 steps with 319 atoms

86.3% CPU use with 28 MPI tasks x no OpenMP threads

Minimization stats:
  Stopping criterion = energy tolerance
  Energy initial, next-to-last, final = 
        -435.281883796     -459.333279699     -459.370788253
  Force two-norm initial, final = 21.1812 0.600857
  Force max component initial, final = 2.53934 0.092791
  Final line search alpha, max atom move = 0.292261 0.0271192
  Iterations, force evaluations = 14 24

MPI task timing breakdown:
Section |  min time  |  avg time  |  max time  |%varavg| %total
---------------------------------------------------------------
Pair    | 0.018241   | 0.019991   | 0.021424   |   0.5 | 84.43
Neigh   | 0          | 0          | 0          |   0.0 |  0.00
Comm    | 0.0013817  | 0.0027792  | 0.0044785  |   1.2 | 11.74
Output  | 0          | 0          | 0          |   0.0 |  0.00
Modify  | 0          | 0          | 0          |   0.0 |  0.00
Other   |            | 0.0009069  |            |       |  3.83

Nlocal:    11.3929 ave 16 max 5 min
Histogram: 1 1 3 3 3 4 1 4 5 3
Nghost:    651.786 ave 676 max 609 min
Histogram: 2 1 1 1 1 2 7 4 7 2
Neighs:    714.571 ave 1033 max 322 min
Histogram: 1 1 3 4 3 3 3 7 0 3
FullNghs:  1429.14 ave 2029 max 625 min
Histogram: 1 1 3 3 3 4 1 5 4 3

Total # of neighbors = 40016
Ave neighs/atom = 125.442
Neighbor list builds = 0
Dangerous builds = 0
velocity all  create 600.0 4928459 #rot yes dist gaussian

#--------------  Run a simulation (Relaxation)  ----------------------------------------
fix  1  all  nvt   temp  600.0  600.0  100				#damping constant
#fix  2  all  npt   temp  393.0  393.0  50 iso 0.0 0.0 1000.0
fix  2  all deform 1 x final 0 15.486 y final 0 13.4113 z final 0 26.7384 xy final -7.7429 units lattice
#fix  3  all  npt   temp  393.0  393.0  50 z 0.0 0.0 1000.0

#variable b equal 1
#fix 2 all efield  0.0  0.0  v_b
#compute pot all pe/atom


#----------- Output --------------------------
thermo	 500
timestep  0.001		#1.0 fs
thermo_style	custom step time temp ke pe etotal press pxx pyy pzz lx ly lz vol

dump 1 all custom 10000 dump.eq id type x y z
dump_modify 1 sort  id

run        1000000	#1000 ps
Neighbor list info ...
  2 neighbor list requests
  update every 1 steps, delay 10 steps, check yes
  max neighbors/atom: 2000, page size: 100000
  master list distance cutoff = 8
  ghost atom cutoff = 8
  binsize = 4 -> bins = 6 4 7
Memory usage per processor = 7.56247 Mbytes
Step Time Temp KinEng PotEng TotEng Press Pxx Pyy Pzz Lx Ly Lz Volume 
      14            0          600    24.662836   -459.37079   -434.70795   -13045.734   -14091.768   -8822.2785   -16223.155      15.4813      13.4072      26.7734    5557.1106 
     500        0.486    304.52337     12.51735   -447.22079   -434.70344   -5683.5862   -9484.4907   -2389.9345   -5176.3335    15.481302    13.407202    26.773383    5557.1087 
    1000        0.986    300.48506    12.351356   -447.05453   -434.70318   -5950.8612   -8936.1116   -3051.7095   -5864.7625    15.481305    13.407204    26.773365    5557.1068 
    1500        1.486    315.33851    12.961903   -447.66437   -434.70247   -6487.4166   -9483.6755    -2333.952   -7644.6222    15.481307    13.407206    26.773348    5557.1048 
    2000        1.986    312.28266    12.836293   -447.53792   -434.70162   -6774.5842   -8294.6274   -4334.3196   -7694.8055    15.481309    13.407208     26.77333    5557.1029 
    2500        2.486    303.66626    12.482119   -447.18221   -434.70009   -6466.3978   -9261.2427   -2928.7449   -7209.2059    15.481312     13.40721    26.773313     5557.101 
    3000        2.986    302.64184     12.44001   -447.13892   -434.69891   -5367.3252   -5269.9378   -4789.2422   -6042.7955    15.481314    13.407212    26.773295     5557.099 
    3500        3.486    315.94699    12.986915   -447.68359   -434.69667   -6172.5236   -9770.6318   -4144.9031   -4602.0358    15.481316    13.407214    26.773278    5557.0971 
    4000        3.986    317.80297    13.063204   -447.75788   -434.69467   -6224.4023    -6901.759   -5345.0612   -6426.3866    15.481319    13.407216     26.77326    5557.0951 
    4500        4.486    304.03874    12.497429   -447.18911   -434.69168   -6294.7072    -10065.59    -5119.428   -3699.1037    15.481321    13.407218    26.773243    5557.0932 
    5000        4.986    287.30358    11.809535   -446.49805   -434.68851   -6504.2953   -8510.1259   -6134.9758   -4867.7843    15.481323     13.40722    26.773225    5557.0913 
    5500        5.486    323.84499     13.31156   -447.99717   -434.68561   -6112.7691   -7930.3274   -7903.2154   -2504.7645    15.481326    13.407222    26.773208    5557.0893 
    6000        5.986    299.49358    12.310602   -446.99217   -434.68157   -6057.4108   -7488.6825   -4875.9408   -5807.6091    15.481328    13.407225     26.77319    5557.0874 
    6500        6.486    311.55614     12.80643   -447.48452   -434.67809   -6397.1451   -8690.9145   -5722.4964   -4778.0245     15.48133    13.407227    26.773173    5557.0855 
    7000        6.986    298.41888    12.266426   -446.94012   -434.67369   -5195.3196   -7585.8117   -5499.2473      -2500.9    15.481333    13.407229    26.773155    5557.0835 
    7500        7.486    307.02751    12.620282   -447.28987   -434.66958   -5244.0118   -7853.2559   -6813.3082   -1065.4713    15.481335    13.407231    26.773138    5557.0816 
    8000        7.986    308.96056    12.699739   -447.36447   -434.66473   -6776.3496    -9362.547   -6415.5401   -4550.9616    15.481338    13.407233     26.77312    5557.0796 
    8500        8.486    331.23833    13.615461   -448.27558   -434.66012   -5418.0438   -9698.0789   -5383.9087   -1172.1438     15.48134    13.407235    26.773103    5557.0777 
    9000        8.986     327.7158    13.470668   -448.12505   -434.65438   -5423.9726    -6356.382   -4806.7536   -5108.7821    15.481342    13.407237    26.773085    5557.0758 
    9500        9.486    304.01339    12.496387   -447.14468   -434.64829   -5379.5966    -11013.96   -3556.5972   -1568.2328    15.481345    13.407239    26.773068    5557.0738 
   10000        9.986    322.93676    13.274227   -447.91686   -434.64264   -5811.0774   -8745.9173   -5584.1058    -3103.209    15.481347    13.407241     26.77305    5557.0719 
   10500       10.486    292.16164    12.009224    -446.6447   -434.63548   -5767.2735   -6445.9903   -6350.1813   -4505.6489    15.481349    13.407243    26.773033    5557.0699 
   11000       10.986    304.93374    12.534218   -447.16376   -434.62954   -5433.6729   -7264.7511    -6741.169   -2295.0987    15.481352    13.407245    26.773015     5557.068 
   11500       11.486     313.1818    12.873252   -447.49561   -434.62236   -5338.9344   -3847.7311   -8482.6338   -3686.4384    15.481354    13.407247    26.772998    5557.0661 
   12000       11.986    337.93195      13.8906   -448.50639   -434.61579   -6389.4146   -9467.2966   -8357.5814   -1343.3658    15.481356    13.407249     26.77298    5557.0641 
   12500       12.486    305.24733    12.547108   -447.15443   -434.60732   -6548.5466     -8085.01   -8974.9117   -2585.7181    15.481359    13.407251    26.772963    5557.0622 
   13000       12.986    283.99073    11.673361   -446.27246    -434.5991   -5745.6351   -6789.3272   -5279.7746   -5167.8033    15.481361    13.407253    26.772945    5557.0602 
   13500       13.486    296.94949    12.206027   -446.79725   -434.59122   -5092.6547   -9007.2944   -5715.2798   -555.39001    15.481363    13.407255    26.772928    5557.0583 
   14000       13.986    309.53596    12.723391    -447.3064   -434.58301   -4555.1794   -8294.0706   -3722.1825   -1649.2852    15.481366    13.407257     26.77291    5557.0564 
   14500       14.486    314.67395    12.934587   -447.50881   -434.57422   -5714.9556   -7170.3345   -7419.2321   -2555.3002    15.481368    13.407259    26.772893    5557.0544 
   15000       14.986    304.01513    12.496459   -447.06144   -434.56498    -4871.648   -6728.5236    -6873.367   -1013.0535     15.48137    13.407261    26.772875    5557.0525 
   15500       15.486     320.4533    13.172145   -447.72803   -434.55588   -6508.8346   -7323.7568   -7136.7189   -5066.0281    15.481373    13.407263    26.772858    5557.0506 
   16000       15.986     310.1945     12.75046   -447.29627   -434.54581   -6060.3019   -8929.7975   -7416.6876   -1834.4206    15.481375    13.407266     26.77284    5557.0486 
   16500       16.486    311.50128    12.804175   -447.33966   -434.53548   -5357.3774   -7719.7529   -5300.7608   -3051.6184    15.481377    13.407268    26.772823    5557.0467 
   17000       16.986     323.1836    13.284373   -447.81056   -434.52619   -5632.2331   -5676.2077   -8116.4269   -3104.0648     15.48138     13.40727    26.772805    5557.0447 
   17500       17.486    309.66788    12.728813   -447.24359   -434.51478   -4477.1359   -6344.2895   -2340.7509   -4746.3674    15.481382    13.407272    26.772788    5557.0428 
   18000       17.986    325.80276    13.392033   -447.89619   -434.50415    -5429.478   -7658.0134    -6079.873   -2550.5476    15.481385    13.407274     26.77277    5557.0409 
   18500       18.486    312.99341    12.865508   -447.35818   -434.49267   -5053.5846   -7811.6613   -5138.9133   -2210.1791    15.481387    13.407276    26.772753    5557.0389 
   19000       18.986     309.0266    12.702454   -447.18368   -434.48123   -5056.4606   -9364.9698   -5507.8045   -296.60745    15.481389    13.407278    26.772735     5557.037 
   19500       19.486    311.33791    12.797459   -447.26662   -434.46916   -5779.4729   -8616.9572    -5061.366   -3660.0957    15.481392     13.40728    26.772718     5557.035 
   20000       19.986    340.52001    13.996982   -448.45456   -434.45758   -5737.5853   -5156.1026   -6257.3576   -5799.2958    15.481394    13.407282      26.7727    5557.0331 
   20500       20.486    313.70111    12.894598   -447.33912   -434.44452   -5727.6362   -9703.0597   -6372.8877   -1106.9611    15.481396    13.407284    26.772683    5557.0312 
   21000       20.986    320.27929    13.164992   -447.59754   -434.43255   -5309.8681   -9659.3957   -3971.4943   -2298.7144    15.481399    13.407286    26.772665    5557.0292 
   21500       21.486    310.60755    12.767438   -447.18661   -434.41917   -5536.4288   -8124.4667   -3835.5356   -4649.2839    15.481401    13.407288    26.772648    5557.0273 
   22000       21.986    320.50197    13.174146   -447.58027   -434.40612   -5685.6847   -9507.2245   -7304.4202   -245.40937    15.481403     13.40729     26.77263    5557.0253 
   22500       22.486    306.52342    12.599561   -446.99165   -434.39209   -4785.6404   -7339.3511   -5921.5616   -1096.0084    15.481406    13.407292    26.772613    5557.0234 
   23000       22.986    313.95726    12.905127   -447.28347   -434.37834   -5177.4378   -7061.9063   -5557.2055   -2913.2017    15.481408    13.407294    26.772595    5557.0215 
   23500       23.486    320.84205    13.188125   -447.55258   -434.36445   -5188.2926   -7288.8982   -7804.0408   -471.93869     15.48141    13.407296    26.772578    5557.0195 
   24000       23.986     310.6577      12.7695   -447.11986   -434.35036    -5354.531   -8210.2125   -7770.1575   -83.222936    15.481413    13.407298     26.77256    5557.0176 
   24500       24.486    311.46103     12.80252   -447.13774   -434.33522   -5060.1423   -5589.4044   -5024.0984   -4566.9242    15.481415      13.4073    26.772543    5557.0156 
   25000       24.986    309.88336    12.737671   -447.05835   -434.32068   -6027.9174   -7735.9632    -8706.922   -1640.8671    15.481417    13.407302    26.772525    5557.0137 
   25500       25.486    315.24507    12.958062   -447.26315   -434.30508   -6177.7456   -8851.9307   -4828.0979   -4853.2081     15.48142    13.407304    26.772508    5557.0118 
   26000       25.986    319.67114    13.139995   -447.43002   -434.29003   -5210.1982   -7802.8997   -3188.5407   -4639.1544    15.481422    13.407307     26.77249    5557.0098 
   26500       26.486    309.04471    12.703198   -446.97726   -434.27406   -5086.5123   -8413.5303   -7107.2455    261.23895    15.481424    13.407309    26.772473    5557.0079 
   27000       26.986    329.91854    13.561211   -447.82016   -434.25895   -5567.4541   -8926.6799   -6346.2121   -1429.4704    15.481427    13.407311    26.772455    5557.0059 
   27500       27.486     320.6634    13.180781   -447.42292   -434.24214   -6475.3988   -8643.9785   -8804.2232   -1977.9948    15.481429    13.407313    26.772438     5557.004 
   28000       27.986    323.01597    13.277483   -447.50355   -434.22607   -5242.5326   -9120.7472   -5050.3469   -1556.5037    15.481432    13.407315     26.77242    5557.0021 
   28500       28.486    322.72135    13.265373    -447.4749   -434.20953   -6136.7969   -9472.8067   -5049.1779   -3888.4063    15.481434    13.407317    26.772403    5557.0001 
   29000       28.986    313.05429    12.868011   -447.06086   -434.19285   -5564.0965   -5962.6565    -8851.703     -1877.93    15.481436    13.407319    26.772385    5556.9982 
   29500       29.486    305.97171    12.576884   -446.75249    -434.1756   -4899.9373   -6381.2741   -5559.2095   -2759.3284    15.481439    13.407321    26.772368    5556.9963 
   30000       29.986     317.2074    13.038723   -447.19746   -434.15874   -4750.3509   -5641.8612   -8104.8108   -504.38064    15.481441    13.407323     26.77235    5556.9943 
   30500       30.486     310.0399    12.744105   -446.88575   -434.14164   -5133.2082   -6413.2927    -8536.871   -449.46086    15.481443    13.407325    26.772333    5556.9924 
   31000       30.986    331.68362    13.633764   -447.75819   -434.12443   -5275.8458   -7282.2845   -5518.6269   -3026.6259    15.481446    13.407327    26.772315    5556.9904 
   31500       31.486    312.65422    12.851566    -446.9578   -434.10623   -3665.0417   -6923.7101   -5329.9018     1258.487    15.481448    13.407329    26.772298    5556.9885 
   32000       31.986    308.97877    12.700488   -446.78916   -434.08867    -5774.785   -9384.7697   -5389.7196   -2549.8656     15.48145    13.407331     26.77228    5556.9866 
   32500       32.486    311.44047    12.801675   -446.87247   -434.07079   -5292.5177   -9139.4594   -7470.0373    731.94367    15.481453    13.407333    26.772263    5556.9846 
   33000       32.986    302.07759    12.416816   -446.46931   -434.05249   -5106.9466   -12072.781   -4414.4838    1166.4248    15.481455    13.407335    26.772245    5556.9827 
   33500       33.486    315.49965    12.968527   -447.00317   -434.03464   -5536.9921   -9784.4007   -2658.4091   -4168.1666    15.481457    13.407337    26.772228    5556.9807 
   34000       33.986     316.0288    12.990277   -447.00623   -434.01595   -5303.0109   -9171.0242    -4559.938   -2178.0705     15.48146    13.407339     26.77221    5556.9788 
   34500       34.486    317.29208    13.042204   -447.04028   -433.99807   -5885.4844   -8470.8084   -5835.0009   -3350.6438    15.481462    13.407341    26.772193    5556.9769 
   35000       34.986    319.04879    13.114413   -447.09373   -433.97932    -5778.393   -8763.8304   -3310.0172   -5261.3313    15.481464    13.407343    26.772175    5556.9749 
   35500       35.486    318.87605    13.107313    -447.0681   -433.96078   -5013.5816   -9352.3389   -5211.4067   -476.99927    15.481467    13.407345    26.772158     5556.973 
   36000       35.986    322.27637    13.247082   -447.18878   -433.94169   -4993.6236   -6809.2958   -5638.7206   -2532.8545    15.481469    13.407348     26.77214     5556.971 
   36500       36.486    319.60675    13.137348   -447.06063   -433.92328   -5273.2267   -9620.5061   -6220.3612    21.187327    15.481471     13.40735    26.772123    5556.9691 
   37000       36.986    316.59184    13.013421   -446.91756   -433.90414   -5304.6408    -6937.251   -4359.7637   -4616.9078    15.481474    13.407352    26.772105    5556.9672 
   37500       37.486    296.78608     12.19931   -446.08451    -433.8852   -4125.8117   -7077.4851   -4472.7114   -827.23871    15.481476    13.407354    26.772088    5556.9652 
   38000       37.986    334.34107    13.742998    -447.6095   -433.86651   -5659.2365    -9294.795   -2589.1769   -5093.7376    15.481479    13.407356     26.77207    5556.9633 
   38500       38.486    342.60032    14.082493   -447.93007   -433.84758    -4930.627   -7230.3621   -3811.6499   -3749.8689    15.481481    13.407358    26.772053    5556.9613 
   39000       38.986    317.41837    13.047395    -446.8756    -433.8282   -4884.5833   -10273.233   -4942.3389    561.82158    15.481483     13.40736    26.772035    5556.9594 
   39500       39.486    322.23141    13.245234   -447.05432   -433.80908   -5239.0567    -7198.404   -4838.6189   -3680.1473    15.481486    13.407362    26.772018    5556.9575 
   40000       39.986     331.4362    13.623594   -447.41403   -433.79044    -5119.227   -5893.0892   -8297.1083   -1167.4835    15.481488    13.407364       26.772    5556.9555 
   40500       40.486     320.0128    13.154038   -446.92495   -433.77091   -5488.9554   -8786.0496   -5372.2505    -2308.566     15.48149    13.407366    26.771983    5556.9536 
   41000       40.986    313.33786    12.879667   -446.63213   -433.75246   -4960.6479   -8815.3386   -6291.9307    225.32555    15.481493    13.407368    26.771965    5556.9517 
   41500       41.486    320.95818    13.192898   -446.92551   -433.73261   -5861.3474   -10702.198   -2322.4811   -4559.3627    15.481495     13.40737    26.771948    5556.9497 
   42000       41.986    330.27326    13.575792   -447.29023   -433.71444   -5371.3887   -8367.8615   -5328.4325    -2417.872    15.481497    13.407372     26.77193    5556.9478 
   42500       42.486    327.63787    13.467465   -447.16216    -433.6947   -5434.3195   -9256.6851   -4745.3207   -2300.9528      15.4815    13.407374    26.771913    5556.9458 
   43000       42.986    307.25367    12.629578   -446.30502   -433.67544   -4565.7562   -8480.2242   -3416.4637   -1800.5807    15.481502    13.407376    26.771895    5556.9439 
   43500       43.486    330.81726    13.598153   -447.25504   -433.65689   -6123.1717   -9558.0838   -6963.7131   -1847.7181    15.481504    13.407378    26.771878     5556.942 
   44000       43.986    339.46867    13.953767   -447.59189   -433.63813   -6245.0637   -8831.7634   -6303.3976   -3600.0302    15.481507     13.40738     26.77186      5556.94 
   44500       44.486     332.8564    13.681971   -447.30134   -433.61936   -5616.0066   -7185.1855   -5552.9735   -4109.8609    15.481509    13.407382    26.771843    5556.9381 
   45000       44.986    325.98225    13.399411   -446.99995   -433.60054   -5696.4657   -7882.1118   -3568.4512   -5638.8342    15.481511    13.407384    26.771825    5556.9361 
   45500       45.486    328.11967    13.487269   -447.06914   -433.58187   -4093.5771   -7078.7814   -3132.5793   -2069.3707    15.481514    13.407386    26.771808    5556.9342 
   46000       45.986    306.37217    12.593344   -446.15573   -433.56239   -5989.1826   -10834.236   -5421.0543   -1712.2578    15.481516    13.407389     26.77179    5556.9323 
   46500       46.486    324.88215    13.354192   -446.89872   -433.54453     -5840.92   -8313.5199   -5718.7891   -3490.4509    15.481518    13.407391    26.771773    5556.9303 
   47000       46.986    336.13276    13.816645   -447.34259   -433.52594   -5424.7538   -8839.8163   -1880.5055   -5553.9394    15.481521    13.407393    26.771755    5556.9284 
   47500       47.486    316.24805    12.999289   -446.50673   -433.50745   -4219.2243   -7389.5731   -4240.1208   -1027.9791    15.481523    13.407395    26.771738    5556.9264 
   48000       47.986    314.60551    12.931773   -446.42081   -433.48904   -4443.2585   -9321.4703   -4648.8979    640.59265    15.481526    13.407397     26.77172    5556.9245 
   48500       48.486    315.86844    12.983686   -446.45532   -433.47163   -4921.0321   -8787.0569   -5409.1667   -566.87252    15.481528    13.407399    26.771703    5556.9226 
   49000       48.986    332.29441    13.658871   -447.11256   -433.45369   -4977.2126   -5172.8511   -5840.5252   -3918.2615     15.48153    13.407401    26.771685    5556.9206 
   49500       49.486    331.04197    13.607389   -447.04316   -433.43577   -4480.7347   -9297.7561   -8182.4577    4038.0097    15.481533    13.407403    26.771668    5556.9187 
   50000       49.986    312.36393    12.839634    -446.2574   -433.41777    -4425.109   -8641.8647   -3319.6797   -1313.7825    15.481535    13.407405     26.77165    5556.9167 
   50500       50.486    338.61668    13.918746   -447.31914   -433.40039   -4550.8245   -4647.5624   -6418.3269   -2586.5842    15.481537    13.407407    26.771633    5556.9148 
   51000       50.986    333.98003    13.728158    -447.1106   -433.38244   -4799.5681   -9520.0974    -5361.737    483.13003     15.48154    13.407409    26.771615    5556.9129 
   51500       51.486    336.52364    13.832712   -447.19768   -433.36497   -4743.3186   -6399.0253   -5801.9782   -2028.9522    15.481542    13.407411    26.771598    5556.9109 
   52000       51.986    317.54082    13.052428    -446.3999   -433.34747    -5181.816   -7248.9015   -6392.9289   -1903.6175    15.481544    13.407413     26.77158     5556.909 
   52500       52.486    329.90061    13.560474   -446.89004   -433.32956   -5761.9876   -7041.4358   -6636.6242   -3607.9028    15.481547    13.407415    26.771563     5556.907 
   53000       52.986     314.8658    12.942473   -446.25487   -433.31239   -5331.3414   -10904.369   -3792.3422   -1297.3135    15.481549    13.407417    26.771545    5556.9051 
   53500       53.486     342.9373    14.096344   -447.39192   -433.29558   -5600.2798   -7717.3944   -5666.1417   -3417.3032    15.481551    13.407419    26.771528    5556.9032 
   54000       53.986    306.40541     12.59471   -445.87268   -433.27797   -5704.7649   -9201.9915    -4063.926   -3848.3772    15.481554    13.407421     26.77151    5556.9012 
   54500       54.486     342.8495    14.092735   -447.35399   -433.26125   -5316.6457   -8306.4896   -5522.9192   -2120.5284    15.481556    13.407423    26.771493    5556.8993 
   55000       54.986    359.73623    14.786859   -448.03173   -433.24487   -5383.5808   -6927.3445   -6592.3541   -2631.0439    15.481558    13.407425    26.771475    5556.8974 
   55500       55.486    330.46985    13.583873   -446.81144   -433.22756   -6039.1503   -10739.969   -4944.7533    -2432.729    15.481561    13.407427    26.771458    5556.8954 
   56000       55.986      351.811    14.461095   -447.67215   -433.21105   -5118.4394   -7253.9305   -4527.2182   -3574.1695    15.481563     13.40743     26.77144    5556.8935 
   56500       56.486    329.12071    13.528417    -446.7222   -433.19378   -5389.4391   -10039.996   -5160.7397   -967.58181    15.481565    13.407432    26.771423    5556.8915 
   57000       56.986    338.88617    13.929823   -447.10688   -433.17706   -4558.5772   -7252.2656   -7822.6161    1399.1502    15.481568    13.407434    26.771405    5556.8896 
   57500       57.486    328.32265    13.495613   -446.65612   -433.16051   -5315.0866   -7331.2942   -6588.6349   -2025.3306     15.48157    13.407436    26.771388    5556.8877 
   58000       57.986    356.06103    14.635791   -447.78057   -433.14478   -5977.8472   -8773.0538   -3813.2037    -5347.284    15.481573    13.407438     26.77137    5556.8857 
   58500       58.486    341.02087    14.017569   -447.14533   -433.12776    -5020.337   -10535.202   -3578.5321   -947.27749    15.481575     13.40744    26.771353    5556.8838 
   59000       58.986    340.68645    14.003823   -447.11508   -433.11126   -4329.0465   -6624.6641    -6163.179   -199.29659    15.481577    13.407442    26.771335    5556.8818 
   59500       59.486    343.00409    14.099089   -447.19431   -433.09522   -5992.7245   -5890.2317   -7124.4698    -4963.472     15.48158    13.407444    26.771318    5556.8799 
   60000       59.986    333.36836    13.703015   -446.78184   -433.07883   -4591.5113   -7664.0786   -5235.1057   -875.34952    15.481582    13.407446      26.7713     5556.878 
   60500       60.486    326.69855    13.428854   -446.49115    -433.0623   -5304.7924   -9368.7704   -6082.3116   -463.29534    15.481584    13.407448    26.771283     5556.876 
   61000       60.986    331.08404    13.609119   -446.65572    -433.0466   -5198.8603   -7761.2082   -10296.283    2460.9108    15.481587     13.40745    26.771265    5556.8741 
   61500       61.486    339.15893    13.941035   -446.97175   -433.03072   -5378.0817   -7366.6286   -6684.1037   -2083.5129    15.481589    13.407452    26.771248    5556.8721 
   62000       61.986    342.15849    14.064331   -447.07906   -433.01472   -3920.4933   -5018.9778   -6207.1957   -535.30626    15.481591    13.407454     26.77123    5556.8702 
   62500       62.486    329.54496    13.545855   -446.54427   -432.99841   -4311.4068   -6465.2261   -3991.1277   -2477.8665    15.481594    13.407456    26.771213    5556.8683 
   63000       62.986    339.78221    13.966655   -446.94958   -432.98293   -5874.5429   -7948.0898   -5987.5738   -3687.9651    15.481596    13.407458    26.771195    5556.8663 
   63500       63.486     340.9244    14.013604   -446.98047   -432.96687   -5234.1062   -8318.2582   -4069.7223   -3314.3383    15.481598     13.40746    26.771178    5556.8644 
   64000       63.986    318.80312    13.104315   -446.05514   -432.95082    -4805.237   -9179.0771   -7136.3614    1899.7274    15.481601    13.407462     26.77116    5556.8624 
   64500       64.486    347.33525     14.27712   -447.21237   -432.93525   -6312.5896   -8279.6312    -6242.666   -4415.4716    15.481603    13.407464    26.771143    5556.8605 
   65000       64.986    327.94052    13.479905   -446.39936   -432.91946   -6002.1623    -8756.129   -5614.9957   -3635.3623    15.481605    13.407466    26.771125    5556.8586 
   65500       65.486    320.45109    13.172054   -446.07537   -432.90331   -4695.4911   -7733.3985    -6040.004   -313.07063    15.481608    13.407468    26.771108    5556.8566 
   66000       65.986     335.1595     13.77664   -446.66418   -432.88754   -4479.5954   -9353.0597   -4913.2844    827.55806     15.48161    13.407471     26.77109    5556.8547 
   66500       66.486    328.87291    13.518231   -446.39044   -432.87221   -4503.0378   -9145.9779   -3151.5785   -1211.5569    15.481612    13.407473    26.771073    5556.8527 
   67000       66.986    333.60843    13.712883   -446.56924   -432.85636    -5586.718    -8109.041   -6890.6343   -1760.4789    15.481615    13.407475    26.771055    5556.8508 
   67500       67.486     321.1394    13.200347   -446.04073   -432.84039   -4761.7391    -8313.352   -5064.0599   -907.80528    15.481617    13.407477    26.771038    5556.8489 
   68000       67.986    326.62799    13.425954   -446.25113   -432.82517   -5387.7713   -8474.3519   -3723.6381   -3965.3237     15.48162    13.407479     26.77102    5556.8469 
   68500       68.486     309.3735    12.716713   -445.52578   -432.80907    -3218.408   -4217.3448    -7088.819    1650.9397    15.481622    13.407481    26.771003     5556.845 
   69000       68.986    327.79444    13.473901   -446.26747   -432.79357   -4821.8615   -7483.3063   -5826.4343   -1155.8439    15.481624    13.407483    26.770985    5556.8431 
   69500       69.486    330.91393    13.602126   -446.37987   -432.77775    -3999.506   -8815.2553   -4987.2843    1804.0217    15.481627    13.407485    26.770968    5556.8411 
   70000       69.986    339.06579    13.937207   -446.69921   -432.76201   -5004.9615   -6813.6729   -3437.7312   -4763.4804    15.481629    13.407487     26.77095    5556.8392 
   70500       70.486    352.65168    14.495651   -447.24271   -432.74706    -6408.332   -9100.3912   -5263.2223   -4861.3825    15.481631    13.407489    26.770933    5556.8372 
   71000       70.986    339.79698    13.967262   -446.69742   -432.73016   -5663.7183   -7498.2708   -7639.1483   -1853.7359    15.481634    13.407491    26.770915    5556.8353 
   71500       71.486    372.74238    15.321474   -448.03651   -432.71504   -5692.9177   -11589.825   -3623.4463   -1865.4822    15.481636    13.407493    26.770898    5556.8334 
   72000       71.986    338.96161    13.932924   -446.63147   -432.69855   -4921.4339   -6679.9644   -5291.5665   -2792.7709    15.481638    13.407495     26.77088    5556.8314 
   72500       72.486    344.92115    14.177889   -446.86071   -432.68282    -5154.624   -7799.9403   -4847.0595   -2816.8721    15.481641    13.407497    26.770863    5556.8295 
   73000       72.986    325.64577     13.38558   -446.05224   -432.66666   -5511.4231   -8963.7921   -3400.0936   -4170.3835    15.481643    13.407499    26.770845    5556.8275 
   73500       73.486    344.64755    14.166643   -446.81754    -432.6509   -4788.6418   -7819.6916    -6480.898   -65.335714    15.481645    13.407501    26.770828    5556.8256 
   74000       73.986    341.53891    14.038863   -446.67357   -432.63471   -4153.8491   -7334.5246    -5598.763    471.74019    15.481648    13.407503     26.77081    5556.8237 
   74500       74.486     320.5407    13.175738   -445.79384    -432.6181   -3414.4241   -4200.8487   -4424.9182   -1617.5052     15.48165    13.407505    26.770793    5556.8217 
   75000       74.986    338.45087     13.91193   -446.51425   -432.60232   -4341.8349   -7696.1802   -4155.8813   -1173.4431    15.481652    13.407507    26.770775    5556.8198 
   75500       75.486    333.34561     13.70208   -446.28748    -432.5854   -4642.7971   -8146.9018   -6799.3634    1017.8738    15.481655    13.407509    26.770758    5556.8178 
   76000       75.986    332.33512    13.660544   -446.22969   -432.56915   -4801.5903   -5964.8997   -5897.0912     -2542.78    15.481657    13.407512     26.77074    5556.8159 
   76500       76.486    346.74418    14.252824    -446.8059   -432.55308   -5110.4786   -7733.3503   -4789.7499   -2808.3356    15.481659    13.407514    26.770723     5556.814 
   77000       76.986    354.35778     14.56578   -447.10307   -432.53729   -4219.5218   -4831.4857   -9191.6353    1364.5556    15.481662    13.407516    26.770705     5556.812 
   77500       77.486    339.41426     13.95153   -446.47176   -432.52023   -4398.1263   -6902.0332   -3983.4803   -2308.8654    15.481664    13.407518    26.770688    5556.8101 
   78000       77.986     336.1512    13.817403   -446.32132   -432.50391    -5065.538   -7684.6295   -4997.3523   -2514.6323    15.481667     13.40752     26.77067    5556.8081 
   78500       78.486    327.68321    13.469329   -445.95608   -432.48675   -4490.5319   -8285.0266    -3483.432   -1703.1372    15.481669    13.407522    26.770653    5556.8062 
   79000       78.986    347.90456    14.300522   -446.77142    -432.4709   -5922.6118   -7079.1592   -7471.9264   -3216.7498    15.481671    13.407524    26.770635    5556.8043 
   79500       79.486    344.54917    14.162599   -446.61671   -432.45411   -5239.1308   -6663.9191   -8187.6172   -865.85611    15.481674    13.407526    26.770618    5556.8023 
   80000       79.986    332.93872    13.685355    -446.1228   -432.43744   -5598.9779   -10353.873   -5562.4963   -880.56458    15.481676    13.407528      26.7706    5556.8004 
   80500       80.486    340.57348     13.99918   -446.42022   -432.42104   -5055.5897   -8445.8954   -5693.0658   -1027.8078    15.481678     13.40753    26.770583    5556.7984 
   81000       80.986    330.04959    13.566598   -445.97076   -432.40416   -4527.1677   -9229.1494   -4026.1826   -326.17119    15.481681    13.407532    26.770565    5556.7965 
   81500       81.486    326.34271    13.414228   -445.80133   -432.38711   -4442.9426   -10219.576   -4310.9302    1201.6783    15.481683    13.407534    26.770548    5556.7946 
   82000       81.986    339.71767    13.964002   -446.33454   -432.37054   -5389.2868   -9223.8832   -6458.3406   -485.63652    15.481685    13.407536     26.77053    5556.7926 
   82500       82.486    339.35296    13.949011   -446.30209   -432.35308   -4993.1234   -8744.3965   -6944.1535    709.17978    15.481688    13.407538    26.770513    5556.7907 
   83000       82.986    342.05662    14.060144   -446.39572   -432.33558   -4929.6021   -8750.8976   -4641.6245   -1396.2842     15.48169     13.40754    26.770495    5556.7887 
   83500       83.486     350.3121    14.399483   -446.71813   -432.31864   -3876.6787   -8719.0361    -2636.883   -274.11704    15.481692    13.407542    26.770478    5556.7868 
   84000       83.986    347.94564     14.30221   -446.60326   -432.30105   -5176.4064   -10070.797   -2907.1456    -2551.277    15.481695    13.407544     26.77046    5556.7849 
   84500       84.486    351.53035    14.449559   -446.73304   -432.28348   -5607.8495    -11229.98   -3102.1635   -2491.4054    15.481697    13.407546    26.770443    5556.7829 
   85000       84.986    347.44071    14.281455   -446.54728   -432.26583   -5056.3611   -8310.2643   -4971.4192   -1887.3998    15.481699    13.407548    26.770425     5556.781 
   85500       85.486    349.13631    14.351153   -446.59921   -432.24806   -4970.0109   -8159.9337   -9183.2037    2433.1045    15.481702     13.40755    26.770408    5556.7791 
   86000       85.986    344.72866    14.169977   -446.40043   -432.23045   -4264.8989   -6315.0691   -6251.4356   -228.19202    15.481704    13.407553     26.77039    5556.7771 
   86500       86.486    337.88555    13.888693   -446.10091   -432.21222   -4468.3129   -6010.9137   -5316.6145   -2077.4106    15.481706    13.407555    26.770373    5556.7752 
   87000       86.986    355.42628      14.6097   -446.80469   -432.19499   -4675.2762   -8106.4301   -5794.2847   -125.11394    15.481709    13.407557    26.770355    5556.7732 
   87500       87.486    354.05215    14.553217   -446.72989   -432.17667   -5582.1265   -6689.2676   -5706.6331   -4350.4788    15.481711    13.407559    26.770338    5556.7713 
   88000       87.986    343.40103    14.115405   -446.27405   -432.15864   -4684.0561   -8038.5516   -7250.1836    1236.5667    15.481714    13.407561     26.77032    5556.7694 
   88500       88.486    344.73946    14.170421   -446.31076   -432.14034   -4768.1555   -7960.3069   -1877.8159   -4466.3436    15.481716    13.407563    26.770303    5556.7674 
   89000       88.986     348.8417    14.339043   -446.46149   -432.12245    -5653.005   -8938.6276   -4541.8244   -3478.5629    15.481718    13.407565    26.770285    5556.7655 
   89500       89.486    365.21682    15.012137    -447.1164   -432.10426   -5140.9137   -7400.1187   -3866.4838   -4156.1384    15.481721    13.407567    26.770268    5556.7635 
   90000       89.986    342.24271    14.067793   -446.15366   -432.08587   -5332.7039   -8284.9492   -4035.3755   -3677.7871    15.481723    13.407569     26.77025    5556.7616 
   90500       90.486    321.77232    13.226363   -445.29309   -432.06673   -3917.4412   -7414.0035   -5989.9544    1651.6343    15.481725    13.407571    26.770233    5556.7597 
   91000       90.986    357.41978    14.691642   -446.74033   -432.04869   -5216.7441   -7581.3104   -7840.6848   -228.23703    15.481728    13.407573    26.770215    5556.7577 
   91500       91.486    356.94731    14.672222   -446.70199   -432.02976   -5435.7916   -6496.5518   -5375.7146   -4435.1085     15.48173    13.407575    26.770198    5556.7558 
   92000       91.986    352.47403    14.488349   -446.49969   -432.01134   -4940.0635   -8814.1192   -4675.1118   -1330.9596    15.481732    13.407577     26.77018    5556.7538 
   92500       92.486     346.0381    14.223801    -446.2161    -431.9923   -4294.6048   -6266.5012   -5318.1157   -1299.1974    15.481735    13.407579    26.770163    5556.7519 
   93000       92.986    335.59763    13.794649   -445.76805    -431.9734     -3777.24   -3582.4309   -5167.0133   -2582.2759    15.481737    13.407581    26.770145      5556.75 
   93500       93.486    356.28681    14.645072   -446.59938   -431.95431   -5701.2143   -7403.1402   -5295.8547   -4404.6479    15.481739    13.407583    26.770128     5556.748 
   94000       93.986    345.88205    14.217387   -446.15218   -431.93479    -4823.684   -7332.6048   -6922.4344   -216.01275    15.481742    13.407585     26.77011    5556.7461 
   94500       94.486    352.46516    14.487984   -446.40411   -431.91612   -5017.7856   -8931.3382    -5302.684   -819.33462    15.481744    13.407587    26.770093    5556.7441 
   95000       94.986    346.23053    14.231711   -446.12874   -431.89703   -4186.8184   -6801.4226    -3991.581   -1767.4516    15.481746    13.407589    26.770075    5556.7422 
   95500       95.486    373.65251    15.358884   -447.23696   -431.87807   -3998.9708   -7585.6946   -4684.4375    273.21972    15.481749    13.407591    26.770058    5556.7403 
   96000       95.986    340.47204     13.99501   -445.85272   -431.85771   -5052.5005   -8664.5103    -4755.491   -1737.5002    15.481751    13.407594     26.77004    5556.7383 
   96500       96.486    373.49202    15.352287   -447.19069   -431.83841   -5697.3969   -8716.1791    -5364.976   -3011.0356    15.481753    13.407596    26.770023    5556.7364 
   97000       96.986    337.43801    13.870297   -445.68881   -431.81852   -3700.7949   -4888.0727   -7800.4588    1586.1468    15.481756    13.407598    26.770005    5556.7344 
   97500       97.486    335.25413    13.780529   -445.57925   -431.79872   -3325.7424   -6350.7273    -4762.624    1136.1239    15.481758      13.4076    26.769988    5556.7325 
   98000       97.986    351.73872    14.458124   -446.23706   -431.77893   -4490.1153    -5018.615   -6047.9712   -2403.7598    15.481761    13.407602     26.76997    5556.7306 
   98500       98.486    355.53957    14.614357   -446.37379   -431.75944   -4874.9855   -9381.4954   -4282.8351   -960.62591    15.481763    13.407604    26.769953    5556.7286 
   99000       98.986     356.2045    14.641688   -446.38119    -431.7395   -4864.2108   -6167.8421   -3491.1372    -4933.653    15.481765    13.407606    26.769935    5556.7267 
   99500       99.486     332.7284     13.67671   -445.39511    -431.7184   -4205.1676   -7665.2115   -4769.7566    -180.5346    15.481768    13.407608    26.769918    5556.7247 
  100000       99.986    342.04339      14.0596   -445.75834   -431.69874   -5053.7551   -6412.6794   -5902.8232   -2845.7628     15.48177     13.40761      26.7699    5556.7228 
  100500      100.486    346.09367    14.226086   -445.90516   -431.67907   -5789.7012   -8644.4748   -4476.3899    -4248.239    15.481772    13.407612    26.769883    5556.7209 
  101000      100.986    359.32137    14.769807     -446.428   -431.65819   -5315.5597    -6694.103   -5862.3259   -3390.2503    15.481775    13.407614    26.769865    5556.7189 
  101500      101.486    343.69317    14.127414   -445.76522   -431.63781   -4421.0632   -9484.8953   -1966.6968   -1811.5975    15.481777    13.407616    26.769848     5556.717 
  102000      101.986    350.63407    14.412718   -446.03003   -431.61732   -4380.5577   -5650.8177   -6067.7439   -1423.1115    15.481779    13.407618     26.76983    5556.7151 
  102500      102.486    357.17235    14.681472   -446.27885   -431.59738   -4178.2564   -4229.6052   -6078.1244   -2227.0395    15.481782     13.40762    26.769813    5556.7131 
  103000      102.986    358.42225    14.732848   -446.30906   -431.57621   -4066.5247   -7759.3601   -5077.9238    637.70987    15.481784    13.407622    26.769795    5556.7112 
  103500      103.486    354.06257    14.553645    -446.1094   -431.55576   -4915.8004    -8417.961    -2532.892   -3796.5483    15.481786    13.407624    26.769778    5556.7092 
  104000      103.986    350.18405    14.394219   -445.92892    -431.5347   -4158.5934   -9018.1457   -3171.7203   -285.91419    15.481789    13.407626     26.76976    5556.7073 
  104500      104.486    343.50509    14.119682   -445.63373   -431.51405   -4097.3093   -7623.1523   -6788.4246     2119.649    15.481791    13.407628    26.769743    5556.7054 
  105000      104.986    344.39716    14.156351   -445.64915    -431.4928   -3345.3469   -6578.8042   -5787.2304    2329.9938    15.481793     13.40763    26.769725    5556.7034 
  105500      105.486    366.81959    15.078019   -446.55005   -431.47203   -5036.2236   -8021.4602   -6288.2958   -798.91465    15.481796    13.407632    26.769708    5556.7015 
  106000      105.986    336.20844    13.819756   -445.27058   -431.45083   -2900.1094   -8834.6727   -2783.2508    2917.5952    15.481798    13.407635     26.76969    5556.6995 
  106500      106.486    354.47117     14.57044         -446   -431.42956   -3271.1506   -7637.7464   -2792.7828     617.0776      15.4818    13.407637    26.769673    5556.6976 
  107000      106.986    353.42714    14.527526    -445.9363   -431.40878   -4742.6738   -10238.764   -5343.0388    1353.7811    15.481803    13.407639    26.769655    5556.6957 
  107500      107.486    365.73603    15.033479   -446.42091   -431.38743   -3801.3361   -8310.1252   -3889.1502    795.26725    15.481805    13.407641    26.769638    5556.6937 
  108000      107.986    364.52695     14.98378   -446.34972   -431.36594   -4770.2376   -8725.5986   -5010.8928   -574.22133    15.481808    13.407643     26.76962    5556.6918 
  108500      108.486    343.74956    14.129731   -445.47392   -431.34419   -5317.1193   -8782.1686   -4783.5599   -2385.6294     15.48181    13.407645    26.769603    5556.6898 
  109000      108.986    359.86043    14.791964   -446.11469   -431.32272   -3627.8807    -7921.726   -3119.9308    158.01458    15.481812    13.407647    26.769585    5556.6879 
  109500      109.486     348.8852    14.340831   -445.64117   -431.30034   -4172.9129   -4356.6003   -4580.1156   -3582.0229    15.481815    13.407649    26.769568     5556.686 
  110000      109.986    349.27254    14.356752   -445.63575     -431.279    -4085.329   -8457.0151   -3244.2766   -554.69544    15.481817    13.407651     26.76955     5556.684 
  110500      110.486     379.4144    15.595725   -446.85378   -431.25805   -5156.3354   -5688.4091   -8740.8167   -1039.7802    15.481819    13.407653    26.769533    5556.6821 
  111000      110.986    357.91241    14.711892   -445.94811   -431.23622   -4437.1461   -7051.2048   -4520.6445   -1739.5888    15.481822    13.407655    26.769515    5556.6801 
  111500      111.486    383.28413    15.754789   -446.96946   -431.21467    -4060.479   -8602.1815   -3063.2043   -516.05114    15.481824    13.407657    26.769498    5556.6782 
  112000      111.986    379.25564    15.589199   -446.78233   -431.19313   -5062.1713   -8190.1128   -6322.9494   -673.45163    15.481826    13.407659     26.76948    5556.6763 
  112500      112.486     364.0099    14.962527   -446.13267   -431.17014   -4887.1993   -8606.5024   -5890.0521   -165.04329    15.481829    13.407661    26.769463    5556.6743 
  113000      112.986    373.74664    15.362753    -446.5117   -431.14894   -4666.7817   -10844.322   -1638.8748   -1517.1488    15.481831    13.407663    26.769445    5556.6724 
  113500      113.486    355.68165    14.620197   -445.74666   -431.12647   -3172.1149   -7121.5911   -4660.7793    2266.0256    15.481833    13.407665    26.769428    5556.6704 
  114000      113.986    377.15277    15.502761   -446.60719   -431.10443   -4260.4173   -5953.4981   -6111.1656   -716.58826    15.481836    13.407667     26.76941    5556.6685 
  114500      114.486    361.47199    14.858207   -445.94048   -431.08227   -3450.6759   -7618.9916   -2282.7069   -450.32931    15.481838    13.407669    26.769393    5556.6666 
  115000      114.986    374.80605      15.4063   -446.46655   -431.06025    -4967.841    -9881.638   -5247.0733    225.18821     15.48184    13.407671    26.769375    5556.6646 
  115500      115.486    346.51187    14.243276    -445.2807   -431.03742   -3199.0471   -7130.2493   -2003.1178   -463.77421    15.481843    13.407673    26.769358    5556.6627 
  116000      115.986    352.16113    14.475487   -445.49075   -431.01527   -4058.4571   -5907.3742   -4488.6897   -1779.3075    15.481845    13.407676     26.76934    5556.6607 
  116500      116.486    362.27205    14.891094     -445.884   -430.99291   -4973.6759   -8032.7475   -4896.4694   -1991.8106    15.481847    13.407678    26.769323    5556.6588 
  117000      116.986    359.24407    14.766629   -445.73713    -430.9705   -3710.9309   -4110.1118   -6644.9406    -377.7405     15.48185     13.40768    26.769305    5556.6569 
  117500      117.486    363.72066    14.950638   -445.89931   -430.94867   -2857.1547   -4220.7498   -7543.0809    3192.3665    15.481852    13.407682    26.769288    5556.6549 
  118000      117.986    359.39542     14.77285   -445.69844   -430.92559   -4607.7673   -7896.4863   -4827.1802   -1099.6355    15.481855    13.407684     26.76927     5556.653 
  118500      118.486    368.76793    15.158105   -446.06161   -430.90351   -4067.1024   -7333.3119   -5899.3912    1031.3957    15.481857    13.407686    26.769253     5556.651 
  119000      118.986    376.93244    15.493705    -446.3754    -430.8817   -5403.4941   -10125.396   -4114.8504   -1970.2364    15.481859    13.407688    26.769235    5556.6491 
  119500      119.486    341.48645    14.036707   -444.89504   -430.85834   -4252.2988   -6137.3997   -5494.2936    -1125.203    15.481862     13.40769    26.769218    5556.6472 
  120000      119.986    373.23677    15.341795    -446.1784   -430.83661   -4473.0118   -7551.5302   -6781.4658    913.96039    15.481864    13.407692      26.7692    5556.6452 
  120500      120.486    359.33021     14.77017   -445.58382   -430.81365   -3703.5865   -6722.5585   -4983.0885    594.88751    15.481866    13.407694    26.769183    5556.6433 
  121000      120.986    345.24887     14.19136   -444.98247   -430.79111   -2741.8834   -6760.1927   -5709.9677    4244.5101    15.481869    13.407696    26.769165    5556.6414 
  121500      121.486    344.55925    14.163013   -444.93101     -430.768   -3882.0514   -5829.2409    -3824.321   -1992.5924    15.481871    13.407698    26.769148    5556.6394 
  122000      121.986    356.09176    14.637054   -445.38241   -430.74536    -3264.566   -3859.6178   -5890.5114   -43.569008    15.481873      13.4077     26.76913    5556.6375 
  122500      122.486    367.99808     15.12646   -445.84914   -430.72268   -4654.4182   -8377.4056   -3598.8722   -1986.9769    15.481876    13.407702    26.769113    5556.6355 
  123000      122.986    388.67678    15.976453   -446.67642   -430.69996   -4722.6551   -6930.2475   -7384.3719    146.65414    15.481878    13.407704    26.769095    5556.6336 
  123500      123.486    384.26796    15.795229   -446.47212   -430.67689   -4553.0911   -9598.6173   -4519.5765    458.92051     15.48188    13.407706    26.769078    5556.6317 
  124000      123.986    383.02297    15.744054   -446.39794   -430.65389   -4086.6297   -8472.8486   -4441.2558     654.2152    15.481883    13.407708     26.76906    5556.6297 
  124500      124.486    372.02585    15.292021   -445.92264   -430.63062   -5099.8981   -6037.3145   -5497.8529   -3764.5267    15.481885     13.40771    26.769043    5556.6278 
  125000      124.986    371.29131    15.261827   -445.86923    -430.6074   -3244.7541   -6784.8567    674.21929   -3623.6249    15.481887    13.407712    26.769025    5556.6258 
  125500      125.486    359.86675    14.792224    -445.3761   -430.58388   -3661.0627   -7387.7181   -4219.1994     623.7294     15.48189    13.407714    26.769008    5556.6239 
  126000      125.986    371.47994    15.269581   -445.83083   -430.56125   -3734.8204   -4864.7514   -5332.9595   -1006.7502    15.481892    13.407717     26.76899     5556.622 
  126500      126.486    354.63717    14.577264   -445.11522   -430.53796   -4145.7448   -8327.4351   -5203.7127    1093.9133    15.481894    13.407719    26.768973      5556.62 
  127000      126.986    358.33418    14.729228    -445.2439   -430.51467   -3844.4543   -4787.1559    -5352.327     -1393.88    15.481897    13.407721    26.768955    5556.6181 
  127500      127.486    360.67895     14.82561   -445.31724   -430.49163   -3259.4041   -6277.0093   -3928.2275    427.02459    15.481899    13.407723    26.768938    5556.6161 
  128000      127.986    377.99696    15.537462   -446.00611   -430.46865   -3964.6464   -5891.0101   -6000.9041    -2.025029    15.481902    13.407725     26.76892    5556.6142 
  128500      128.486    357.84296    14.709037   -445.15415   -430.44512   -4378.3546   -8670.6032   -4188.8552   -275.60545    15.481904    13.407727    26.768903    5556.6123 
  129000      128.986    357.44021    14.692482   -445.11521   -430.42273   -4088.4471   -5940.0897    -3288.182   -3037.0696    15.481906    13.407729    26.768885    5556.6103 
  129500      129.486    361.11233    14.843423   -445.24257   -430.39915   -4316.4812   -6374.5177   -5162.0565   -1412.8693    15.481909    13.407731    26.768868    5556.6084 
  130000      129.986    361.89714    14.875683   -445.25162   -430.37593   -4621.5342   -7456.1039   -7133.7306    725.23197    15.481911    13.407733     26.76885    5556.6064 
  130500      130.486    376.52125    15.476803   -445.82981   -430.35301     -3939.26   -5221.0512   -5993.0195   -603.70933    15.481913    13.407735    26.768833    5556.6045 
  131000      130.986    350.09866    14.390709   -444.72007   -430.32936   -4251.4489   -6709.5012   -4684.9253   -1359.9203    15.481916    13.407737    26.768815    5556.6026 
  131500      131.486    370.47461    15.228257   -445.53431   -430.30605   -4237.4346   -6006.4927   -7333.3405    627.52937    15.481918    13.407739    26.768798    5556.6006 
  132000      131.986    360.26408    14.808556   -445.09086   -430.28231   -4609.9219   -7216.4017   -4939.9616   -1673.4024     15.48192    13.407741     26.76878    5556.5987 
  132500      132.486    364.81195    14.995495    -445.2544    -430.2589   -3524.0542   -7255.5454   -1370.5689   -1946.0484    15.481923    13.407743    26.768763    5556.5967 
  133000      132.986    351.79113    14.460278   -444.69545   -430.23517   -4934.2055   -7790.5864    -5956.081   -1055.9492    15.481925    13.407745    26.768745    5556.5948 
  133500      133.486    361.72649    14.868668   -445.08048   -430.21181    -3646.012   -10147.416   -2525.6418    1735.0221    15.481927    13.407747    26.768728    5556.5929 
  134000      133.986     381.4556    15.679628   -445.86782   -430.18819   -3490.8914   -7784.9938   -3502.3265    814.64607     15.48193    13.407749     26.76871    5556.5909 
  134500      134.486    379.40407      15.5953   -445.76101   -430.16571    -4055.532   -9615.6942   -4488.6241    1937.7222    15.481932    13.407751    26.768693     5556.589 
  135000      134.986    368.46842    15.145794   -445.28735   -430.14156    -3398.832   -6290.8216   -5971.6248    2065.9506    15.481934    13.407753    26.768675     5556.587 
  135500      135.486    362.62865    14.905752   -445.02373   -430.11798   -3312.2058   -10103.534   -2429.5942    2596.5108    15.481937    13.407755    26.768658    5556.5851 
  136000      135.986    367.74743    15.116158   -445.21089   -430.09474     -2692.96    -6441.901   -4026.8062    2389.8272    15.481939    13.407758     26.76864    5556.5832 
  136500      136.486    367.95281      15.1246   -445.19528   -430.07068   -3034.3336   -6290.0915   -4289.5423    1476.6331    15.481941     13.40776    26.768623    5556.5812 
  137000      136.986    374.50507    15.393928   -445.44117   -430.04724   -3149.7842   -5908.1833   -2943.8591   -597.31013    15.481944    13.407762    26.768605    5556.5793 
  137500      137.486    345.60658    14.206064   -444.22893   -430.02287    -2057.431   -5147.3679   -3663.5048    2638.5797    15.481946    13.407764    26.768588    5556.5773 
  138000      137.986     388.0632    15.951231    -445.9512   -429.99996    -3481.359    -6064.826   -6790.1814    2410.9302    15.481949    13.407766     26.76857    5556.5754 
  138500      138.486    375.26459    15.425148   -445.40089   -429.97575   -3968.3041   -7267.3888   -3872.2345   -765.28894    15.481951    13.407768    26.768553    5556.5735 
  139000      138.986    367.55805    15.108373    -445.0601   -429.95172   -3961.9275   -9060.0068   -2171.9224   -653.85332    15.481953     13.40777    26.768535    5556.5715 
  139500      139.486    372.45249    15.309558   -445.23724   -429.92768   -4374.3828   -7561.1679   -4684.3883   -877.59223    15.481956    13.407772    26.768518    5556.5696 
  140000      139.986     380.3305    15.633381   -445.53748    -429.9041   -3426.5545   -5805.2232   -3328.1498   -1146.2905    15.481958    13.407774      26.7685    5556.5676 
  140500      140.486    366.48949     15.06445   -444.94505    -429.8806   -3569.8675   -5765.1623   -4952.2682    7.8279653     15.48196    13.407776    26.768483    5556.5657 
  141000      140.986    365.54528    15.025639   -444.88237   -429.85673   -2857.7462   -5943.7573   -2585.0763    -44.40508    15.481963    13.407778    26.768465    5556.5638 
  141500      141.486    374.73372    15.403327   -445.23569   -429.83236   -3363.5273   -5795.9964   -2854.6802   -1439.9052    15.481965     13.40778    26.768448    5556.5618 
  142000      141.986    386.51479    15.887585   -445.69543   -429.80784   -3906.7036    -4498.434   -6683.3168   -538.35992    15.481967    13.407782     26.76843    5556.5599 
  142500      142.486    386.68511    15.894586   -445.67849   -429.78391   -3988.7823   -5811.1025   -7121.3198    966.07535     15.48197    13.407784    26.768413    5556.5579 
  143000      142.986    359.36338    14.771533    -444.5319   -429.76037   -3079.3312   -5825.2388   -6942.8655    3530.1109    15.481972    13.407786    26.768395     5556.556 
  143500      143.486    395.74971    16.267183   -446.00378    -429.7366   -3867.2011   -5354.9216   -4636.3909   -1610.2908    15.481974    13.407788    26.768378    5556.5541 
  144000      143.986     358.8867     14.75194   -444.46373   -429.71179   -3348.6827   -4864.6575   -4321.9674   -859.42326    15.481977     13.40779     26.76836    5556.5521 
  144500      144.486     361.1221    14.843825   -444.53125   -429.68742   -1734.5412   -6281.2744   -958.48633    2036.1372    15.481979    13.407792    26.768343    5556.5502 
  145000      144.986    374.99961    15.414256   -445.07851   -429.66426    -3087.452   -5599.2052   -6288.1773    2625.0264    15.481981    13.407794    26.768325    5556.5482 
  145500      145.486     387.6988    15.936253   -445.57657   -429.64032   -3817.7428   -6916.2595   -2562.6022   -1974.3668    15.481984    13.407796    26.768308    5556.5463 
  146000      145.986    357.00656    14.674657    -444.2909   -429.61624   -3509.2432   -8826.8399   -1394.7377   -306.15202    15.481986    13.407799     26.76829    5556.5444 
  146500      146.486    378.88807     15.57409   -445.16629    -429.5922   -2223.2268   -7073.9045   -532.76442    936.98856    15.481988    13.407801    26.768273    5556.5424 
  147000      146.986    365.60649    15.028155   -444.59553   -429.56738   -2984.5535   -5322.3407   -4475.1321    843.81221    15.481991    13.407803    26.768255    5556.5405 
  147500      147.486    356.04955    14.635319   -444.17844   -429.54312   -2568.3192   -6246.5206   -2391.0872    932.65029    15.481993    13.407805    26.768238    5556.5386 
  148000      147.986    383.07436    15.746167   -445.26524   -429.51908   -3651.6896   -7547.1615   -4793.3509    1385.4436    15.481996    13.407807     26.76822    5556.5366 
  148500      148.486    362.16331    14.886624   -444.38101   -429.49438   -2178.4534   -4281.6149   -5550.1423    3296.3971    15.481998    13.407809    26.768203    5556.5347 
  149000      148.986    372.59849    15.315559   -444.78595   -429.47039    -3187.193   -5493.9417   -1705.8042   -2361.8332       15.482    13.407811    26.768185    5556.5327 
  149500      149.486    354.99136    14.591823   -444.03787   -429.44605    -2898.605   -2999.6427   -5730.4922    34.320057    15.482003    13.407813    26.768168    5556.5308 
  150000      149.986    368.79956    15.159405   -444.58117   -429.42177    -2880.113   -7320.0369   -1572.6261    252.32411    15.482005    13.407815     26.76815    5556.5289 
  150500      150.486    367.43474    15.103304   -444.50044   -429.39714   -1944.6442   -4756.7933   -4790.9102     3713.771    15.482007    13.407817    26.768133    5556.5269 
  151000      150.986    385.28748    15.837136   -445.21061   -429.37348   -2990.4929   -5960.1506   -5327.8026    2316.4746     15.48201    13.407819    26.768115     5556.525 
  151500      151.486    377.33815    15.510381   -444.85893   -429.34855   -2706.2754   -5857.4704   -4326.5445    2065.1887    15.482012    13.407821    26.768098     5556.523 
  152000      151.986    381.31422    15.673816   -444.99803   -429.32422   -4114.1005   -3656.0614   -7481.5044   -1204.7357    15.482014    13.407823     26.76808    5556.5211 
  152500      152.486     376.3871    15.471289   -444.77028     -429.299   -3778.5065   -7169.3597   -5109.7754    943.61545    15.482017    13.407825    26.768063    5556.5192 
  153000      152.986     372.3745    15.306352   -444.58137   -429.27502   -3999.3793   -6995.9359   -4663.7429   -338.45921    15.482019    13.407827    26.768045    5556.5172 
  153500      153.486    378.25107    15.547907   -444.79856   -429.25066   -2966.8502   -5751.7175   -3819.0428    670.20976    15.482021    13.407829    26.768028    5556.5153 
  154000      153.986    370.89844    15.245679   -444.47198    -429.2263   -3523.7871   -9269.9921   -1978.6283     677.2591    15.482024    13.407831     26.76801    5556.5133 
  154500      154.486    381.30871     15.67359   -444.87544   -429.20185   -3172.2338   -9664.9883   -3058.0166    3206.3036    15.482026    13.407833    26.767993    5556.5114 
  155000      154.986    402.50637    16.544914   -445.72112    -429.1762   -3080.7064   -6615.4511   -4345.7321     1719.064    15.482028    13.407835    26.767975    5556.5095 
  155500      155.486    383.70374    15.772037   -444.92298   -429.15095   -2403.5019   -4453.2605   -4445.0889    1687.8436    15.482031    13.407837    26.767958    5556.5075 
  156000      155.986    371.61883     15.27529   -444.40073   -429.12544   -1991.9363   -4875.6724   -4255.1212    3154.9846    15.482033     13.40784     26.76794    5556.5056 
  156500      156.486    404.58729     16.63045   -445.73202   -429.10157   -3977.8474   -4920.7871    -6622.183   -390.57202    15.482035    13.407842    26.767923    5556.5036 
  157000      156.986    363.73818    14.951358   -444.02747   -429.07611    -2961.841   -5168.7086   -5175.6339    1458.8196    15.482038    13.407844    26.767905    5556.5017 
  157500      157.486    405.43907    16.665462   -445.71743   -429.05197   -4225.5415   -3403.8461   -8235.8522   -1036.9262     15.48204    13.407846    26.767888    5556.4998 
  158000      157.986    379.87192    15.614531   -444.64179   -429.02726   -3433.5494   -7275.7435   -3849.5757    824.67117    15.482043    13.407848     26.76787    5556.4978 
  158500      158.486     374.4376    15.391155   -444.39277   -429.00161   -1525.2655   -6407.1237    -402.6447    2233.9721    15.482045     13.40785    26.767853    5556.4959 
  159000      158.986    392.74717    16.143765   -445.12079   -428.97702   -3503.5707   -7863.1614   -2742.6678    95.117073    15.482047    13.407852    26.767835    5556.4939 
  159500      159.486    397.15902    16.325113   -445.27743   -428.95231   -3084.5258   -5428.6758   -5733.4693    1908.5675     15.48205    13.407854    26.767818     5556.492 
  160000      159.986    369.66848    15.195122   -444.12107   -428.92595   -2879.6449   -6595.9887   -4507.8804    2464.9345    15.482052    13.407856      26.7678    5556.4901 
  160500      160.486     393.1563    16.160582   -445.06222   -428.90164   -3260.8339   -6199.3537   -7408.2962     3825.148    15.482054    13.407858    26.767783    5556.4881 
  161000      160.986    380.08103    15.623127   -444.49977   -428.87664    -2540.443   -6847.0442    -2284.317    1510.0322    15.482057     13.40786    26.767765    5556.4862 
  161500      161.486    387.96816    15.947325   -444.79915   -428.85182   -2118.6104   -5281.2443   -3742.7523    2668.1655    15.482059    13.407862    26.767748    5556.4842 
  162000      161.986    389.45447     16.00842   -444.83509   -428.82667   -2643.3945   -6275.6333   -5473.0306    3818.4803    15.482061    13.407864     26.76773    5556.4823 
  162500      162.486    388.81133    15.981983     -444.784   -428.80201   -2486.8452   -6618.7595    -2593.996      1752.22    15.482064    13.407866    26.767713    5556.4804 
  163000      162.986    384.23862    15.794023   -444.56961   -428.77558   -3086.9182   -4639.9366    -2568.845   -2051.9731    15.482066    13.407868    26.767695    5556.4784 
  163500      163.486    385.91445    15.862908   -444.61419   -428.75128   -3369.8485   -7965.9915   -3194.5675    1051.0135    15.482068     13.40787    26.767678    5556.4765 
  164000      163.986    400.31246    16.454734    -445.1809   -428.72617   -3576.8359   -10111.498   -3956.6947    3337.6852    15.482071    13.407872     26.76766    5556.4745 
  164500      164.486    369.44094    15.185768   -443.88645   -428.70068   -2470.1267   -7778.9199   -414.28686    782.82676    15.482073    13.407874    26.767643    5556.4726 
  165000      164.986    407.64276    16.756044   -445.43209   -428.67604   -1933.0029   -444.30999   -8942.7568    3588.0582    15.482075    13.407876    26.767625    5556.4707 
  165500      165.486    381.20444    15.669304   -444.31977   -428.65047   -3756.8227   -5219.9433   -6426.6759    376.15122    15.482078    13.407878    26.767608    5556.4687 
  166000      165.986    383.38441    15.758911    -444.3852   -428.62629   -3546.7126   -8426.9495   -4707.6602     2494.472     15.48208    13.407881     26.76759    5556.4668 
  166500      166.486    370.91025    15.246164   -443.84647   -428.60031   -3302.6652    -6709.529   -4098.9175    900.45087    15.482082    13.407883    26.767573    5556.4648 
  167000      166.986    384.31795    15.797284   -444.37242   -428.57513   -1765.1233   -6323.7732   -4430.7418    5459.1452    15.482085    13.407885    26.767555    5556.4629 
  167500      167.486    371.65928    15.276953   -443.82633   -428.54938    -3398.345   -8532.6302   -5865.8904    4203.4856    15.482087    13.407887    26.767538     5556.461 
  168000      167.986    368.30806    15.139202   -443.66343   -428.52422   -1887.6417   -4417.6573   -3510.7678    2265.4999     15.48209    13.407889     26.76752     5556.459 
  168500      168.486    419.90134     17.25993   -445.75944   -428.49952   -4364.0634   -4951.3113   -6700.6104   -1440.2685    15.482092    13.407891    26.767503    5556.4571 
  169000      168.986    394.35788    16.209973   -444.68424   -428.47426   -3688.7989   -8077.4615   -1957.3447   -1031.5905    15.482094    13.407893    26.767485    5556.4551 
  169500      169.486    402.78516    16.556374   -445.00512   -428.44874    -5431.865   -7864.1447   -5463.5564    -2967.894    15.482097    13.407895    26.767468    5556.4532 
  170000      169.986    388.05666    15.950963   -444.37438   -428.42342   -2929.1781    -5521.864   -3917.3905    651.72037    15.482099    13.407897     26.76745    5556.4513 
  170500      170.486    407.92384    16.767598   -445.16616   -428.39856   -4130.3968   -6996.4799   -3934.5933   -1460.1172    15.482101    13.407899    26.767433    5556.4493 
  171000      170.986    379.89609    15.615525   -443.98764   -428.37211   -2254.2309   -8323.2654   -4052.1822    5612.7551    15.482104    13.407901    26.767415    5556.4474 
  171500      171.486    373.88973    15.368635   -443.71527   -428.34664   -2155.0344   -4609.0121   -3365.6544    1509.5632    15.482106    13.407903    26.767398    5556.4454 
  172000      171.986    401.81678    16.516569   -444.83812   -428.32155   -2606.9941    -6634.135    -2887.578    1700.7307    15.482108    13.407905     26.76738    5556.4435 
  172500      172.486    408.75384    16.801715   -445.09827   -428.29656    -2744.702   -4570.3476   -2197.0665    -1466.692    15.482111    13.407907    26.767363    5556.4416 
  173000      172.986    387.88388    15.943861   -444.21471   -428.27085   -3071.9405   -6020.4087   -3501.7697    306.35695    15.482113    13.407909    26.767345    5556.4396 
  173500      173.486    385.72111    15.854961   -444.10044   -428.24548   -2158.3984   -8611.4795   -1165.7832    3302.0674    15.482115    13.407911    26.767328    5556.4377 
  174000      173.986    392.40192    16.129573   -444.34925   -428.21967   -3733.3941   -4773.2223   -3986.0361   -2440.9239    15.482118    13.407913     26.76731    5556.4357 
  174500      174.486    405.66659    16.674814   -444.86965   -428.19484   -2814.8148   -4920.6369   -4621.6645    1097.8571     15.48212    13.407915    26.767293    5556.4338 
  175000      174.986    411.50662    16.914867   -445.08399   -428.16913   -3508.2168   -2802.1341   -5961.7659   -1760.7503    15.482122    13.407917    26.767275    5556.4319 
  175500      175.486    395.38207    16.252072   -444.39505   -428.14298   -1981.2567   -6617.9577    580.97706    93.210636    15.482125    13.407919    26.767258    5556.4299 
  176000      175.986    398.57958    16.383504   -444.50057   -428.11706   -3480.2203   -7628.1682    -1841.553   -970.93966    15.482127    13.407922     26.76724     5556.428 
  176500      176.486    399.05328    16.402976    -444.4946   -428.09162   -3178.4592   -5925.3851   -4220.3481    610.35554    15.482129    13.407924    26.767223     5556.426 
  177000      176.986    387.75035    15.938372   -444.00418   -428.06581   -2454.7878   -5955.3777   -1254.9023   -154.08336    15.482132    13.407926    26.767205    5556.4241 
  177500      177.486    374.52882    15.394905    -443.4336    -428.0387   -1670.3566   -3391.2546   -2516.8577    897.04257    15.482134    13.407928    26.767188    5556.4222 
  178000      177.986    388.93001    15.986862   -444.00046    -428.0136   -3701.4039   -7755.3094   -4119.1562    770.25397    15.482137     13.40793     26.76717    5556.4202 
  178500      178.486    408.12206    16.775745   -444.76393   -427.98818   -3440.8691   -7420.9545   -4398.0926    1496.4398    15.482139    13.407932    26.767153    5556.4183 
  179000      178.986    399.70947    16.429948   -444.39126   -427.96131   -2863.0248   -5810.4968   -3345.8377    567.25988    15.482141    13.407934    26.767135    5556.4164 
  179500      179.486    404.02994     16.60754   -444.54316   -427.93562   -2550.4345   -3296.2223     -3148.68   -1206.4011    15.482144    13.407936    26.767118    5556.4144 
  180000      179.986    389.96014    16.029205    -443.9386    -427.9094   -3076.5544   -5567.9811   -3681.9353    20.253106    15.482146    13.407938      26.7671    5556.4125 
  180500      180.486    390.85169    16.065852   -443.94903   -427.88318   -2012.9052   -5151.0468   -2113.7639    1226.0951    15.482148     13.40794    26.767083    5556.4105 
  181000      180.986    374.45076    15.391696   -443.24886   -427.85717   -1480.9715   -5249.9772   -210.59568    1017.6583    15.482151    13.407942    26.767065    5556.4086 
  181500      181.486    394.64271    16.221681   -444.05274   -427.83106    -2940.904   -5553.0971   -3501.8179    232.20315    15.482153    13.407944    26.767048    5556.4067 
  182000      181.986    402.36762    16.539211   -444.34425   -427.80504   -1437.3817   -2529.2166    -3679.516    1896.5874    15.482155    13.407946     26.76703    5556.4047 
  182500      182.486    406.58657     16.71263   -444.49186   -427.77923   -2526.0728    -5390.716   -4271.0573    2083.5548    15.482158    13.407948    26.767013    5556.4028 
  183000      182.986    401.34763    16.497284   -444.24992   -427.75263   -2820.0486   -6080.7725   -407.34617    -1972.027     15.48216     13.40795    26.766995    5556.4008 
  183500      183.486    394.68395    16.223376   -443.95027    -427.7269   -2273.0805   -3496.0818   -3840.0957    516.93602    15.482162    13.407952    26.766978    5556.3989 
  184000      183.986    387.65423    15.934421   -443.63461   -427.70019   -2042.3194   -3480.7364    102.01268   -2748.2346    15.482165    13.407954     26.76696     5556.397 
  184500      184.486    377.84014    15.531015   -443.20551   -427.67449   -3148.8889   -4583.4065   -3541.0806   -1322.1796    15.482167    13.407956    26.766943     5556.395 
  185000      184.986     405.0471     16.64935   -444.29771   -427.64836   -3084.9925   -3986.9891   -4687.5334   -580.45492    15.482169    13.407958    26.766925    5556.3931 
  185500      185.486    400.45325    16.460521   -444.08307   -427.62255   -3695.4246   -7504.8175   -2416.7462   -1164.7102    15.482172     13.40796    26.766908    5556.3911 
  186000      185.986    428.00741    17.593127   -445.18968   -427.59655   -3842.0684   -4440.4007   -3825.2504   -3260.5541    15.482174    13.407963     26.76689    5556.3892 
  186500      186.486    377.45416     15.51515    -443.0846   -427.56945   -1323.9211   -5606.3796   -3440.0452    5074.6616    15.482176    13.407965    26.766873    5556.3873 
  187000      186.986    418.18776    17.189493   -444.73331   -427.54382    -2907.848   -6996.1716   -4173.0813    2445.7089    15.482179    13.407967    26.766855    5556.3853 
  187500      187.486    398.42078    16.376977   -443.89414   -427.51716   -2870.2302    -8679.848   -2629.8045     2698.962    15.482181    13.407969    26.766838    5556.3834 
  188000      187.986    408.70114    16.799549   -444.28981   -427.49026   -2976.5529   -4506.0091   -5522.1535     1098.504    15.482184    13.407971     26.76682    5556.3814 
  188500      188.486    395.50537     16.25714    -443.7208   -427.46366   -1966.0727   -7808.1137   -1973.9605    3883.8562    15.482186    13.407973    26.766803    5556.3795 
  189000      188.986    394.10125    16.199424   -443.63686   -427.43744   -2455.1185   -5502.0003   -5380.0686    3516.7133    15.482188    13.407975    26.766785    5556.3776 
  189500      189.486    418.36972    17.196973   -444.60822   -427.41125   -2564.0658   -3534.0307   -6371.0996    2212.9329    15.482191    13.407977    26.766768    5556.3756 
  190000      189.986    406.36262    16.703424   -444.08813    -427.3847   -2026.4075   -7896.8279   -2279.1549    4096.7603    15.482193    13.407979     26.76675    5556.3737 
  190500      190.486    406.13271    16.693974   -444.05249   -427.35852   -2721.5605   -7339.9586     -382.234   -442.48893    15.482195    13.407981    26.766733    5556.3717 
  191000      190.986    397.88761    16.355061   -443.68741   -427.33235   -2066.0671   -7204.3468   -5107.6319    6113.7776    15.482198    13.407983    26.766715    5556.3698 
  191500      191.486    399.06267    16.403362   -443.70901   -427.30565   -512.16304   -3571.9564    -1109.987    3145.4543      15.4822    13.407985    26.766698    5556.3679 
  192000      191.986    419.41184    17.239809   -444.51968   -427.27987   -3271.5896   -7470.9745   -573.05772   -1770.7365    15.482202    13.407987     26.76668    5556.3659 
  192500      192.486    398.62717    16.385461   -443.63899   -427.25353   -2796.9536   -3667.7149    -4520.007   -203.13889    15.482205    13.407989    26.766663     5556.364 
  193000      192.986    414.63938    17.043638   -444.27038   -427.22674   -1308.8327   -5289.3575   -2943.3566    4306.2161    15.482207    13.407991    26.766645     5556.362 
  193500      193.486    407.09317    16.733453   -443.93353   -427.20008   -1823.9235   -7043.2446    702.15435    869.31961    15.482209    13.407993    26.766628    5556.3601 
  194000      193.986    404.85445    16.641431   -443.81489   -427.17346   -2150.5432   -5491.6522   -2396.5818    1436.6043    15.482212    13.407995     26.76661    5556.3582 
  194500      194.486    393.93154    16.192448   -443.33925    -427.1468   -2858.1898   -5674.7534   -6946.2158    4046.3998    15.482214    13.407997    26.766593    5556.3562 
  195000      194.986    399.08958    16.404468   -443.52453   -427.12006   -3381.9084   -7219.5764   -1322.2749   -1603.8739    15.482216    13.407999    26.766575    5556.3543 
  195500      195.486    416.52975    17.121341   -444.21474    -427.0934   -4099.4758   -10178.586   -3715.0872    1595.2461    15.482219    13.408001    26.766558    5556.3523 
  196000      195.986    393.27121    16.165305   -443.23252   -427.06722   -1871.6793   -7774.0937   -1719.8229    3878.8787    15.482221    13.408004     26.76654    5556.3504 
  196500      196.486    413.53574    16.998273   -444.03958    -427.0413   -2178.0714   -4096.1284    -5568.212    3130.1262    15.482223    13.408006    26.766523    5556.3485 
  197000      196.986    393.46038    16.173081   -443.18686   -427.01378   -536.42955   -2797.0784   -146.80249    1334.5922    15.482226    13.408008    26.766505    5556.3465 
  197500      197.486    388.79378    15.981262   -442.96834   -426.98708   -1946.1596   -7230.5635   -468.54547    1860.6301    15.482228     13.40801    26.766488    5556.3446 
  198000      197.986    415.09098    17.062201   -444.02277   -426.96057   -2658.5747   -5835.9287   -1695.8735   -443.92188    15.482231    13.408012     26.76647    5556.3426 
  198500      198.486    404.62709    16.632086   -443.56606   -426.93397    -2499.278   -6065.3223    -4915.621    3483.1091    15.482233    13.408014    26.766453    5556.3407 
  199000      198.986    413.64833    17.002902    -443.9097    -426.9068   -2498.5662    -4307.468   -5469.8413    2281.6107    15.482235    13.408016    26.766435    5556.3388 
  199500      199.486    403.57339    16.588774   -443.46937   -426.88059   -1590.3597   -9039.1928    57.685359    4210.4282    15.482238    13.408018    26.766418    5556.3368 
  200000      199.986    408.45054    16.789247   -443.64256   -426.85331   -1449.0421    -4159.796   -379.91676     192.5863     15.48224     13.40802      26.7664    5556.3349 
  200500      200.486     426.1984    17.518769   -444.34514   -426.82637    -2231.439   -7057.6913   -2920.7664    3284.1406    15.482242    13.408022    26.766383    5556.3329 
  201000      200.986    391.56514    16.095178   -442.89408   -426.79891   -1755.8145    -5591.441   -868.58952    1192.5869    15.482245    13.408024    26.766365     5556.331 
  201500      201.486    400.69983    16.470657   -443.24235   -426.77169   -2138.8784   -8595.9095   -2361.2225    4540.4968    15.482247    13.408026    26.766348    5556.3291 
  202000      201.986    423.94954     17.42633   -444.17207   -426.74574    -3400.518   -7267.3456   -1978.2796   -955.92877    15.482249    13.408028     26.76633    5556.3271 
  202500      202.486    405.54853    16.669961    -443.3893   -426.71934   -1493.9477   -3783.9713     -2555.26    1857.3883    15.482252     13.40803    26.766313    5556.3252 
  203000      202.986    404.80083    16.639227   -443.33172   -426.69249   -2501.6719   -4650.8043   -4418.0423     1563.831    15.482254    13.408032    26.766295    5556.3232 
  203500      203.486    414.16005    17.023935   -443.68905   -426.66511   -2182.1117   -3828.9893   -6879.3564    4162.0107    15.482256    13.408034    26.766278    5556.3213 
  204000      203.986    427.99743    17.592717   -444.23149   -426.63877    -3023.203   -5021.7352   -3755.9943   -291.87954    15.482259    13.408036     26.76626    5556.3194 
  204500      204.486    407.22665     16.73894   -443.35016   -426.61122   -2325.5523   -2455.4647   -4344.1791   -177.01321    15.482261    13.408038    26.766243    5556.3174 
  205000      204.986    433.02349    17.799312   -444.38416   -426.58484   -3150.6996    -6206.048   -6859.2636    3613.2129    15.482263     13.40804    26.766225    5556.3155 
  205500      205.486    426.48063     17.53037   -444.08754   -426.55717    -821.5948   -2981.4005   -1430.2456    1946.8617    15.482266    13.408042    26.766208    5556.3135 
  206000      205.986    406.53485    16.710504   -443.23994   -426.52943   -2836.3133   -5273.5433   -3873.6874    638.29076    15.482268    13.408045     26.76619    5556.3116 
  206500      206.486    407.25989    16.740306   -443.24233   -426.50202   -1682.3633   -6674.2716   -1776.9454    3404.1272     15.48227    13.408047    26.766173    5556.3097 
  207000      206.986    424.74005    17.458824   -443.93465   -426.47583   -2582.2313   -3746.0558    -1537.231    -2463.407    15.482273    13.408049    26.766155    5556.3077 
  207500      207.486    420.69573    17.292583   -443.74122   -426.44864   -2013.8409   -6300.1698   -1607.0175    1865.6646    15.482275    13.408051    26.766138    5556.3058 
  208000      207.986    409.15531    16.818217   -443.24009   -426.42187   -1760.2526   -7130.9764   -1873.6692    3723.8879    15.482278    13.408053     26.76612    5556.3038 
  208500      208.486    426.72769    17.540525   -443.93599   -426.39547    -3271.717   -5755.6043   -4277.1266    217.57999     15.48228    13.408055    26.766103    5556.3019 
  209000      208.986    429.19927    17.642119   -444.01076   -426.36864   -2661.9631   -7876.8831   -3183.4662      3074.46    15.482282    13.408057    26.766085       5556.3 
  209500      209.486    443.69973    18.238156    -444.5804   -426.34224   -2633.6732   -6000.5892   -922.98163   -977.44877    15.482285    13.408059    26.766068     5556.298 
  210000      209.986    424.78155    17.460529   -443.77588   -426.31535   -2228.9737   -6450.8642   -3297.4573    3061.4006    15.482287    13.408061     26.76605    5556.2961 
  210500      210.486    413.93442    17.014661   -443.30215   -426.28749   -2010.6443   -9312.7885   -348.53037     3629.386    15.482289    13.408063    26.766033    5556.2941 
  211000      210.986    405.00659    16.647685   -442.90777   -426.26009   -2044.4205    -7208.563   -3329.1889    4404.4904    15.482292    13.408065    26.766015    5556.2922 
  211500      211.486    416.84903    17.134465   -443.36758   -426.23311   -1948.2683   -4579.5501    -2696.806    1431.5512    15.482294    13.408067    26.765998    5556.2903 
  212000      211.986    396.45102    16.296011   -442.50112   -426.20511   -2504.9608   -5780.8364   -1199.3529    -534.6932    15.482296    13.408069     26.76598    5556.2883 
[...]
  948500      948.486    568.93531     23.38593   -437.98042   -414.59449    5185.3184   -625.44751    6208.1698    9973.2329    15.485758    13.411089    26.740203    5553.4287 
  949000      948.986    562.04879    23.102862   -437.69569   -414.59283    3674.3689    197.08098   -1681.3646     12507.39     15.48576    13.411091    26.740185    5553.4268 
  949500      949.486      579.361    23.814475   -438.40654   -414.59207    2249.1747   -2186.4956    1376.9556     7557.064    15.485763    13.411093    26.740168    5553.4248 
  950000      949.986    565.21284    23.232919   -437.82335   -414.59043    4144.4201    -763.1148    770.73946    12425.636    15.485765    13.411095     26.74015    5553.4229 
  950500      950.486    585.33465     24.06002   -438.64861   -414.58859    3184.8162   -121.54954    309.86478    9366.1334    15.485767    13.411097    26.740133     5553.421 
  951000      950.986    571.03282    23.472148   -438.05558   -414.58343     2056.407    762.82213   -1388.6522    6795.0509     15.48577    13.411099    26.740115     5553.419 
  951500      951.486    558.65772    22.963472   -437.54489   -414.58142     2037.922   -3544.5487    542.73058    9115.5842    15.485772    13.411101    26.740098    5553.4171 
  952000      951.986    565.14569    23.230159   -437.81079   -414.58063     2924.781   -1421.2768   -2978.1318    13173.752    15.485774    13.411103     26.74008    5553.4151 
  952500      952.486    573.13523    23.558567   -438.13591   -414.57734    3016.7618   -2166.3433    691.15559    10525.473    15.485777    13.411105    26.740063    5553.4132 
  953000      952.986    559.13536    22.983106   -437.55937   -414.57626    2786.8737   -3553.9076    1772.3723    10142.156    15.485779    13.411107    26.740045    5553.4112 
  953500      953.486    566.54136    23.287527   -437.86016   -414.57263    4405.4878   -543.38113    1461.9817    12297.863    15.485781    13.411109    26.740028    5553.4093 
  954000      953.986    554.01516    22.772642   -437.33959   -414.56695    1768.5095   -5441.2277    2665.3377    8081.4185    15.485784    13.411111     26.74001    5553.4074 
  954500      954.486    565.94012    23.262814   -437.82779   -414.56498    4703.6079    3691.9715    1734.1199    8684.7323    15.485786    13.411113    26.739993    5553.4054 
  955000      954.986    589.94998    24.249732   -438.81252   -414.56279    4023.2682   -1051.4244    766.66015    12354.569    15.485788    13.411115    26.739975    5553.4035 
  955500      955.486     560.8931    23.055357   -437.61473   -414.55937    3542.4386   -2141.3387   -1274.3012    14042.956    15.485791    13.411117    26.739958    5553.4015 
  956000      955.986    582.13542    23.928517   -438.48476   -414.55624    3201.1285    729.86282    172.41639    8701.1062    15.485793     13.41112     26.73994    5553.3996 
  956500      956.486    567.78466    23.338633   -437.89044   -414.55181    2749.5491   -5072.8122    4016.7996    9304.6598    15.485795    13.411122    26.739923    5553.3976 
  957000      956.986    567.85269    23.341429   -437.89099   -414.54956    2622.1258   -4869.9864    2942.9952    9793.3686    15.485798    13.411124    26.739905    5553.3957 
  957500      957.486    601.12378    24.709028   -439.25647   -414.54744    390.98321    -4090.876    567.45001    4696.3756      15.4858    13.411126    26.739888    5553.3938 
  958000      957.986    602.76152    24.776347    -439.3192   -414.54285      1506.59   -4550.1988    1674.9971    7394.9716    15.485803    13.411128     26.73987    5553.3918 
  958500      958.486    537.87728    22.109298   -436.64723   -414.53793    4245.0609   -1383.7034    3422.1569    10696.729    15.485805     13.41113    26.739853    5553.3899 
  959000      958.986    559.58229    23.001477   -437.53882   -414.53734    3614.9839   -3019.9795    2601.7924    11263.139    15.485807    13.411132    26.739835    5553.3879 
  959500      959.486     569.4668    23.407777   -437.94049   -414.53272    4285.5469   -3209.2272     2029.118     14036.75     15.48581    13.411134    26.739818     5553.386 
  960000      959.986    554.87287    22.807898   -437.33579   -414.52789    3027.0829    -2140.145    837.56153    10383.832    15.485812    13.411136      26.7398     5553.384 
  960500      960.486    545.50432    22.422805   -436.94677   -414.52397    4379.3156   -1154.5655    2926.8795    11365.633    15.485814    13.411138    26.739783    5553.3821 
  961000      960.986    599.56425    24.644924   -439.16557   -414.52065     2600.253   -3396.3726    2758.3697     8438.762    15.485817     13.41114    26.739765    5553.3802 
  961500      961.486    563.73096    23.172007    -437.6876   -414.51559    2601.0263   -5981.9856    1790.7119    11994.352    15.485819    13.411142    26.739748    5553.3782 
  962000      961.986     579.3395    23.813591   -438.32556   -414.51197    3373.5559    43.899053    2999.6936     7077.075    15.485821    13.411144     26.73973    5553.3763 
  962500      962.486    532.92362    21.905679   -436.41455   -414.50887    5419.0595    144.42906    1830.0675    14282.682    15.485824    13.411146    26.739713    5553.3743 
  963000      962.986    599.90332    24.658862   -439.16359   -414.50472    2751.8232   -4621.4098    4799.9834    8076.8961    15.485826    13.411148    26.739695    5553.3724 
  963500      963.486    587.70807    24.157579   -438.65678    -414.4992    3661.1577   -2965.6029    796.66166    13152.414    15.485828     13.41115    26.739678    5553.3704 
  964000      963.986    559.49166    22.997751   -437.49284   -414.49509    5541.1419    2823.8901    2018.0085    11781.527    15.485831    13.411152     26.73966    5553.3685 
  964500      964.486    574.20757    23.602645   -438.09389   -414.49124    1683.0799   -2669.5412   -1052.3606    8771.1416    15.485833    13.411154    26.739643    5553.3666 
  965000      964.986     592.4936    24.354287   -438.84332   -414.48903    3289.6496   -3464.2574     3370.216    9962.9903    15.485835    13.411156    26.739625    5553.3646 
  965500      965.486    587.99049    24.169188   -438.65338   -414.48419    2458.8862   -2635.9186    2934.9098    7077.6672    15.485838    13.411158    26.739608    5553.3627 
  966000      965.986    561.17244     23.06684   -437.54707   -414.48023    3492.5683   -6179.7224    2585.5902    14071.837     15.48584    13.411161     26.73959    5553.3607 
  966500      966.486    530.34326    21.799614   -436.27392   -414.47431    2564.0161   -541.85613   -326.61946    8560.5238    15.485842    13.411163    26.739573    5553.3588 
  967000      966.986     585.7236    24.076008   -438.54631    -414.4703    3349.2815   -60.669093    837.95383    9270.5598    15.485845    13.411165    26.739555    5553.3568 
  967500      967.486    544.06704    22.363727   -436.82855   -414.46483    5474.7999    2614.2105    2146.8532    11663.336    15.485847    13.411167    26.739538    5553.3549 
  968000      967.986     558.2508    22.946746   -437.40807   -414.46133    3422.7524   -1072.1697    540.85506    10799.572     15.48585    13.411169     26.73952     5553.353 
  968500      968.486    547.29567    22.496438   -436.95268   -414.45624    4179.4923   -1427.5453    2307.7939    11658.228    15.485852    13.411171    26.739503     5553.351 
  969000      968.986    587.77729    24.160425   -438.61244   -414.45201    3428.7447   -1503.6757    1070.4615    10719.448    15.485854    13.411173    26.739485    5553.3491 
  969500      969.486    571.79331    23.503408    -437.9504   -414.44699    4017.2964   -4170.2978    3187.5366     13034.65    15.485857    13.411175    26.739468    5553.3471 
  970000      969.986    602.44553    24.763359   -439.20456    -414.4412    2781.0426   -1156.7677   -3444.6864    12944.582    15.485859    13.411177     26.73945    5553.3452 
  970500      970.486    560.56591    23.041908   -437.47889   -414.43698    3601.1436   -1580.1228   -505.57329    12889.127    15.485861    13.411179    26.739433    5553.3432 
  971000      970.986    555.79758    22.845907   -437.27838   -414.43247     4187.496    189.67102     2204.995    10167.822    15.485864    13.411181    26.739415    5553.3413 
  971500      971.486    579.55144    23.822303   -438.24935   -414.42705    3944.2532   -1451.3631    994.50042    12289.622    15.485866    13.411183    26.739398    5553.3394 
  972000      971.986    579.78611    23.831949   -438.25459   -414.42264    2039.6222   -4483.8919    1300.7518    9302.0067    15.485868    13.411185     26.73938    5553.3374 
  972500      972.486    566.03166    23.266576    -437.6828   -414.41623    5318.5765   -791.25475    3854.6246     12892.36    15.485871    13.411187    26.739363    5553.3355 
  973000      972.986     545.9519    22.441203   -436.85233   -414.41112    4368.5553   -1380.6122    3300.6245    11185.654    15.485873    13.411189    26.739345    5553.3335 
  973500      973.486    551.69538    22.677287   -437.08206   -414.40477    4405.2407   -969.71927    6513.3754    7672.0659    15.485875    13.411191    26.739328    5553.3316 
  974000      973.986    555.10647    22.817499   -437.21865   -414.40115    3765.4436   -2884.2018     4534.527    9646.0055    15.485878    13.411193     26.73931    5553.3296 
  974500      974.486    576.12455    23.681442   -438.07719   -414.39574    3079.5443   -2119.9442    1723.1865    9635.3907     15.48588    13.411195    26.739293    5553.3277 
  975000      974.986    568.99678    23.388457      -437.78   -414.39154    3600.9088    2137.2368    2839.2461    5826.2436    15.485882    13.411197    26.739275    5553.3258 
  975500      975.486    555.93036    22.851365   -437.23801   -414.38665    3223.1483     -1799.81    1657.3293    9811.9255    15.485885    13.411199    26.739258    5553.3238 
  976000      975.986    575.11808    23.640071   -438.02054   -414.38047    3083.1883   -1837.4271   -2100.1569    13187.149    15.485887    13.411202     26.73924    5553.3219 
  976500      976.486    564.67763    23.210919   -437.58454   -414.37362    4238.4337   -2031.1415    399.90067    14346.542    15.485889    13.411204    26.739223    5553.3199 
  977000      976.986    565.51298    23.245256   -437.61362   -414.36837    2502.7522   -6638.1263    5191.0067    8955.3763    15.485892    13.411206    26.739205     5553.318 
  977500      977.486    570.31666     23.44271   -437.80622   -414.36351    3767.3821   -364.13941    443.50266    11222.783    15.485894    13.411208    26.739188     5553.316 
  978000      977.986     566.0362    23.266763   -437.62236    -414.3556    3494.7936    3129.3345     244.9887    7110.0574    15.485897     13.41121     26.73917    5553.3141 
  978500      978.486     589.3663     24.22574   -438.57527   -414.34953    1600.4139   -1459.1153    321.64355    5938.7135    15.485899    13.411212    26.739153    5553.3122 
  979000      978.986    558.91591    22.974085   -437.31672   -414.34264    3623.5214   -2701.1473    44.925486    13526.786    15.485901    13.411214    26.739135    5553.3102 
  979500      979.486    578.15923    23.765077   -438.10038    -414.3353    1614.0763   -1689.9861   -931.10251    7463.3177    15.485904    13.411216    26.739118    5553.3083 
  980000      979.986    544.82748    22.394984   -436.72354   -414.32856    4412.7094   -2248.3548   -1744.9999    17231.483    15.485906    13.411218      26.7391    5553.3063 
  980500      980.486    586.64528    24.113894   -438.43541   -414.32151    2205.3637   -3008.8494   -1196.9335    10821.874    15.485908     13.41122    26.739083    5553.3044 
  981000      980.986     568.3775    23.363002   -437.67926   -414.31626    4234.5367   -1110.3641   -517.89805    14331.872    15.485911    13.411222    26.739065    5553.3024 
  981500      981.486    565.45744    23.242973   -437.55057    -414.3076    3507.7053    -2073.859   -612.58982    13209.565    15.485913    13.411224    26.739048    5553.3005 
  982000      981.986    570.90106    23.466732   -437.76873     -414.302    3168.8471   -2449.8074    728.73128    11227.617    15.485915    13.411226     26.73903    5553.2986 
  982500      982.486    567.92304    23.344321   -437.64033   -414.29601    5711.6285   -852.46093    6391.3628    11595.984    15.485918    13.411228    26.739013    5553.2966 
  983000      982.986    576.79267    23.708905    -437.9981   -414.28919    2746.8488   -109.17824    226.99615    8122.7284     15.48592     13.41123    26.738995    5553.2947 
  983500      983.486    581.56265    23.904974   -438.18527    -414.2803    2593.2733   -3020.2933    616.42062    10183.693    15.485922    13.411232    26.738978    5553.2927 
  984000      983.986    556.12051    22.859181   -437.13345   -414.27427    3752.3472   -575.39062    120.33957    11712.093    15.485925    13.411234     26.73896    5553.2908 
  984500      984.486    575.02076    23.636071   -437.90534   -414.26927    4590.6403   -4965.4429    4501.4168    14235.947    15.485927    13.411236    26.738943    5553.2888 
  985000      984.986    576.80352    23.709351   -437.97162   -414.26227    4511.4671    1439.5414     3016.375     9078.485    15.485929    13.411238    26.738925    5553.2869 
  985500      985.486    543.14323    22.325754   -436.58099   -414.25524    3407.3639   -1328.0806    4088.5105    7461.6617    15.485932     13.41124    26.738908     5553.285 
  986000      985.986    576.64132    23.702684   -437.95171   -414.24902    4910.9849   -1245.1279    4689.1587    11288.924    15.485934    13.411243     26.73889     5553.283 
  986500      986.486    554.00295     22.77214   -437.01539   -414.24325    5643.8254    933.21681     5334.717    10663.542    15.485936    13.411245    26.738873    5553.2811 
  987000      986.986    557.30759    22.907976   -437.14361   -414.23563    3117.8333    924.91515   -459.16617    8887.7508    15.485939    13.411247    26.738855    5553.2791 
  987500      987.486    557.79112    22.927851   -437.15597   -414.22812    3285.1262    1977.8636    721.64926    7155.8657    15.485941    13.411249    26.738838    5553.2772 
  988000      987.986     557.4203    22.912609   -437.13491    -414.2223    4710.1287   -1467.4209    3569.3365     12028.47    15.485944    13.411251     26.73882    5553.2752 
  988500      988.486    584.02446    24.006166   -438.22127    -414.2151    2066.1601   -2392.5088    1012.6506    7578.3385    15.485946    13.411253    26.738803    5553.2733 
  989000      988.986    550.06383    22.610223   -436.81729   -414.20706     4087.702    519.42909    2695.4787    9048.1981    15.485948    13.411255    26.738785    5553.2714 
  989500      989.486    589.00999    24.211094   -438.41097   -414.19987    3386.5599   -1315.6802   -991.31247    12466.672    15.485951    13.411257    26.738768    5553.2694 
  990000      989.986    568.27759    23.358895   -437.55099   -414.19209    4087.8967    529.32385    1210.8822    10523.484    15.485953    13.411259     26.73875    5553.2675 
  990500      990.486    571.44752    23.489194   -437.67471   -414.18551    3783.4738   -3552.7576    4449.4994     10453.68    15.485955    13.411261    26.738733    5553.2655 
  991000      990.986    584.18066    24.012586   -438.19181   -414.17922    3144.2247     408.2297     821.1991    8203.2454    15.485958    13.411263    26.738715    5553.2636 
  991500      991.486    567.91483    23.343983   -437.51482   -414.17084    2685.5659   -85.502885   -421.00469    8563.2053     15.48596    13.411265    26.738698    5553.2616 
  992000      991.986    599.80413    24.654784   -438.81834   -414.16355    2040.6065   -2164.6471   -299.57832    8586.0448    15.485962    13.411267     26.73868    5553.2597 
  992500      992.486    581.46007    23.900757   -438.05639   -414.15563    2831.4349   -2161.4995    2736.1212    7919.6829    15.485965    13.411269    26.738663    5553.2578 
  993000      992.986    564.80679    23.216229   -437.36469   -414.14846    3220.2676     768.2233    597.53946    8295.0399    15.485967    13.411271    26.738645    5553.2558 
  993500      993.486    563.23134     23.15147    -437.2915   -414.14003    5083.3427   -1696.7665    3128.5214    13818.273    15.485969    13.411273    26.738628    5553.2539 
  994000      993.986    552.77086    22.721495   -436.85281   -414.13132    3520.8776    -2050.557    1972.7317    10640.458    15.485972    13.411275     26.73861    5553.2519 
  994500      994.486    573.87054    23.588791   -437.71365   -414.12486    2767.2751   -1262.4561    2419.9951    7144.2863    15.485974    13.411277    26.738593      5553.25 
  995000      994.986    591.90921    24.330266   -438.44745   -414.11718    3235.4121     947.5453    648.84352    8109.8474    15.485976    13.411279    26.738575     5553.248 
  995500      995.486    576.41607    23.693425   -437.80362    -414.1102    3243.8788   -2282.0296    7187.6976    4825.9684    15.485979    13.411281    26.738558    5553.2461 
  996000      995.986    546.78315    22.475372   -436.57677    -414.1014    3919.2396   -723.73266    620.06272    11861.389    15.485981    13.411284     26.73854    5553.2442 
  996500      996.486    593.82898    24.409177   -438.50313   -414.09395    2768.7294    -5005.735     4771.887    8540.0363    15.485983    13.411286    26.738523    5553.2422 
  997000      996.986    573.89684    23.589873   -437.67524   -414.08537     2558.353   -2043.5521    158.48386    9560.1272    15.485986    13.411288    26.738505    5553.2403 
  997500      997.486    545.95524    22.441341   -436.51747   -414.07613    4716.6308    -1031.052    1292.9261    13888.018    15.485988     13.41129    26.738488    5553.2383 
  998000      997.986    586.38805     24.10332   -438.17256   -414.06924    3251.5302     163.3549    2703.5455    6887.6902    15.485991    13.411292     26.73847    5553.2364 
  998500      998.486    545.03108    22.403353   -436.46377   -414.06041    5393.0104   -6175.4523    6376.1442    15978.339    15.485993    13.411294    26.738453    5553.2344 
  999000      998.986    566.86246    23.300726   -437.35106   -414.05033    4694.5265   -1582.9223    2735.1956    12931.306    15.485995    13.411296    26.738435    5553.2325 
  999500      999.486    549.05266    22.568659   -436.61003   -414.04137    3488.5236   -4880.5352    1997.9188    13348.187    15.485998    13.411298    26.738418    5553.2306 
 1000000      999.986    568.14413    23.353409   -437.38619   -414.03278    3871.5992   -542.68073    3426.7567    8730.7217       15.486      13.4113      26.7384    5553.2286 
 1000014         1000    590.63894    24.278052   -438.31234   -414.03429    3163.7306   -2012.3775    2329.2591    9174.3103       15.486      13.4113      26.7384    5553.2286 
Loop time of 918.14 on 28 procs for 1000000 steps with 319 atoms

Performance: 94.103 ns/day, 0.255 hours/ns, 1089.158 timesteps/s
87.2% CPU use with 28 MPI tasks x no OpenMP threads

MPI task timing breakdown:
Section |  min time  |  avg time  |  max time  |%varavg| %total
---------------------------------------------------------------
Pair    | 745.22     | 799.24     | 828.27     |  75.5 | 87.05
Neigh   | 0.018591   | 0.0312     | 0.043281   |   3.3 |  0.00
Comm    | 79.206     | 106.63     | 159.73     | 199.5 | 11.61
Output  | 0.10101    | 0.10341    | 0.12474    |   1.3 |  0.01
Modify  | 4.8614     | 6.9937     | 10.819     |  65.9 |  0.76
Other   |            | 5.137      |            |       |  0.56

Nlocal:    11.3929 ave 15 max 6 min
Histogram: 2 0 4 2 1 3 5 3 5 3
Nghost:    647.679 ave 675 max 601 min
Histogram: 2 2 0 1 1 3 6 4 7 2
Neighs:    717.25 ave 954 max 379 min
Histogram: 2 1 3 2 1 3 6 1 4 5
FullNghs:  1434.5 ave 1910 max 737 min
Histogram: 2 0 4 2 1 3 5 3 5 3

Total # of neighbors = 40166
Ave neighs/atom = 125.912
Neighbor list builds = 459
Dangerous builds = 0

write_restart   POSCAR_1x1x1.rest

#unfix    1
#undump   1
Total wall time: 0:15:18
