LAMMPS (7 Dec 2015)
#----------- Initialize Simulation ------------ restart01
#processors	2 2 2
units		metal
boundary	p p p     ## periodic boundary condition  on x y z axis ##
atom_style atomic
#atom_modify map array sort 0 0.0

read_data	POSCAR_1x1x1.lammps
  triclinic box = (0 0 0) to (15.3671 13.3083 27.6132) with tilt (-7.68345 0 0)
  2 by 2 by 7 MPI processor grid
  reading atoms ...
  319 atoms

#----------- Define Potential -----------------
pair_style meam
pair_coeff * * MgAlZn.library.meam Mg Al Zn MgAlZn.parameter.meam Mg Al Zn 	#1=Mg 2=Al 3=Zn	#atoms/mass

#----------- Neighbor List --------------------
neighbor 2.0 bin
neigh_modify delay 10 check yes

#--------------  Run a simulation (minimization) ---------------------------------------
minimize       1.0e-4   1.0e-6   100   1000          #結構優化的條件
WARNING: Resetting reneighboring criteria during minimization (../min.cpp:168)
Neighbor list info ...
  2 neighbor list requests
  update every 1 steps, delay 0 steps, check yes
  max neighbors/atom: 2000, page size: 100000
  master list distance cutoff = 8
  ghost atom cutoff = 8
  binsize = 4 -> bins = 6 4 7
Memory usage per processor = 8.65604 Mbytes
Step Temp E_pair E_mol TotEng Press 
       0            0    -434.5348            0    -434.5348   -5231.3847 
      15            0   -456.60962            0   -456.60962   -21797.932 
Loop time of 0.0236293 on 28 procs for 15 steps with 319 atoms

86.7% CPU use with 28 MPI tasks x no OpenMP threads

Minimization stats:
  Stopping criterion = energy tolerance
  Energy initial, next-to-last, final = 
        -434.534804656     -456.566310071     -456.609616414
  Force two-norm initial, final = 20.1802 0.861988
  Force max component initial, final = 5.05156 0.202537
  Final line search alpha, max atom move = 0.498589 0.100983
  Iterations, force evaluations = 15 25

MPI task timing breakdown:
Section |  min time  |  avg time  |  max time  |%varavg| %total
---------------------------------------------------------------
Pair    | 0.019644   | 0.020326   | 0.021267   |   0.3 | 86.02
Neigh   | 0          | 0          | 0          |   0.0 |  0.00
Comm    | 0.0014739  | 0.0023504  | 0.0030448  |   0.9 |  9.95
Output  | 0          | 0          | 0          |   0.0 |  0.00
Modify  | 0          | 0          | 0          |   0.0 |  0.00
Other   |            | 0.0009531  |            |       |  4.03

Nlocal:    11.3929 ave 17 max 7 min
Histogram: 2 3 2 4 5 3 2 3 2 2
Nghost:    645.786 ave 690 max 591 min
Histogram: 3 3 1 3 3 2 1 3 4 5
Neighs:    701.429 ave 1093 max 420 min
Histogram: 3 4 1 7 3 3 3 2 0 2
FullNghs:  1402.86 ave 2124 max 861 min
Histogram: 4 3 3 5 3 3 1 3 1 2

Total # of neighbors = 39280
Ave neighs/atom = 123.135
Neighbor list builds = 0
Dangerous builds = 0
velocity all  create 600.0 4928459 #rot yes dist gaussian

#--------------  Run a simulation (Relaxation)  ----------------------------------------
fix  1  all  nvt   temp  600.0  600.0  100				#damping constant
#fix  2  all  npt   temp  393.0  393.0  50 iso 0.0 0.0 1000.0
fix  2  all deform 1 x final 0 15.3719 y final 0 13.3124 z final 0 27.5782 xy final -7.68585 units lattice
#fix  3  all  npt   temp  393.0  393.0  50 z 0.0 0.0 1000.0

#variable b equal 1
#fix 2 all efield  0.0  0.0  v_b
#compute pot all pe/atom


#----------- Output --------------------------
thermo	 500
timestep  0.001		#1.0 fs
thermo_style	custom step time temp ke pe etotal press pxx pyy pzz lx ly lz vol

dump 1 all custom 10000 dump.eq id type x y z
dump_modify 1 sort  id

run        1000000	#1000 ps
Neighbor list info ...
  2 neighbor list requests
  update every 1 steps, delay 10 steps, check yes
  max neighbors/atom: 2000, page size: 100000
  master list distance cutoff = 8
  ghost atom cutoff = 8
  binsize = 4 -> bins = 6 4 7
Memory usage per processor = 7.56286 Mbytes
Step Time Temp KinEng PotEng TotEng Press Pxx Pyy Pzz Lx Ly Lz Volume 
      15            0          600    24.662836   -456.60962   -431.94678   -17133.156   -10737.011   -8778.8078   -31883.648      15.3671      13.3083      27.6132    5647.1749 
     500        0.485     315.9017    12.985053   -444.92819   -431.94314   -9228.8828   -4728.2009   -1190.5604   -21767.887    15.367102    13.308302    27.613183    5647.1731 
    1000        0.985    314.69794    12.935573   -444.87943   -431.94386   -11998.757   -4364.3312   -3789.6541   -27842.285    15.367105    13.308304    27.613166    5647.1713 
    1500        1.485    324.43515    13.335818   -445.27905   -431.94323   -10140.633    -4043.544   -1419.5773   -24958.777    15.367107    13.308306    27.613148    5647.1695 
    2000        1.985    320.77994    13.185572   -445.12749   -431.94192   -11091.194    -2075.643   -4263.0468   -26934.893     15.36711    13.308308    27.613131    5647.1676 
    2500        2.485     329.2364    13.533172   -445.47384   -431.94067    -10563.43   -6292.6104   -1703.6202   -23694.059    15.367112     13.30831    27.613113    5647.1658 
    3000        2.985    317.09102    13.033939   -444.97305   -431.93911   -11354.055   -5545.8462   -3969.4928   -24546.827    15.367114    13.308312    27.613096     5647.164 
    3500        3.485    307.90597     12.65639   -444.59324   -431.93685    -9487.311   -4321.3692   -2261.8645   -21878.699    15.367117    13.308314    27.613078    5647.1622 
    4000        3.985    328.73221    13.512447   -445.44747   -431.93502    -10723.62   -3908.6162   -4131.3578   -24130.887    15.367119    13.308316    27.613061    5647.1603 
    4500        4.485    321.47657    13.214206   -445.14618   -431.93197   -10919.833   -3714.4078   -212.09362   -28832.997    15.367122    13.308318    27.613043    5647.1585 
    5000        4.985    319.75484    13.143435   -445.07255   -431.92911    -10860.38   -2637.9078   -1927.7319   -28015.501    15.367124     13.30832    27.613026    5647.1567 
    5500        5.485    296.39591    12.183273   -444.10867    -431.9254   -9522.8902   -1122.3387   -2330.2634   -25116.069    15.367126    13.308322    27.613008    5647.1549 
    6000        5.985    329.23674    13.533186   -445.45603   -431.92285   -10068.646   -4132.3396   -1455.8319   -24617.767    15.367129    13.308325    27.612991     5647.153 
    6500        6.485    320.42634    13.171037   -445.09001   -431.91897   -10456.746    -4449.829   -1744.6173   -25175.793    15.367131    13.308327    27.612973    5647.1512 
    7000        6.985    323.69792    13.305515   -445.22038   -431.91486   -10900.724   -4918.3673   -2915.9945    -24867.81    15.367134    13.308329    27.612956    5647.1494 
    7500        7.485    321.81484    13.228111   -445.13895   -431.91084   -11141.927   -6376.6675   -1324.3774   -25724.737    15.367136    13.308331    27.612938    5647.1475 
    8000        7.985    313.86689    12.901412    -444.8072   -431.90579    -10434.03   -3725.8474    383.86398   -27960.106    15.367138    13.308333    27.612921    5647.1457 
    8500        8.485     310.2866    12.754246   -444.65468   -431.90044   -10584.323   -5465.0683   -920.88714   -25367.014    15.367141    13.308335    27.612903    5647.1439 
    9000        8.985    340.97938    14.015864   -445.91152   -431.89566   -11243.506   -3459.0985   -2144.9486    -28126.47    15.367143    13.308337    27.612886    5647.1421 
    9500        9.485     313.7694    12.897405   -444.78689   -431.88948   -9965.4242    -4395.864    -1802.292   -23698.117    15.367146    13.308339    27.612868    5647.1402 
   10000        9.985    321.10622    13.198983   -445.08271   -431.88372   -11293.347   -4462.5428   -1206.8871   -28210.611    15.367148    13.308341    27.612851    5647.1384 
   10500       10.485    321.19741    13.202732   -445.07996   -431.87723   -9953.8898   -3400.7986   -1607.5828   -24853.288     15.36715    13.308343    27.612833    5647.1366 
   11000       10.985    312.98611    12.865208   -444.73577   -431.87057   -9685.8163   -2892.9415   -405.84869   -25758.659    15.367153    13.308345    27.612816    5647.1348 
   11500       11.485    341.14396    14.022629   -445.88709   -431.86447   -10678.617   -2109.1893   -4483.7404   -25442.922    15.367155    13.308347    27.612798    5647.1329 
   12000       11.985    317.37466    13.045599   -444.90214   -431.85654   -10166.812   -1787.0946   -2947.3538   -25765.987    15.367158    13.308349    27.612781    5647.1311 
   12500       12.485    325.09695    13.363021   -445.21234   -431.84932   -10654.616   -4958.0252   -2362.7962   -24643.028     15.36716    13.308351    27.612763    5647.1293 
   13000       12.985    319.02076    13.113261   -444.95445   -431.84119   -9976.9526   -3605.0634   -2269.1313   -24056.663    15.367162    13.308353    27.612746    5647.1274 
   13500       13.485    315.36863    12.963141   -444.79605   -431.83291   -10719.511   -5024.3357   -2482.4194   -24651.778    15.367165    13.308355    27.612728    5647.1256 
   14000       13.985    317.43891    13.048239    -444.8728   -431.82456     -11195.6   -4430.5842   -1189.6841   -27966.531    15.367167    13.308357    27.612711    5647.1238 
   14500       14.485    329.22721    13.532794    -445.3486    -431.8158   -11755.818   -2054.1065   -1981.9992   -31231.349     15.36717    13.308359    27.612693     5647.122 
   15000       14.985     332.5061    13.667572   -445.47469   -431.80712   -10479.991   -3846.2564   -3198.9225   -24394.794    15.367172    13.308361    27.612676    5647.1201 
   15500       15.485    321.16861    13.201548     -444.999   -431.79745   -10559.294   -1692.8888   -898.64183   -29086.352    15.367174    13.308363    27.612658    5647.1183 
   16000       15.985    305.98137     12.57728   -444.36465   -431.78737   -11239.058   -2877.4249   -2504.8842   -28334.866    15.367177    13.308366    27.612641    5647.1165 
   16500       16.485    309.93114    12.739635   -444.51717   -431.77753   -10348.462   -3450.5678   -2181.0363   -25413.781    15.367179    13.308368    27.612623    5647.1147 
   17000       16.985    320.48305    13.173368   -444.94066   -431.76729   -10880.353   -2775.0095   -3033.3047   -26832.745    15.367182     13.30837    27.612606    5647.1128 
   17500       17.485    312.34186    12.838727    -444.5954   -431.75667   -9401.0945   -2445.5972   -2610.4755   -23147.211    15.367184    13.308372    27.612588     5647.111 
   18000       17.985    308.19282    12.668181    -444.4137   -431.74552    -9623.439   -3222.0272   -170.76422   -25477.525    15.367186    13.308374    27.612571    5647.1092 
   18500       18.485    313.87652    12.901808   -444.63648   -431.73467   -10289.713   -2252.8534   -3150.4001   -25465.886    15.367189    13.308376    27.612553    5647.1073 
   19000       18.985    312.55303    12.847407   -444.57045   -431.72304   -11046.514   -5841.2252   -2964.8258   -24333.492    15.367191    13.308378    27.612536    5647.1055 
   19500       19.485    324.61923    13.343384   -445.05521   -431.71182   -10667.346   -4206.9378   -2405.3973   -25389.702    15.367194     13.30838    27.612518    5647.1037 
   20000       19.985    312.54909    12.847245   -444.54628   -431.69904   -11548.604   -4280.7959   -2570.0016   -27795.015    15.367196    13.308382    27.612501    5647.1019 
   20500       20.485    324.63974    13.344227   -445.03166   -431.68744   -11320.458   -5261.1242   -4190.6203   -24509.629    15.367198    13.308384    27.612483       5647.1 
   21000       20.985    322.08446    13.239193   -444.91373   -431.67454   -10828.935   -2499.1892   -2434.5424   -27553.075    15.367201    13.308386    27.612466    5647.0982 
   21500       21.485    314.15744    12.913356   -444.57518   -431.66183   -10220.926   -4307.3546   -2812.8014   -23542.621    15.367203    13.308388    27.612448    5647.0964 
   22000       21.985     330.8807    13.600761   -445.24944   -431.64868   -11671.006   -5084.3582   -1368.3053   -28560.354    15.367206     13.30839    27.612431    5647.0946 
   22500       22.485    299.04456    12.292145   -443.92685   -431.63471   -10266.758   -3021.0723   -3441.1947   -24338.006    15.367208    13.308392    27.612413    5647.0927 
   23000       22.985    320.66492    13.180844   -444.80231   -431.62146   -9832.4769   -1298.6427   -3120.3666   -25078.422     15.36721    13.308394    27.612396    5647.0909 
   23500       23.485    318.48444    13.091216    -444.6985   -431.60729   -11203.248   -4741.5344   -829.86556   -28038.344    15.367213    13.308396    27.612378    5647.0891 
   24000       23.985    317.56429    13.053393   -444.64613   -431.59273   -9710.6968   -3246.6508   -2354.6898    -23530.75    15.367215    13.308398    27.612361    5647.0872 
   24500       24.485     323.4447    13.295106   -444.87346   -431.57836    -9511.316   -2669.5655   -533.24658   -25331.136    15.367218      13.3084    27.612343    5647.0854 
   25000       24.985    339.51122    13.955516   -445.51958   -431.56406   -11067.432   -5319.6903   -4639.8742   -23242.732     15.36722    13.308402    27.612326    5647.0836 
   25500       25.485    329.65176    13.550245   -445.09849   -431.54824   -10225.026   -2666.0965   -4105.5071   -23903.474    15.367222    13.308404    27.612308    5647.0818 
   26000       25.985    323.33569    13.290625   -444.82399   -431.53336   -11028.247   -4694.0465   -1899.5824   -26491.113    15.367225    13.308407    27.612291    5647.0799 
   26500       26.485    325.61544    13.384334   -444.90211   -431.51778   -9667.4431   -1241.0677   -1648.9076   -26112.354    15.367227    13.308409    27.612273    5647.0781 
   27000       26.985     312.1176    12.829509   -444.33117   -431.50166   -9894.3914   -792.10222    -2936.804   -25954.268     15.36723    13.308411    27.612256    5647.0763 
   27500       27.485    322.07068    13.238627   -444.72461   -431.48599   -9981.5594   -3935.2232   -1264.8291   -24744.626    15.367232    13.308413    27.612238    5647.0745 
   28000       27.985    318.27613    13.082653   -444.55231   -431.46965   -11515.571   -6567.7771   -4242.9015   -23736.034    15.367234    13.308415    27.612221    5647.0726 
   28500       28.485    314.85858    12.942176   -444.39534   -431.45317   -10590.544   -5551.9454   -99.730152   -26119.957    15.367237    13.308417    27.612203    5647.0708 
   29000       28.985    310.63635    12.768622   -444.20493   -431.43631   -10194.804   -4209.8339    658.03367   -27032.612    15.367239    13.308419    27.612186     5647.069 
   29500       29.485    320.01227    13.154017   -444.57361   -431.41959   -9963.6012   -3589.4749   -1964.2009   -24337.128    15.367242    13.308421    27.612168    5647.0671 
   30000       29.985    346.28731    14.234045   -445.63703   -431.40299   -11297.202   -7160.3013    -877.4953    -25853.81    15.367244    13.308423    27.612151    5647.0653 
   30500       30.485    323.84081    13.311388   -444.69643   -431.38504   -11228.653   -3802.2701   -3127.5168   -26756.171    15.367246    13.308425    27.612133    5647.0635 
   31000       30.985    306.81583    12.611581   -443.97924   -431.36766   -10711.376   -4140.7621   -2013.5051   -25979.862    15.367249    13.308427    27.612116    5647.0617 
   31500       31.485    323.09644    13.280791   -444.63138   -431.35058   -10602.065   -4330.4518   -1697.2908   -25778.452    15.367251    13.308429    27.612098    5647.0598 
   32000       31.985    321.55079    13.217257   -444.54998   -431.33272   -10672.274   -4121.1376    -1524.835   -26370.849    15.367254    13.308431    27.612081     5647.058 
   32500       32.485    306.99724    12.619037   -443.93355   -431.31452   -11084.707    -1822.909   -5853.2161   -25577.997    15.367256    13.308433    27.612063    5647.0562 
   33000       32.985    330.05334    13.566752   -444.86406   -431.29731   -10269.846    -6019.144   -1131.7094   -23658.683    15.367258    13.308435    27.612046    5647.0544 
   33500       33.485    309.50636    12.722174   -444.00049   -431.27831   -10408.911   -4836.1827   -897.44049   -25493.109    15.367261    13.308437    27.612028    5647.0525 
   34000       33.985    331.29088    13.617621   -444.87736   -431.25973   -11330.513   -3969.5702   -390.43398   -29631.535    15.367263    13.308439    27.612011    5647.0507 
   34500       34.485    320.56337     13.17667   -444.41773   -431.24106   -9444.6798   -2678.8454   -2129.9942     -23525.2    15.367266    13.308441    27.611993    5647.0489 
   35000       34.985    328.96396    13.521973   -444.74466   -431.22268   -10028.515   -758.44287   -1720.8432   -27606.259    15.367268    13.308443    27.611976     5647.047 
   35500       35.485    329.62556    13.549169   -444.75276   -431.20359   -10275.775    -3183.574   -1571.2843   -26072.465     15.36727    13.308445    27.611958    5647.0452 
   36000       35.985    306.91437    12.615631   -443.80031   -431.18468   -10028.976   -3612.1888    -1562.808   -24911.931    15.367273    13.308448    27.611941    5647.0434 
   36500       36.485    321.28319    13.206258   -444.37251   -431.16625   -9327.5128    -2466.237   -970.11732   -24546.184    15.367275     13.30845    27.611923    5647.0416 
   37000       36.985    343.49678    14.119341   -445.26672   -431.14738   -10864.806   -4751.2754   -2310.6864   -25532.456    15.367278    13.308452    27.611906    5647.0397 
   37500       37.485    343.03546    14.100379   -445.22853   -431.12815   -10917.406   -3373.0184   -391.29577   -28987.903     15.36728    13.308454    27.611888    5647.0379 
   38000       37.985    327.52632     13.46288   -444.57182   -431.10894    -10647.98    -2010.664   -436.07533   -29497.201    15.367282    13.308456    27.611871    5647.0361 
   38500       38.485    318.11305     13.07595   -444.16568   -431.08973   -9493.2248   -1756.3406    -2478.703   -24244.631    15.367285    13.308458    27.611853    5647.0343 
   39000       38.985    333.90416    13.725039   -444.79598   -431.07094   -10745.179   -3532.6259   -1931.2155   -26771.695    15.367287     13.30846    27.611836    5647.0324 
   39500       39.485    357.10995    14.678907   -445.73132   -431.05242   -10528.505   -5510.4566   -625.42534   -25449.632     15.36729    13.308462    27.611818    5647.0306 
   40000       39.985    330.41576    13.581649    -444.6144   -431.03275   -10956.107   -4570.7087   -2432.5858   -25865.027    15.367292    13.308464    27.611801    5647.0288 
   40500       40.485    339.55922    13.957489   -444.97105   -431.01356   -10817.491     -2280.35   -2146.4799   -28025.644    15.367294    13.308466    27.611783     5647.027 
   41000       40.985    308.63989    12.686558   -443.68068   -430.99412   -8249.4535    104.02063    676.42579   -25528.807    15.367297    13.308468    27.611766    5647.0251 
   41500       41.485    319.27335    13.123644   -444.09851   -430.97487   -9712.9999   -1944.9258   -2192.1109   -25001.963    15.367299     13.30847    27.611748    5647.0233 
   42000       41.985    325.88241    13.395307    -444.3512   -430.95589   -10644.274   -1540.3176   -2703.6164   -27688.888    15.367302    13.308472    27.611731    5647.0215 
   42500       42.485    327.66707    13.468665   -444.40582   -430.93716    -9661.316   -1138.6062   -1229.0764   -26616.265    15.367304    13.308474    27.611713    5647.0196 
   43000       42.985    312.73295    12.854802   -443.77239   -430.91759   -9625.1292   -4416.0809    2777.6296   -27236.936    15.367306    13.308476    27.611696    5647.0178 
   43500       43.485     343.1205    14.103874   -445.00322   -430.89934   -10332.196   -2216.5812     -4221.21   -24558.797    15.367309    13.308478    27.611678     5647.016 
   44000       43.985    312.65079    12.851425   -443.73069   -430.87927   -8945.3237    -1639.095   -3388.7796   -21808.096    15.367311     13.30848    27.611661    5647.0142 
   44500       44.485    326.69356    13.428649   -444.28948   -430.86083   -9082.1251   -1330.8624   -1998.7492   -23916.764    15.367314    13.308482    27.611643    5647.0123 
   45000       44.985    341.54942    14.039295   -444.88142   -430.84212   -10765.073   -3725.0054   -3367.0903   -25203.122    15.367316    13.308484    27.611626    5647.0105 
   45500       45.485    337.75298    13.883244   -444.70635    -430.8231   -11206.833   -4768.9657    -3195.174   -25656.361    15.367318    13.308486    27.611608    5647.0087 
   46000       45.985    310.68088    12.770453   -443.57428   -430.80382   -10748.245   -4243.2581   -2972.2486   -25029.228    15.367321    13.308489    27.611591    5647.0069 
   46500       46.485    335.68607    13.798284   -444.58359   -430.78531   -10542.105   -2870.2781   -2564.1942   -26191.843    15.367323    13.308491    27.611573     5647.005 
   47000       46.985    325.92103    13.396895   -444.16372   -430.76682   -9833.5684   -1574.5795   -4794.0274   -23132.098    15.367326    13.308493    27.611556    5647.0032 
   47500       47.485    344.56617    14.163298   -444.91169    -430.7484   -10274.036   -3297.5731   -2874.6727   -24649.862    15.367328    13.308495    27.611538    5647.0014 
   48000       47.985    321.51368    13.215732   -443.94537   -430.72963   -9174.3249   -3312.5114   -2550.9832    -21659.48     15.36733    13.308497    27.611521    5646.9995 
   48500       48.485    339.78938     13.96695   -444.67802   -430.71107   -9949.4618    210.11323   -5624.4449   -24434.054    15.367333    13.308499    27.611503    5646.9977 
   49000       48.985     328.9288    13.520528   -444.21344   -430.69291   -10233.108    -2611.927   -705.15255   -27382.245    15.367335    13.308501    27.611486    5646.9959 
   49500       49.485    329.13661     13.52907   -444.20365   -430.67458   -10309.187    -3708.383   -2614.5234   -24604.654    15.367338    13.308503    27.611468    5646.9941 
   50000       49.985    342.64554    14.084351    -444.7411   -430.65675   -10334.868   -3979.2943    -1691.992   -25333.318     15.36734    13.308505    27.611451    5646.9922 
   50500       50.485     329.4211    13.540764   -444.17938   -430.63862   -10588.396   -5319.8387     169.6609    -26615.01    15.367342    13.308507    27.611433    5646.9904 
   51000       50.985    347.24682    14.273485   -444.89396   -430.62047   -10446.631   -2991.4942   -3450.2067   -24898.193    15.367345    13.308509    27.611416    5646.9886 
   51500       51.485    330.92377    13.602531   -444.20527   -430.60274   -9865.5435   -1362.7512   -2110.3642   -26123.515    15.367347    13.308511    27.611398    5646.9868 
   52000       51.985    342.50589    14.078611   -444.66398   -430.58537   -9996.3645   -2700.0109   -1699.0526    -25590.03     15.36735    13.308513    27.611381    5646.9849 
   52500       52.485    340.94529    14.014463   -444.58234   -430.56787   -10355.472   -3259.9386   -5.8687641   -27800.608    15.367352    13.308515    27.611363    5646.9831 
   53000       52.985    324.10278    13.322156   -443.87194   -430.54978   -9770.2485   -2080.6907   -520.97443    -26709.08    15.367354    13.308517    27.611346    5646.9813 
   53500       53.485    329.32458    13.536797   -444.06932   -430.53252   -9738.5671   -2058.3853   -1380.2186   -25777.097    15.367357    13.308519    27.611328    5646.9794 
   54000       53.985    356.21019    14.641922   -445.15751   -430.51558   -10600.154   -4963.2983   -3024.4113   -23812.752    15.367359    13.308521    27.611311    5646.9776 
   54500       54.485    347.42522    14.280819   -444.77914   -430.49832   -9675.6124   -786.10368   -2111.0138    -26129.72    15.367362    13.308523    27.611293    5646.9758 
   55000       54.985     326.7244    13.429917   -443.91021   -430.48029    -9211.054   -1838.3292   -433.40645   -25361.426    15.367364    13.308525    27.611276     5646.974 
   55500       55.485    329.02012    13.524282   -443.98842   -430.46414   -9022.4158    -856.7228   -1398.9334   -24811.591    15.367366    13.308527    27.611258    5646.9721 
   56000       55.985    347.73449    14.293531   -444.74046   -430.44693   -10492.832   -2481.9929   -2346.7101   -26649.793    15.367369     13.30853    27.611241    5646.9703 
   56500       56.485    348.85466    14.339575   -444.76972   -430.43015   -9767.6943    -2669.834   -3990.0147   -22643.234    15.367371    13.308532    27.611223    5646.9685 
   57000       56.985    330.94183    13.603273   -444.01668   -430.41341   -10373.763   -2791.0913   -2429.1807   -25901.017    15.367374    13.308534    27.611206    5646.9667 
   57500       57.485    326.82834    13.434189   -443.83118   -430.39699   -9563.9295   -3008.6103   -681.81668   -25001.362    15.367376    13.308536    27.611188    5646.9648 
   58000       57.985    342.34042    14.071809   -444.45235   -430.38054    -10666.74   -4495.7243   -1014.8901   -26489.605    15.367378    13.308538    27.611171     5646.963 
   58500       58.485    333.98525    13.728372   -444.09239   -430.36402   -9135.0876   -2432.6551   -3044.8142   -21927.794    15.367381     13.30854    27.611153    5646.9612 
   59000       58.985    320.62431    13.179174   -443.52623   -430.34706   -9834.3826   -2000.0464   -2143.0589   -25360.043    15.367383    13.308542    27.611136    5646.9593 
   59500       59.485    341.81696    14.050293   -444.38137   -430.33108   -10360.365   -6012.1388   -657.58633    -24411.37    15.367386    13.308544    27.611118    5646.9575 
   60000       59.985    333.35108    13.702305   -444.01706   -430.31476   -9119.1911   -2517.3799   -2615.9447   -22224.249    15.367388    13.308546    27.611101    5646.9557 
   60500       60.485    337.25842    13.862915   -444.16164   -430.29873   -9659.0783     -1108.57   -1708.8479   -26159.817     15.36739    13.308548    27.611083    5646.9539 
   61000       60.985    329.52564    13.545061   -443.82711   -430.28205   -9962.6214   -2411.1509   -2104.9495   -25371.764    15.367393     13.30855    27.611066     5646.952 
   61500       61.485    346.69224    14.250689   -444.51717   -430.26648   -10489.163   -4968.4366   -326.21782   -26172.834    15.367395    13.308552    27.611048    5646.9502 
   62000       61.985    332.40507    13.663419   -443.91355   -430.25013   -9377.8099   -2434.1884    -1022.825   -24676.416    15.367398    13.308554    27.611031    5646.9484 
   62500       62.485    335.68345    13.798176   -444.03208    -430.2339   -9098.4892   -1664.1248   -3953.5123   -21677.831      15.3674    13.308556    27.611013    5646.9466 
   63000       62.985    323.79041    13.309316   -443.52722   -430.21791   -9264.6536   -2897.8023   -2957.6877   -21938.471    15.367402    13.308558    27.610996    5646.9447 
   63500       63.485    344.49011    14.160172   -444.36257    -430.2024   -9371.7659   -2788.3017   -740.97817   -24586.018    15.367405     13.30856    27.610978    5646.9429 
   64000       63.985    324.13963    13.323671   -443.50958   -430.18591   -8527.7154   -3297.9554    828.71836   -23113.909    15.367407    13.308562    27.610961    5646.9411 
   64500       64.485    356.56742    14.656606   -444.82737   -430.17077   -10793.288   -3117.8884   -3765.7952   -25496.182     15.36741    13.308564    27.610943    5646.9392 
   65000       64.985    349.15686    14.351997   -444.50732   -430.15532   -10253.461   -349.42851    -3627.182   -26783.772    15.367412    13.308566    27.610926    5646.9374 
   65500       65.485    342.73402    14.087988   -444.22701   -430.13902   -11698.325   -3400.2037   -4581.0033   -27113.768    15.367414    13.308568    27.610908    5646.9356 
   66000       65.985    332.91903    13.684546   -443.80764    -430.1231   -8824.0699   -4491.1396   -936.92116   -21044.149    15.367417    13.308571    27.610891    5646.9338 
   66500       66.485      335.356    13.784716    -443.8922   -430.10748   -9300.9206   -768.76568   -3277.9921   -23856.004    15.367419    13.308573    27.610873    5646.9319 
   67000       66.985    336.83318    13.845436   -443.93719   -430.09175   -9461.2149   -6254.4509   -999.35655   -21129.837    15.367422    13.308575    27.610856    5646.9301 
   67500       67.485    342.63447    14.083896   -444.16018   -430.07628   -10874.132   -3461.0794   -2447.6143   -26713.703    15.367424    13.308577    27.610838    5646.9283 
   68000       67.985    360.33298    14.811389   -444.87194   -430.06055   -10830.037   -3615.8763   -2570.1972   -26304.039    15.367426    13.308579    27.610821    5646.9264 
   68500       68.485    333.67872    13.715772   -443.76041   -430.04464   -9870.5708   -719.68235   -5248.3323   -23643.698    15.367429    13.308581    27.610803    5646.9246 
   69000       68.985    341.22435    14.025933   -444.05492   -430.02899    -9510.639   -2091.3346   -2535.4587   -23905.124    15.367431    13.308583    27.610786    5646.9228 
   69500       69.485    340.63977    14.001904   -444.01505   -430.01314   -8889.6448   -2073.8332    138.40941   -24733.511    15.367434    13.308585    27.610768     5646.921 
   70000       69.985     354.1416    14.556893   -444.55453   -429.99763   -10727.527   -4240.6164   -2733.7288   -25208.237    15.367436    13.308587    27.610751    5646.9191 
   70500       70.485    337.84985    13.887226   -443.86885   -429.98162   -8141.0937   -2628.0712    -1695.505   -20099.705    15.367438    13.308589    27.610733    5646.9173 
   71000       70.985    341.17513     14.02391   -443.98975   -429.96584   -9792.9365   -3088.7186   -4400.1708    -21889.92    15.367441    13.308591    27.610716    5646.9155 
   71500       71.485    344.11429    14.144724   -444.09488   -429.95016   -8384.9374   -1361.4975   -649.69186   -23143.623    15.367443    13.308593    27.610698    5646.9137 
   72000       71.985    330.70365    13.593483   -443.52762   -429.93413   -11155.878    -3091.971   -4096.4874   -26279.175    15.367446    13.308595    27.610681    5646.9118 
   72500       72.485    350.46508    14.405771   -444.32465   -429.91888   -10421.413     -3496.57   -3213.9347   -24553.735    15.367448    13.308597    27.610663      5646.91 
   73000       72.985    359.97231    14.796563   -444.69916    -429.9026   -9948.6307   -2091.6752   -3521.5688   -24232.648     15.36745    13.308599    27.610646    5646.9082 
   73500       73.485    352.53629    14.490908   -444.37711    -429.8862   -9814.9951   -1303.2717   -1831.5932    -26310.12    15.367453    13.308601    27.610628    5646.9063 
   74000       73.985    353.20409    14.518357    -444.3892   -429.87084    -8938.024   -1135.7925   -2332.7073   -23345.572    15.367455    13.308603    27.610611    5646.9045 
   74500       74.485     332.6348    13.672862   -443.52731   -429.85445   -9315.6076   -1867.5583   -87.814603    -25991.45    15.367458    13.308605    27.610593    5646.9027 
   75000       74.985    329.54812    13.545985   -443.38447   -429.83848   -8154.9676    481.02503   -1025.9488   -23919.979     15.36746    13.308607    27.610576    5646.9009 
   75500       75.485    351.17488    14.434947   -444.25801   -429.82306   -10465.191     -3497.61   -2757.6501   -25140.314    15.367462    13.308609    27.610558     5646.899 
   76000       75.985    334.63368    13.755026   -443.56188   -429.80686   -8895.2098   -1418.4412   -3935.8168   -21331.371    15.367465    13.308612    27.610541    5646.8972 
   76500       76.485    348.14927     14.31058   -444.10132   -429.79074   -9177.8846   -4315.8751    -2047.928   -21169.851    15.367467    13.308614    27.610523    5646.8954 
   77000       76.985    344.64756    14.166644   -443.94075   -429.77411    -9507.196   -2231.5901   -1183.6475    -25106.35     15.36747    13.308616    27.610506    5646.8936 
   77500       77.485    345.33807    14.195027   -443.95315   -429.75812   -10236.968   -2847.2329   -1497.3282   -26366.344    15.367472    13.308618    27.610488    5646.8917 
   78000       77.985    336.18454    13.818774   -443.56024   -429.74147   -8712.5809    1242.9977   -721.82889   -26658.912    15.367474     13.30862    27.610471    5646.8899 
   78500       78.485    329.07574    13.526568   -443.25155   -429.72498   -9179.6267   -2239.8665   -1605.9253   -23693.088    15.367477    13.308622    27.610453    5646.8881 
   79000       78.985    350.06857    14.389473   -444.09818    -429.7087   -9265.9821    414.79664   -2281.7514   -25930.992    15.367479    13.308624    27.610436    5646.8862 
   79500       79.485    349.87434    14.381489    -444.0737   -429.69222    -9990.733   -3028.2243   -1952.1524   -24991.822    15.367482    13.308626    27.610418    5646.8844 
   80000       79.985    328.35325     13.49687   -443.17204   -429.67517   -10254.466   -1357.7459   -1963.0755   -27442.577    15.367484    13.308628    27.610401    5646.8826 
   80500       80.485    333.16979    13.694853   -443.35324   -429.65839   -9790.4576   -74.213139   -2073.3696    -27223.79    15.367486     13.30863    27.610383    5646.8808 
   81000       80.985    344.56837    14.163388   -443.80547   -429.64208   -8870.1887    2143.8323   -3003.9028   -25750.496    15.367489    13.308632    27.610366    5646.8789 
   81500       81.485    355.65928    14.619277   -444.24455   -429.62527   -8654.1793   -3765.4754   -791.25992   -21405.803    15.367491    13.308634    27.610348    5646.8771 
   82000       81.985    354.30681    14.563684   -444.17253   -429.60885   -10353.998   -1745.9849   -2610.3311   -26705.677    15.367494    13.308636    27.610331    5646.8753 
   82500       82.485    354.58729    14.575213   -444.16682    -429.5916   -10073.253   -3066.5228     752.5456   -27905.782    15.367496    13.308638    27.610313    5646.8735 
   83000       82.985    333.55933    13.710865   -443.28459   -429.57372   -8619.1727   -1799.5461   -466.98917   -23590.983    15.367498     13.30864    27.610296    5646.8716 
   83500       83.485     367.1449    15.091391   -444.64845   -429.55706   -10212.155   -4870.3338   -1216.7381   -24549.393    15.367501    13.308642    27.610278    5646.8698 
   84000       83.985    353.54186    14.532241   -444.07237   -429.54013   -8914.2541   -3221.2789   -70.435047   -23451.048    15.367503    13.308644    27.610261     5646.868 
   84500       84.485    332.43834    13.664787    -443.1869   -429.52211   -8865.5821   -903.78279   -2221.4245   -23471.539    15.367506    13.308646    27.610243    5646.8661 
   85000       84.985     337.1641    13.859038   -443.36411   -429.50507   -9411.6142   -561.19783   -2880.0375   -24793.607    15.367508    13.308648    27.610226    5646.8643 
   85500       85.485    368.61373    15.151766   -444.63967    -429.4879    -11023.72   -2255.4562   -2400.0077   -28415.695     15.36751     13.30865    27.610208    5646.8625 
   86000       85.985    334.04085    13.730658   -443.20026    -429.4696   -8590.6151    1142.4938   -1343.8394     -25570.5    15.367513    13.308653    27.610191    5646.8607 
   86500       86.485    347.18235    14.270836   -443.72319   -429.45235   -9373.3153    804.64417   -2563.3881   -26361.202    15.367515    13.308655    27.610173    5646.8588 
   87000       86.985    335.74832    13.800843   -443.23578   -429.43493   -9863.8583   -2669.8728   -1389.0417    -25532.66    15.367518    13.308657    27.610156     5646.857 
   87500       87.485    364.83479    14.996434     -444.414   -429.41757   -8702.8974   -89.906859   -2624.2166   -23394.569     15.36752    13.308659    27.610138    5646.8552 
   88000       87.985    349.10808    14.349992   -443.74989    -429.3999   -10457.379    88.388089   -6142.1904   -25318.335    15.367522    13.308661    27.610121    5646.8534 
   88500       88.485    332.64119    13.673125   -443.05405   -429.38092   -8454.1997   -1257.8977    1192.6399   -25297.341    15.367525    13.308663    27.610103    5646.8515 
   89000       88.985    362.67253    14.907555   -444.27107   -429.36352   -10908.617   -3647.8009   -2484.3921   -26593.657    15.367527    13.308665    27.610086    5646.8497 
   89500       89.485    346.85093    14.257212    -443.6019   -429.34469   -10041.788    -1271.054   -4192.6867   -24661.624     15.36753    13.308667    27.610068    5646.8479 
   90000       89.985    363.46158    14.939989   -444.26669    -429.3267    -9365.863   -2357.7335    -1675.694   -24064.162    15.367532    13.308669    27.610051     5646.846 
   90500       90.485    350.80964    14.419934   -443.72807   -429.30813   -10063.387   -3255.9518    711.33494   -27645.544    15.367534    13.308671    27.610033    5646.8442 
   91000       90.985    361.92604    14.876871   -444.16702   -429.29015   -9778.6737   -3790.4575   -2521.8256   -23023.738    15.367537    13.308673    27.610016    5646.8424 
   91500       91.485    339.85028    13.969453   -443.24031   -429.27086   -10336.115   -2472.1747     -1673.65   -26862.519    15.367539    13.308675    27.609998    5646.8406 
   92000       91.985    357.18116    14.681834   -443.93483   -429.25299   -9665.8288   -1848.5622   -1090.3596   -26058.565    15.367542    13.308677    27.609981    5646.8387 
   92500       92.485    348.88615     14.34087   -443.57473   -429.23386   -9248.1308   -2288.8152   -1894.8097   -23560.768    15.367544    13.308679    27.609963    5646.8369 
   93000       92.985    345.45452    14.199814    -443.4148   -429.21499    -9262.042   -2510.4228   -3499.8053   -21775.898    15.367546    13.308681    27.609946    5646.8351 
   93500       93.485    358.78938    14.747939   -443.94418   -429.19624   -9239.1225   -2427.7136   -2195.8719   -23093.782    15.367549    13.308683    27.609928    5646.8333 
   94000       93.985    345.56211    14.204236   -443.38125   -429.17702    -8769.346   -464.87313   -2651.4153    -23191.75    15.367551    13.308685    27.609911    5646.8314 
   94500       94.485    342.06505     14.06049   -443.21869    -429.1582   -8975.7329   -2621.9727   -3232.3308   -21072.895    15.367554    13.308687    27.609893    5646.8296 
   95000       94.985    349.81084    14.378879   -443.51756   -429.13868   -8573.8721   -1922.4089   -408.80739     -23390.4    15.367556    13.308689    27.609876    5646.8278 
   95500       95.485    361.59382    14.863215   -443.98277   -429.11955   -9924.4248   -2571.6128    784.15872    -27985.82    15.367558    13.308691    27.609858    5646.8259 
   96000       95.985    335.60315    13.794875   -442.89515   -429.10027   -9007.7183   -275.31756   -3301.0873    -23446.75    15.367561    13.308694    27.609841    5646.8241 
   96500       96.485     339.4774    13.954126   -443.03455   -429.08042   -7593.5098   -587.44731    -2842.945   -19350.137    15.367563    13.308696    27.609823    5646.8223 
   97000       96.985    342.99135    14.098565   -443.16019   -429.06162   -10217.843    -1389.051   -1796.2613   -27468.218    15.367566    13.308698    27.609806    5646.8205 
   97500       97.485    345.43516    14.199018   -443.24105   -429.04204   -8722.6904   -753.72847   -243.43098   -25170.912    15.367568      13.3087    27.609788    5646.8186 
   98000       97.985    363.59197    14.945349   -443.96785    -429.0225   -9691.1108   -692.88295   -3605.1736   -24775.276     15.36757    13.308702    27.609771    5646.8168 
   98500       98.485    343.87237     14.13478   -443.13713   -429.00235   -9042.9299   -1013.8716   -1172.6736   -24942.244    15.367573    13.308704    27.609753     5646.815 
   99000       98.985    342.75046    14.088664   -443.07136    -428.9827   -8871.9148    -1571.709   -1384.2471   -23659.788    15.367575    13.308706    27.609736    5646.8132 
   99500       99.485    342.29959    14.070131   -443.03259   -428.96246   -8290.1192    463.73761    -362.6595   -24971.436    15.367578    13.308708    27.609718    5646.8113 
  100000       99.985    359.21551    14.765455   -443.70865   -428.94319   -8508.3888   -1792.4757   -319.69323   -23412.997     15.36758     13.30871    27.609701    5646.8095 
  100500      100.485    354.87406    14.587001   -443.50965   -428.92265   -9194.1426   -3825.8673    1223.6724   -24980.233    15.367582    13.308712    27.609683    5646.8077 
  101000      100.985    352.50302     14.48954    -443.3916   -428.90206   -9466.2007   -1022.7427    545.47519   -27921.334    15.367585    13.308714    27.609666    5646.8058 
  101500      101.485    355.30901     14.60488    -443.4867   -428.88182   -8173.2041   -426.17342    -330.1904   -23763.249    15.367587    13.308716    27.609648     5646.804 
  102000      101.985    353.64356    14.536422    -443.3978   -428.86138   -9895.5789   -1134.4615   -3681.1274   -24871.148     15.36759    13.308718    27.609631    5646.8022 
  102500      102.485    344.77996    14.172086   -443.01281   -428.84072   -7888.4049   -2251.3605   -1606.0632   -19807.791    15.367592     13.30872    27.609613    5646.8004 
  103000      102.985    358.27986    14.726995   -443.54727   -428.82028   -9669.6429   -2835.3569   -2854.6484   -23318.923    15.367594    13.308722    27.609596    5646.7985 
  103500      103.485    356.65474    14.660195      -443.46    -428.7998    -8960.443    237.70499   -2882.3038    -24236.73    15.367597    13.308724    27.609578    5646.7967 
  104000      103.985     354.6303    14.576981   -443.35624   -428.77926   -9424.5436   -2458.5061    -1648.219   -24166.906    15.367599    13.308726    27.609561    5646.7949 
  104500      104.485    347.81906    14.297007   -443.05454   -428.75753   -10171.093   -2739.4911   -103.13104   -27670.656    15.367602    13.308728    27.609543     5646.793 
  105000      104.985    356.22514    14.642537   -443.37977   -428.73723     -9458.09   -1457.1477    -2558.376   -24358.746    15.367604     13.30873    27.609526    5646.7912 
  105500      105.485    341.13629    14.022314   -442.73884   -428.71653   -7916.9487    -759.6697   -2869.5848   -20121.592    15.367606    13.308732    27.609508    5646.7894 
  106000      105.985    367.78273    15.117608    -443.8134   -428.69579   -10184.194   -1256.0128   -3512.5356   -25784.035    15.367609    13.308735    27.609491    5646.7876 
  106500      106.485    350.78459    14.418905   -443.09377   -428.67486   -8193.3221   -978.41218   -1459.4469   -22142.107    15.367611    13.308737    27.609473    5646.7857 
  107000      106.985    350.19006    14.394466   -443.04802   -428.65355     -9317.37    456.71584   -1896.3678   -26512.458    15.367614    13.308739    27.609456    5646.7839 
  107500      107.485    351.66008    14.454891   -443.08694   -428.63204   -7875.0334   -1691.4071    -2201.607   -19732.086    15.367616    13.308741    27.609438    5646.7821 
  108000      107.985    352.48551     14.48882   -443.09985   -428.61103    -8530.742   -1372.3148   -1549.9636   -22669.948    15.367618    13.308743    27.609421    5646.7803 
  108500      108.485    354.17834    14.558404   -443.14783   -428.58942     -8923.93   -82.081474   -545.07623   -26144.632    15.367621    13.308745    27.609403    5646.7784 
  109000      108.985    361.92139     14.87668   -443.44488    -428.5682   -9697.6161   -3121.9723   -770.73683   -25200.139    15.367623    13.308747    27.609386    5646.7766 
  109500      109.485    356.59432    14.657712   -443.20437   -428.54666   -8121.1236     284.8132    671.11646     -25319.3    15.367626    13.308749    27.609368    5646.7748 
  110000      109.985    352.91226    14.506362   -443.03156    -428.5252   -8613.9621    478.72938   -2339.6452   -23980.971    15.367628    13.308751    27.609351    5646.7729 
  110500      110.485    359.17074    14.763615   -443.26717   -428.50356   -8922.5677    -186.2733   -3619.6672   -22961.763     15.36763    13.308753    27.609333    5646.7711 
  111000      110.985    367.21442    15.094248   -443.57705    -428.4828   -10587.628   -601.12826    -4437.815    -26723.94    15.367633    13.308755    27.609316    5646.7693 
  111500      111.485    374.28412    15.384846   -443.84553   -428.46068   -10061.204   -2658.5352   -827.26304   -26697.813    15.367635    13.308757    27.609298    5646.7675 
  112000      111.985    367.36654    15.100501   -443.53926   -428.43876   -8799.6199   -86.586185   -2275.9002   -24036.373    15.367638    13.308759    27.609281    5646.7656 
  112500      112.485    359.86788    14.792271   -443.20958   -428.41731   -9312.6365    655.24363   -5243.0244   -23350.129     15.36764    13.308761    27.609263    5646.7638 
  113000      112.985    353.59573    14.534456   -442.92976   -428.39531   -8300.1366   -1606.0751    647.74684   -23942.081    15.367642    13.308763    27.609246     5646.762 
  113500      113.485    360.76524    14.829156   -443.20261   -428.37346   -10207.756    -2006.664   -955.30296     -27661.3    15.367645    13.308765    27.609228    5646.7602 
  114000      113.985    373.48221    15.351884   -443.70375   -428.35186   -10348.713    -3346.585   -1192.7511   -26506.804    15.367647    13.308767    27.609211    5646.7583 
  114500      114.485    374.26603    15.384103   -443.71418   -428.33008   -8546.8284    719.02798   -2630.3379   -23729.175     15.36765    13.308769    27.609193    5646.7565 
  115000      114.985    359.38767    14.772532   -443.08019   -428.30766   -8429.1806   -2082.1294   -1919.0965   -21286.316    15.367652    13.308771    27.609176    5646.7547 
  115500      115.485    383.00616    15.743363   -444.02947   -428.28611   -9858.3665   -86.277777     -4762.09   -24726.732    15.367654    13.308773    27.609158    5646.7528 
  116000      115.985    351.51491    14.448924   -442.71235   -428.26342   -8148.6828    260.84487   -1655.5065   -23051.387    15.367657    13.308776    27.609141     5646.751 
  116500      116.485    376.74333    15.485931   -443.72797   -428.24204   -8803.8112   -907.18168   -1183.9384   -24320.314    15.367659    13.308778    27.609123    5646.7492 
  117000      116.985    351.70598    14.456778    -442.6757   -428.21892   -8029.7407    1049.4897   -1605.6611   -23533.051    15.367662     13.30878    27.609106    5646.7474 
  117500      117.485    355.52616    14.613805    -442.8102    -428.1964   -8138.7463   -1097.6553    735.31234   -24053.896    15.367664    13.308782    27.609088    5646.7455 
  118000      117.985    366.63989    15.070632   -443.24495   -428.17432   -8761.9662   -3176.3484   -96.643277   -23012.907    15.367666    13.308784    27.609071    5646.7437 
  118500      118.485    342.87193    14.093657   -442.24537   -428.15171   -8904.1456   -2549.9743   -1895.6248   -22266.838    15.367669    13.308786    27.609053    5646.7419 
  119000      118.985     370.3162    15.221746   -443.35171   -428.12997   -9553.0328   -2159.4337   -4370.4938   -22129.171    15.367671    13.308788    27.609036    5646.7401 
  119500      119.485    392.31542    16.126018   -444.23339   -428.10737   -10605.493   -2054.1617   -3300.1335   -26462.184    15.367674     13.30879    27.609018    5646.7382 
  120000      119.985    363.79008    14.953491    -443.0378   -428.08431   -8856.6419   -1662.2127   -546.45183   -24361.261    15.367676    13.308792    27.609001    5646.7364 
  120500      120.485    365.29646    15.015411   -443.07723   -428.06182   -9303.2205    359.91913    -1440.554   -26829.027    15.367678    13.308794    27.608983    5646.7346 
  121000      120.985    358.51189    14.736533   -442.77592   -428.03939   -8111.9235   -162.19959   -2282.1558   -21891.415    15.367681    13.308796    27.608966    5646.7327 
  121500      121.485     378.3289    15.551106   -443.56828   -428.01717   -9838.9724   -2829.5951   -1215.3878   -25471.934    15.367683    13.308798    27.608948    5646.7309 
  122000      121.985    342.71521    14.087215   -442.08107   -427.99385    -6587.348    1165.5219   -1149.5217   -19778.044    15.367686      13.3088    27.608931    5646.7291 
  122500      122.485     369.8845    15.204001   -443.17501   -427.97101   -9874.2724   -289.83181   -3552.5809   -25780.405    15.367688    13.308802    27.608913    5646.7273 
  123000      122.985    366.46893    15.063605   -443.01169   -427.94809   -8574.3647   -1194.5295   -872.54002   -23656.024     15.36769    13.308804    27.608896    5646.7254 
  123500      123.485    355.43148    14.609914   -442.53538   -427.92547   -8807.1035   -633.42287   -2351.3967   -23436.491    15.367693    13.308806    27.608878    5646.7236 
  124000      123.985    393.32586    16.167552   -444.07061   -427.90306   -8573.0812   -3145.9356   -1511.1621   -21062.146    15.367695    13.308808    27.608861    5646.7218 
  124500      124.485     381.4627     15.67992   -443.55992      -427.88   -9957.3799   -3174.5823    423.24386   -27120.801    15.367698     13.30881    27.608843    5646.7199 
  125000      124.985    369.08028    15.170944   -443.02797   -427.85703   -8528.1207   -1338.7683   -152.68692   -24092.907      15.3677    13.308812    27.608826    5646.7181 
  125500      125.485    386.88183    15.902672   -443.73731   -427.83464   -9829.7243   -1368.7711    -1213.068   -26907.334    15.367702    13.308814    27.608808    5646.7163 
  126000      125.985    353.65449    14.536871   -442.34879   -427.81191   -9399.9343   -1259.9717    -1521.545   -25418.286    15.367705    13.308817    27.608791    5646.7145 
  126500      126.485    370.31229    15.221585    -443.0112   -427.78962   -7800.1657   -2509.7273    735.92501   -21626.695    15.367707    13.308819    27.608773    5646.7126 
  127000      126.985    379.90899    15.616055   -443.38238   -427.76633   -8575.8481   -638.62901   -2465.5304   -22623.385     15.36771    13.308821    27.608756    5646.7108 
  127500      127.485    360.06241    14.800267   -442.54263   -427.74237   -7510.3117    285.77395   -189.27518   -22627.434    15.367712    13.308823    27.608738     5646.709 
  128000      127.985    371.98094    15.290175   -443.00976   -427.71958   -8798.8441   -2130.1655   -481.62577   -23784.741    15.367714    13.308825    27.608721    5646.7072 
  128500      128.485    375.89733    15.451157    -443.1481   -427.69694   -7797.0775   -190.35621   -603.88122   -22596.995    15.367717    13.308827    27.608703    5646.7053 
  129000      128.985    400.73382    16.472054   -444.14594   -427.67388   -9276.0447   -111.32968   -489.11344   -27227.691    15.367719    13.308829    27.608686    5646.7035 
  129500      129.485    389.22444    15.998964   -443.64967   -427.65071   -8313.0203    1015.8681   -1774.0618   -24180.867    15.367722    13.308831    27.608668    5646.7017 
  130000      129.985    369.42852    15.185258   -442.81188   -427.62662   -8029.6614   -272.98101    1419.6061   -25235.609    15.367724    13.308833    27.608651    5646.6998 
  130500      130.485    374.24684    15.383314   -442.98642   -427.60311   -9234.7004   -2697.1694    794.26463   -25801.196    15.367726    13.308835    27.608633     5646.698 
  131000      130.985    353.97541    14.550062   -442.12966    -427.5796   -9029.5103   -2399.8186    150.39377   -24839.106    15.367729    13.308837    27.608616    5646.6962 
  131500      131.485    396.45044    16.295987   -443.85271   -427.55673   -8796.6669    886.99182   -2173.7096   -25103.283    15.367731    13.308839    27.608598    5646.6944 
  132000      131.985    388.52327    15.970143   -443.50294    -427.5328   -9264.7172   -1657.3668    1221.3612   -27358.146    15.367734    13.308841    27.608581    5646.6925 
  132500      132.485    367.45434     15.10411   -442.61396   -427.50985   -8232.5611   -2639.2592    132.56828   -22190.993    15.367736    13.308843    27.608563    5646.6907 
  133000      132.985      353.797    14.542729   -442.02836   -427.48563   -7572.6407    94.503849   -210.01689   -22602.409    15.367738    13.308845    27.608546    5646.6889 
  133500      133.485     359.3241    14.769919    -442.2313   -427.46138   -7447.9484    1326.0771   -1929.9176   -21740.005    15.367741    13.308847    27.608528    5646.6871 
  134000      133.985     374.0744    15.376226   -442.81509   -427.43887   -9290.7197   -1940.8477    -232.8476   -25698.464    15.367743    13.308849    27.608511    5646.6852 
  134500      134.485    375.01193    15.414763   -442.82957    -427.4148    -9228.304   -1763.0424   -1468.6666   -24453.203    15.367746    13.308851    27.608493    5646.6834 
  135000      134.985    386.77119    15.898124   -443.28907   -427.39095   -8920.5566    405.65579   -2926.5868   -24240.739    15.367748    13.308853    27.608476    5646.6816 
  135500      135.485     380.8124    15.653189   -443.02066   -427.36747   -7262.5218    115.62207    894.76096   -22797.948     15.36775    13.308855    27.608458    5646.6797 
  136000      135.985    370.08227     15.21213   -442.55557   -427.34344   -9394.3583   -239.52952   -1243.8234   -26699.722    15.367753    13.308858    27.608441    5646.6779 
  136500      136.485    368.73661    15.156817   -442.47663   -427.31981   -7084.3623    1792.9079   -1626.1028   -21419.892    15.367755     13.30886    27.608423    5646.6761 
  137000      136.985    371.85635    15.285054   -442.58094   -427.29588   -8113.5189   -235.15948   -3240.2433   -20865.154    15.367758    13.308862    27.608406    5646.6743 
  137500      137.485    372.51078    15.311954    -442.5844   -427.27245   -7642.7049   -1674.7994    1838.3763   -23091.691     15.36776    13.308864    27.608388    5646.6724 
  138000      137.985    388.04693    15.950563    -443.1997   -427.24914   -9571.8082   -2913.9554    707.24612   -26508.715    15.367762    13.308866    27.608371    5646.6706 
  138500      138.485    370.88253    15.245025   -442.47001   -427.22498   -8437.1132   -3151.9965   -910.93939   -21248.404    15.367765    13.308868    27.608353    5646.6688 
  139000      138.985    384.20988    15.792842   -442.99458   -427.20174   -8570.8735    98.712165   -2381.8054   -23429.527    15.367767     13.30887    27.608336    5646.6669 
  139500      139.485    368.85932    15.161861   -442.33968   -427.17782   -8317.3499   -992.43215    1834.6236   -25794.241     15.36777    13.308872    27.608318    5646.6651 
  140000      139.985    382.55005    15.724615   -442.87892    -427.1543    -8931.774   -687.32015   -2662.3937   -23445.608    15.367772    13.308874    27.608301    5646.6633 
  140500      140.485    390.90536    16.068058   -443.19846    -427.1304   -9649.3305   -3141.9138   -855.06413   -24951.013    15.367774    13.308876    27.608283    5646.6615 
  141000      140.985    383.23639    15.752827   -442.85903    -427.1062   -8137.9217   -1547.1244   -606.94101     -22259.7    15.367777    13.308878    27.608266    5646.6596 
  141500      141.485    365.29159    15.015211   -442.09725   -427.08204    -7837.588    971.22682   -1356.5956   -23127.395    15.367779     13.30888    27.608248    5646.6578 
  142000      141.985    373.00882    15.332425   -442.39079   -427.05837   -8847.9242   -3024.2942    853.47007   -24372.948    15.367782    13.308882    27.608231     5646.656 
  142500      142.485    374.58777    15.397328   -442.43191   -427.03458   -7611.4507   -1074.1705    -1494.746   -20265.436    15.367784    13.308884    27.608213    5646.6542 
  143000      142.985    387.46039    15.926453   -442.93693   -427.01048   -9249.1996   -4102.2779   -2130.8286   -21514.492    15.367786    13.308886    27.608196    5646.6523 
  143500      143.485    390.97472    16.070909   -443.05811    -426.9872   -7739.2857   -2786.8644   -758.22557   -19672.767    15.367789    13.308888    27.608178    5646.6505 
  144000      143.985    387.48511    15.927469   -442.88998   -426.96251   -8685.9496   -2190.6199   -292.37828   -23574.851    15.367791     13.30889    27.608161    5646.6487 
  144500      144.485    385.31401    15.838227   -442.77662    -426.9384   -9710.2087   -3185.2769   -2336.5254   -23608.824    15.367794    13.308892    27.608143    5646.6468 
  145000      144.985    382.09654    15.705974   -442.62028   -426.91431   -6934.4952    2227.3973   -1578.4449   -21452.438    15.367796    13.308894    27.608126     5646.645 
  145500      145.485    382.45859    15.720855    -442.6108   -426.88994   -8613.2323    338.36249   -2972.4061   -23205.653    15.367798    13.308896    27.608108    5646.6432 
  146000      145.985    363.00363    14.921165     -441.787   -426.86584   -7740.5874   -2729.7031    1816.8355   -22308.895    15.367801    13.308899    27.608091    5646.6414 
  146500      146.485    397.30245    16.331008   -443.17368   -426.84267   -8624.3063   -700.23867    443.24299   -25615.923    15.367803    13.308901    27.608073    5646.6395 
  147000      146.985    409.54002     16.83403   -443.65231   -426.81828   -8599.6774   -3222.6229    852.49372   -23428.903    15.367806    13.308903    27.608056    5646.6377 
  147500      147.485    382.19539    15.710037   -442.50389   -426.79385   -7867.0849     180.5552    -742.3458   -23039.464    15.367808    13.308905    27.608038    5646.6359 
  148000      147.985    367.42391    15.102859   -441.87231   -426.76945   -7261.6936    549.69541    2096.7461   -24431.522     15.36781    13.308907    27.608021    5646.6341 
  148500      148.485    380.58449    15.643821   -442.38981   -426.74599   -7971.2664    318.38491   -2691.2424   -21540.942    15.367813    13.308909    27.608003    5646.6322 
  149000      148.985    386.14474    15.872374   -442.59371   -426.72133   -7441.2848   -178.64987   -791.87137   -21353.333    15.367815    13.308911    27.607986    5646.6304 
  149500      149.485    384.64838    15.810866   -442.50761   -426.69674   -8819.0372    -1164.024    -911.7126   -24381.375    15.367818    13.308913    27.607968    5646.6286 
  150000      149.985    370.63399    15.234808   -441.90769   -426.67288   -8229.4096    364.94105   -1788.5974   -23264.573     15.36782    13.308915    27.607951    5646.6267 
  150500      150.485    392.35359    16.127587   -442.77714   -426.64955    -7791.855   -632.73097    1696.8782   -24439.712    15.367822    13.308917    27.607933    5646.6249 
  151000      150.985    390.43166    16.048586   -442.67352   -426.62493   -7500.5091   -797.22402   -1235.2103   -20469.093    15.367825    13.308919    27.607916    5646.6231 
  151500      151.485    387.80208    15.940498   -442.54095   -426.60046   -8806.0856    -189.5485   -2146.1201   -24082.588    15.367827    13.308921    27.607898    5646.6213 
  152000      151.985     373.8107    15.365386   -441.94124   -426.57586   -7767.4053     -1050.21    2993.5543    -25245.56     15.36783    13.308923    27.607881    5646.6194 
  152500      152.485    382.12385    15.707096   -442.25849    -426.5514   -8378.0238   -3154.8438    736.32843   -22715.556    15.367832    13.308925    27.607863    5646.6176 
  153000      152.985    392.06433    16.115697    -442.6429   -426.52721   -7776.2399   -2764.2244    707.74375   -21272.239    15.367834    13.308927    27.607846    5646.6158 
  153500      153.485    401.64548    16.509527   -443.01254   -426.50301   -7726.1888    -2257.555    549.21565   -21470.227    15.367837    13.308929    27.607828    5646.6139 
  154000      153.985    378.80702    15.570759   -442.04851   -426.47775   -7776.3588    435.29281    1179.7086   -24944.078    15.367839    13.308931    27.607811    5646.6121 
  154500      154.485    380.94275    15.658547   -442.11154   -426.45299   -6635.7915    819.08846    1320.6088   -22047.072    15.367842    13.308933    27.607793    5646.6103 
  155000      154.985    401.08389    16.486443   -442.91505   -426.42861   -9255.5592   -1132.0426   -1712.5974   -24922.037    15.367844    13.308935    27.607776    5646.6085 
  155500      155.485    403.05521    16.567474   -442.97184   -426.40437   -8308.8608    -645.7202    223.77844   -24504.641    15.367846    13.308937    27.607758    5646.6066 
  156000      155.985    376.91307    15.492909   -441.87154   -426.37863   -6669.5352   -2579.3223   -309.44906   -17119.834    15.367849     13.30894    27.607741    5646.6048 
  156500      156.485    397.13254    16.324024    -442.6786   -426.35458   -8891.2379   -2310.8629   -1604.0189   -22758.832    15.367851    13.308942    27.607723     5646.603 
  157000      156.985     388.8528    15.983688   -442.31395   -426.33027   -6656.3958   -538.47952   -244.56316   -19186.145    15.367854    13.308944    27.607706    5646.6012 
  157500      157.485    397.22811    16.327953   -442.63397   -426.30602   -9152.7142    2265.7579   -802.78601   -28921.115    15.367856    13.308946    27.607688    5646.5993 
  158000      157.985    377.46146     15.51545   -441.79656   -426.28111   -7727.8456    -2254.643    228.10569   -21156.999    15.367858    13.308948    27.607671    5646.5975 
  158500      158.485    396.05697    16.279813    -442.5364   -426.25659    -8692.531   -576.14245   -1217.4951   -24283.955    15.367861     13.30895    27.607653    5646.5957 
  159000      158.985    381.11982    15.665826   -441.89818   -426.23236   -8267.2683   -2401.2539   -455.02973   -21945.521    15.367863    13.308952    27.607636    5646.5938 
  159500      159.485    385.82295    15.859147   -442.06614   -426.20699   -8320.9464    -2522.975   -76.316062   -22363.548    15.367866    13.308954    27.607618     5646.592 
  160000      159.985    415.20067     17.06671   -443.24907   -426.18236   -9249.9237   -1434.5872   -946.66136   -25368.523    15.367868    13.308956    27.607601    5646.5902 
  160500      160.485    368.49323    15.146813   -441.30369   -426.15688   -5519.4052    2253.9524    792.98223    -19605.15     15.36787    13.308958    27.607583    5646.5884 
  161000      160.985    372.84913    15.325861   -441.45821   -426.13235   -6028.0661    1528.3868     825.2658   -20437.851    15.367873     13.30896    27.607566    5646.5865 
  161500      161.485    391.66289    16.099196   -442.20623   -426.10703   -8235.9816   -57.726164   -3311.6072   -21338.611    15.367875    13.308962    27.607548    5646.5847 
  162000      161.985    406.58431    16.712537   -442.79479   -426.08226   -7198.5595   -2808.2523   -1640.5965    -17146.83    15.367878    13.308964    27.607531    5646.5829 
  162500      162.485    386.08301    15.869836   -441.92686   -426.05702   -8297.9409   -2515.6982   -1646.0278   -20732.097     15.36788    13.308966    27.607513     5646.581 
  163000      162.985    388.14975    15.954789   -441.98644   -426.03165   -6912.2297    99.982959    857.57638   -21694.248    15.367882    13.308968    27.607496    5646.5792 
  163500      163.485    393.40969    16.170998   -442.17748   -426.00648   -8456.8576   -347.01699   -105.26485   -24918.291    15.367885     13.30897    27.607478    5646.5774 
  164000      163.985     376.5618     15.47847   -441.45962   -425.98115   -6983.6266    1311.5432   -803.08858   -21459.335    15.367887    13.308972    27.607461    5646.5756 
  164500      164.485    386.53695    15.888495   -441.84482   -425.95632   -7018.4933   -409.94118   -1138.6867   -19506.852     15.36789    13.308974    27.607443    5646.5737 
  165000      164.985    397.75632    16.349664   -442.28095   -425.93128   -7485.2006   -1047.4012   -2354.6876   -19053.513    15.367892    13.308976    27.607426    5646.5719 
  165500      165.485    387.93872    15.946115   -441.85277   -425.90666   -7867.4395   -801.99924    -1760.251   -21040.068    15.367894    13.308978    27.607408    5646.5701 
  166000      165.985    394.31892    16.208371      -442.09   -425.88163   -7950.1125   -24.524465    356.63332   -24182.446    15.367897    13.308981    27.607391    5646.5683 
  166500      166.485    398.33689    16.373529   -442.22977   -425.85624   -8057.4722    827.16284   -2182.6597    -22816.92    15.367899    13.308983    27.607373    5646.5664 
  167000      166.985    384.32839    15.797713   -441.62883   -425.83112   -7677.1587    756.48747    -1158.676   -22629.288    15.367902    13.308985    27.607356    5646.5646 
  167500      167.485    380.91632    15.657461   -441.46315   -425.80569   -7784.6441    339.19792   -2045.2676   -21647.863    15.367904    13.308987    27.607338    5646.5628 
  168000      167.985     388.5771    15.972355   -441.75269   -425.78034   -6850.7213    309.99988   -161.97996   -20700.184    15.367906    13.308989    27.607321    5646.5609 
  168500      168.485    404.05242    16.608464   -442.36476    -425.7563   -8997.1949   -2443.2997   -2688.9048    -21859.38    15.367909    13.308991    27.607303    5646.5591 
  169000      168.985    393.43995    16.172241    -441.9026   -425.73036   -7445.9993    1788.6674   -166.49565    -23960.17    15.367911    13.308993    27.607286    5646.5573 
  169500      169.485    390.85752    16.066091   -441.77115   -425.70506   -8246.9632    7.7480143   -286.57064   -24462.067    15.367914    13.308995    27.607268    5646.5555 
  170000      169.985    405.47304    16.666858   -442.34665   -425.67979   -8398.2388    902.37851   -922.49166   -25174.603    15.367916    13.308997    27.607251    5646.5536 
  170500      170.485    417.52585    17.162286   -442.81622   -425.65394   -8326.8598   -1139.8844    552.67875   -24393.374    15.367918    13.308999    27.607233    5646.5518 
  171000      170.985    372.73645     15.32123   -440.95062   -425.62939    -6825.224   -3182.6554    418.01136   -17711.028    15.367921    13.309001    27.607216      5646.55 
  171500      171.485    399.29945    16.413095   -442.01661   -425.60351   -7939.1182   -992.82106    1017.5371   -23842.071    15.367923    13.309003    27.607198    5646.5481 
  172000      171.985    385.01881    15.826093   -441.40406   -425.57796   -6882.5233   -334.94815    2484.0585    -22796.68    15.367926    13.309005    27.607181    5646.5463 
  172500      172.485    385.70507    15.854301   -441.40703   -425.55273   -7154.4202    2923.1895   -1074.9991   -23311.451    15.367928    13.309007    27.607163    5646.5445 
  173000      172.985    384.50052    15.804788   -441.33211   -425.52732   -7086.1751    1820.5153   -859.67456   -22219.366     15.36793    13.309009    27.607146    5646.5427 
  173500      173.485    394.72045    16.224876    -441.7267   -425.50182   -7290.5305   -1379.4386   -58.125653   -20434.027    15.367933    13.309011    27.607128    5646.5408 
  174000      173.985    398.65868    16.386756   -441.86295    -425.4762   -7801.6577    317.53594   -370.71075   -23351.798    15.367935    13.309013    27.607111     5646.539 
  174500      174.485    410.65087    16.879691   -442.33048   -425.45079   -8357.5818    630.31879   -1410.9896   -24292.074    15.367938    13.309015    27.607093    5646.5372 
  175000      174.985    404.76041    16.637566   -442.06278   -425.42521   -8831.2024   -519.82661   -3451.9768   -22521.804     15.36794    13.309017    27.607076    5646.5354 
  175500      175.485    425.05438    17.471744   -442.87156   -425.39982    -7269.923    -676.1197   -973.09482   -20160.554    15.367942    13.309019    27.607058    5646.5335 
  176000      175.985    391.34147    16.085984   -441.45953   -425.37355   -8406.9397   -1385.7142     531.1863   -24366.291    15.367945    13.309022    27.607041    5646.5317 
  176500      176.485     405.6429     16.67384   -442.02172   -425.34788   -5886.0426    3019.5184      536.714    -21214.36    15.367947    13.309024    27.607023    5646.5299 
  177000      176.985    410.15442    16.859285    -442.1818   -425.32251   -7072.4632   -497.29122    27.136648   -20747.235     15.36795    13.309026    27.607006     5646.528 
  177500      177.485    404.91093    16.643753   -441.94002   -425.29627   -8002.0633   -1346.8332   -747.00342   -21912.353    15.367952    13.309028    27.606988    5646.5262 
  178000      177.985    403.31099    16.577988   -441.84849    -425.2705   -7738.8373   -1599.0983   -2070.0744   -19547.339    15.367954     13.30903    27.606971    5646.5244 
  178500      178.485    402.57574    16.547766   -441.79204   -425.24427   -8659.7065   -214.10627   -1113.9382   -24651.075    15.367957    13.309032    27.606953    5646.5226 
  179000      178.985    412.92179    16.973037   -442.19226   -425.21923   -8101.3581   -1219.9733    2406.1346   -25490.236    15.367959    13.309034    27.606936    5646.5207 
  179500      179.485    379.65177    15.605482    -440.7982   -425.19272   -7116.2252    1668.2246   -653.43163   -22363.469    15.367962    13.309036    27.606918    5646.5189 
  180000      179.985     413.2198    16.985287   -442.15273   -425.16744   -8311.2666    -1163.403    374.44745   -24144.844    15.367964    13.309038    27.606901    5646.5171 
  180500      180.485    392.73001     16.14306    -441.2838   -425.14074   -6796.8853    -1339.735     1430.199    -20481.12    15.367966     13.30904    27.606883    5646.5152 
  181000      180.985    399.55669    16.423668   -441.53841   -425.11474   -7555.0374     -135.928   -1605.3418   -20923.842    15.367969    13.309042    27.606866    5646.5134 
  181500      181.485    386.86707    15.902065   -440.99122   -425.08915    -6312.727    1629.7622    861.36481   -21429.308    15.367971    13.309044    27.606848    5646.5116 
  182000      181.985    415.90561    17.095686   -442.15935   -425.06367   -8052.8107   -1100.3319    827.41898   -23885.519    15.367974    13.309046    27.606831    5646.5098 
  182500      182.485    421.83848    17.339555   -442.37707   -425.03751   -7669.5666   -299.68372   -537.91864   -22171.097    15.367976    13.309048    27.606813    5646.5079 
  183000      182.985    410.46433    16.872024   -441.88351   -425.01148   -7037.2672    -86.98328    969.57214    -21994.39    15.367978     13.30905    27.606796    5646.5061 
  183500      183.485    419.11715    17.227696   -442.21355   -424.98585   -8448.3144    565.88053   -389.16786   -25521.656    15.367981    13.309052    27.606778    5646.5043 
  184000      183.985    408.51544    16.791915   -441.75121    -424.9593   -7967.8149    1375.1266   -488.52516   -24790.046    15.367983    13.309054    27.606761    5646.5025 
  184500      184.485    414.96622    17.057073   -441.99063   -424.93356   -6451.6296    994.77219   -255.68192   -20093.979    15.367986    13.309056    27.606743    5646.5006 
  185000      184.985    398.89943    16.396652   -441.30389   -424.90724   -6476.3483   -463.78107     382.3935   -19347.657    15.367988    13.309058    27.606726    5646.4988 
  185500      185.485     407.5348    16.751606   -441.63262   -424.88102   -7165.8474    1138.8483    275.60369   -22911.994     15.36799     13.30906    27.606708     5646.497 
  186000      185.985    429.70063    17.662727   -442.51816   -424.85543    -7515.509    286.75906   -2283.3509   -20549.935    15.367993    13.309063    27.606691    5646.4951 
  186500      186.485    403.58452    16.589231   -441.41828   -424.82905    -7217.699   -1526.5561   -1144.6606    -18981.88    15.367995    13.309065    27.606673    5646.4933 
  187000      186.985    421.42283     17.32247   -442.12548   -424.80301   -8599.8495   -158.28179    441.59641   -26082.863    15.367998    13.309067    27.606656    5646.4915 
  187500      187.485    407.65672    16.756618   -441.53355   -424.77694   -5166.0553    979.66366    1600.2554   -18078.085       15.368    13.309069    27.606638    5646.4897 
  188000      187.985    410.87753    16.889008   -441.63965   -424.75064   -8763.0351   -173.53084   -1028.7796   -25086.795    15.368002    13.309071    27.606621    5646.4878 
  188500      188.485     409.6748    16.839571   -441.56325   -424.72368   -6443.6712    1560.4734     1081.371   -21972.858    15.368005    13.309073    27.606603     5646.486 
  189000      188.985    427.58664    17.575832   -442.27349   -424.69765   -7365.2513   -458.44732   -1358.1825   -20279.124    15.368007    13.309075    27.606586    5646.4842 
  189500      189.485    407.65133    16.756396   -441.42798   -424.67159   -8363.0659   -2209.8479   -2239.0765   -20640.273     15.36801    13.309077    27.606568    5646.4823 
  190000      189.985    419.03386    17.224272   -441.86929   -424.64502   -7846.0308   -412.52307   -1253.2684   -21872.301    15.368012    13.309079    27.606551    5646.4805 
  190500      190.485    418.17336    17.188901   -441.80834   -424.61944   -8319.6742    -1975.226   -1036.1466    -21947.65    15.368014    13.309081    27.606533    5646.4787 
  191000      190.985     401.8812    16.519216   -441.11175   -424.59254   -7584.0808     -2748.02   -592.57851   -19411.644    15.368017    13.309083    27.606516    5646.4769 
  191500      191.485     401.4447    16.501274   -441.06797    -424.5667   -7315.5295    688.36211    149.26259   -22784.213    15.368019    13.309085    27.606498     5646.475 
  192000      191.985    412.35826    16.949873   -441.48966   -424.53978   -6837.9846   -2790.9904     4073.508   -21796.472    15.368022    13.309087    27.606481    5646.4732 
  192500      192.485    396.45518    16.296182   -440.80972   -424.51354   -6436.7761     2732.103    163.85847    -22206.29    15.368024    13.309089    27.606463    5646.4714 
  193000      192.985    395.02393     16.23735   -440.72432   -424.48697   -5950.8349    892.01746    1763.8261   -20508.348    15.368026    13.309091    27.606446    5646.4696 
  193500      193.485    413.79499     17.00893   -441.46914   -424.46021   -7058.7732    229.66087    -433.9144   -20972.066    15.368029    13.309093    27.606428    5646.4677 
  194000      193.985    420.08757    17.267584   -441.70272   -424.43514   -6394.2629   -440.91309   -352.67815   -18389.197    15.368031    13.309095    27.606411    5646.4659 
  194500      194.485    409.77132    16.843538   -441.25164    -424.4081   -7120.7856    207.94821   -1905.1733   -19665.132    15.368034    13.309097    27.606393    5646.4641 
  195000      194.985    404.50138    16.626919   -441.00842    -424.3815    -7527.901    198.16313    1556.3117   -24338.178    15.368036    13.309099    27.606376    5646.4622 
  195500      195.485    421.80157    17.338038   -441.69301   -424.35497   -8187.7963   -933.09546    55.327323   -23685.621    15.368038    13.309101    27.606358    5646.4604 
  196000      195.985    402.35131     16.53854   -440.86596   -424.32742   -6933.2452   -1036.8736   -810.85071   -18952.011    15.368041    13.309104    27.606341    5646.4586 
  196500      196.485    398.32555    16.373063   -440.67426    -424.3012   -6058.1527    619.46747   -221.85276   -18572.073    15.368043    13.309106    27.606323    5646.4568 
  197000      196.985    436.30907    17.934365   -442.20944   -424.27507    -6225.912   -41.215818   -2121.3915   -16515.129    15.368046    13.309108    27.606306    5646.4549 
  197500      197.485    414.72623    17.047208   -441.29549   -424.24828   -5952.5293    1876.4512    3173.1354   -22907.174    15.368048     13.30911    27.606288    5646.4531 
  198000      197.985    418.04566    17.183652   -441.40586   -424.22221   -7143.7765   -995.99012    936.10523   -21371.445     15.36805    13.309112    27.606271    5646.4513 
  198500      198.485    424.03133    17.429692   -441.62507   -424.19538    -6719.364    1037.0696     1273.882   -22469.044    15.368053    13.309114    27.606253    5646.4494 
  199000      198.985    390.44986    16.049334   -440.21812   -424.16878   -6501.9543    2269.3136   -1810.1588   -19965.018    15.368055    13.309116    27.606236    5646.4476 
  199500      199.485    432.54388    17.779598    -441.9227   -424.14311   -7461.3472   -2415.2203     1942.909    -21911.73    15.368058    13.309118    27.606218    5646.4458 
  200000      199.985    409.07936    16.815095   -440.93045   -424.11536   -5583.3497    2181.0734    2819.7251   -21750.848     15.36806     13.30912    27.606201     5646.444 
  200500      200.485    414.44362    17.035591   -441.12345   -424.08786   -5720.5951    2258.5222   -3117.3821   -16302.925    15.368062    13.309122    27.606183    5646.4421 
  201000      200.985     419.0537    17.225088   -441.28644   -424.06136   -6450.2287    799.33844   -1837.3989   -18312.626    15.368065    13.309124    27.606166    5646.4403 
  201500      201.485    443.62657    18.235149   -442.27054   -424.03539   -7491.5636    687.86932   -409.78409   -22752.776    15.368067    13.309126    27.606148    5646.4385 
  202000      201.985    432.30257    17.769679   -441.77791   -424.00823   -6037.1557   -1898.0845    2440.2961   -18653.679     15.36807    13.309128    27.606131    5646.4367 
  202500      202.485    424.27007    17.439505   -441.42084   -423.98134   -6348.9344    383.28985    1583.3981   -21013.491    15.368072     13.30913    27.606113    5646.4348 
  203000      202.985    402.72791     16.55402   -440.50814   -423.95412   -6082.2365    2555.9829    475.94713   -21278.639    15.368074    13.309132    27.606096     5646.433 
  203500      203.485    402.51879    16.545425    -440.4729   -423.92747   -6395.3044    1007.6225    1854.2186   -22047.754    15.368077    13.309134    27.606078    5646.4312 
  204000      203.985     411.7104    16.923243   -440.82405   -423.90081   -7117.2279    603.17675    33.192188   -21988.053    15.368079    13.309136    27.606061    5646.4293 
  204500      204.485    434.79173    17.871995   -441.74615   -423.87416   -8061.2508    634.63706   -2077.8702   -22740.519    15.368082    13.309138    27.606043    5646.4275 
  205000      204.985    420.88022    17.300166   -441.14697   -423.84681   -6881.1507    362.07004   -81.789301   -20923.733    15.368084     13.30914    27.606026    5646.4257 
  205500      205.485    385.12629    15.830511   -439.64969   -423.81918   -6257.4607   -390.05806    859.37326   -19241.697    15.368086    13.309142    27.606008    5646.4239 
  206000      205.985    424.41401    17.445422   -441.23788   -423.79246   -7418.9734    388.10392   -1453.5549   -21191.469    15.368089    13.309145    27.605991     5646.422 
  206500      206.485    418.95137    17.220881   -440.98682   -423.76594   -5865.4126     2521.285    2138.2232   -22255.746    15.368091    13.309147    27.605973    5646.4202 
  207000      206.985    423.26382    17.398143   -441.13707   -423.73892   -7469.0252    2390.3644   -4002.6152   -20794.825    15.368094    13.309149    27.605956    5646.4184 
  207500      207.485    434.87286     17.87533   -441.58732   -423.71199   -6479.5316    -1240.075    253.06379   -18451.584    15.368096    13.309151    27.605938    5646.4165 
  208000      207.985    428.15716    17.599283   -441.28419    -423.6849   -8025.2855   -2335.8887    997.81284   -22737.781    15.368098    13.309153    27.605921    5646.4147 
  208500      208.485    415.97955    17.098726   -440.75696   -423.65823   -5971.8229    132.97494     2429.427   -20477.871    15.368101    13.309155    27.605903    5646.4129 
  209000      208.985    411.14188    16.899874   -440.53056   -423.63068   -5662.5186   -13.955899    991.36262   -17964.962    15.368103    13.309157    27.605886    5646.4111 
  209500      209.485    419.91106    17.260329   -440.86396   -423.60363   -7285.6503    584.36948    561.51473   -23002.835    15.368106    13.309159    27.605868    5646.4092 
  210000      209.985    427.51827    17.573021   -441.14914   -423.57612   -6858.1927    372.54213    351.74079   -21298.861    15.368108    13.309161    27.605851    5646.4074 
  210500      210.485    420.77676    17.295913   -440.84447   -423.54856   -7410.1443    168.66534    1259.4432   -23658.541     15.36811    13.309163    27.605833    5646.4056 
  211000      210.985    427.53572    17.573739   -441.09604    -423.5223   -7062.1082    344.46505    742.30088    -22273.09    15.368113    13.309165    27.605816    5646.4038 
  211500      211.485    427.93413    17.590115   -441.08524   -423.49513   -6707.0893    2533.0143    111.82534   -22766.107    15.368115    13.309167    27.605798    5646.4019 
  212000      211.985    425.81884    17.503167   -440.97096    -423.4678     -6885.16    926.24802   -280.73134   -21300.997    15.368118    13.309169    27.605781    5646.4001 
[...]
  948500      948.485    572.38095    23.527562   -435.95521   -412.42764   -2815.5459    6603.9257    3687.1417   -18737.705    15.371653    13.312189    27.580003    5643.7055 
  949000      948.985    560.00906    23.019019   -435.44221   -412.42319   -1733.9404    3021.1847    4757.5285   -12980.535    15.371655    13.312191    27.579986    5643.7037 
  949500      949.485    575.64674    23.661802   -436.08042   -412.41862   -735.51954    6007.8558    5213.3529   -13427.767    15.371658    13.312193    27.579968    5643.7018 
  950000      949.985    556.47833    22.873889   -435.28839    -412.4145   -679.47295    5887.5945    4192.3011   -12118.314     15.37166    13.312195    27.579951       5643.7 
  950500      950.485     560.0306    23.019904   -435.42997   -412.41006    247.56282    7784.7856    6510.6229    -13552.72    15.371662    13.312197    27.579933    5643.6982 
  951000      950.985    584.93128     24.04344   -436.44922   -412.40578   -2159.3397    6563.2174    2951.6409   -15992.877    15.371665    13.312199    27.579916    5643.6963 
  951500      951.485    531.19283    21.834536   -434.23562   -412.40108   -1098.1919    7364.5762    6314.6467   -16973.799    15.371667    13.312201    27.579898    5643.6945 
  952000      951.985    555.48837    22.833197   -435.22856   -412.39536   -122.05352    5911.7279    3696.4761   -9974.3645     15.37167    13.312203    27.579881    5643.6927 
  952500      952.485     594.4816    24.436004   -436.82811   -412.39211   -2471.8012    4606.9769    3242.4612   -15264.842    15.371672    13.312205    27.579863    5643.6908 
  953000      952.985    581.64811    23.908486   -436.29558    -412.3871   -605.55838     5019.561    3519.9859   -10356.222    15.371674    13.312207    27.579846     5643.689 
  953500      953.485    535.33429     22.00477   -434.38681   -412.38204   -481.40291    7257.6945    5578.1381   -14280.041    15.371677    13.312209    27.579828    5643.6872 
  954000      953.985    556.15086    22.860429   -435.23801   -412.37758   -1944.2203      5827.92    1689.8841   -13350.465    15.371679    13.312211    27.579811    5643.6853 
  954500      954.485    557.27296    22.906552   -435.27996   -412.37341   -114.16442    6367.8113    6080.5294   -12790.834    15.371682    13.312213    27.579793    5643.6835 
  955000      954.985    572.40786    23.528668   -435.89688   -412.36821    875.16261    5851.6001    9556.3316   -12782.444    15.371684    13.312215    27.579776    5643.6817 
  955500      955.485    546.06616      22.4459   -434.80917   -412.36327    -2019.235    5060.6095    2681.7216   -13800.036    15.371686    13.312217    27.579758    5643.6799 
  956000      955.985    555.32992    22.826684   -435.18472   -412.35803   -1305.3749    2567.0252    5430.6686   -11913.818    15.371689     13.31222    27.579741     5643.678 
  956500      956.485    584.04971    24.007203   -436.35999   -412.35278    -3472.626    591.37405    4050.8825   -15060.134    15.371691    13.312222    27.579723    5643.6762 
  957000      956.985    561.83045    23.093887   -435.44127   -412.34738   -1332.3306     4703.324    4641.3716   -13341.687    15.371694    13.312224    27.579706    5643.6744 
  957500      957.485    587.00551    24.128701   -436.47082   -412.34212   -3003.7473   -1488.1964    7001.8746    -14524.92    15.371696    13.312226    27.579688    5643.6725 
  958000      957.985    567.66638    23.333771   -435.67066   -412.33689   -534.30476    4196.1093    4792.2405   -10591.264    15.371698    13.312228    27.579671    5643.6707 
  958500      958.485    577.15364    23.723742   -436.05526   -412.33152   -2257.9433    1414.8295    6531.4636   -14720.123    15.371701     13.31223    27.579653    5643.6689 
  959000      958.985    580.44885    23.859191   -436.18544   -412.32625   -2979.2325    2799.0892    6236.7055   -17973.492    15.371703    13.312232    27.579636     5643.667 
  959500      959.485    570.70194    23.458547   -435.77859   -412.32004   -1274.3245    3821.3857    7816.8475   -15461.207    15.371706    13.312234    27.579618    5643.6652 
  960000      959.985    534.07832    21.953143   -434.26684    -412.3137     -501.248     6375.977    4592.9182   -12472.639    15.371708    13.312236    27.579601    5643.6634 
  960500      960.485    532.94298    21.906475   -434.21388    -412.3074   -393.63311    7659.0962    4630.7442    -13470.74     15.37171    13.312238    27.579583    5643.6615 
  961000      960.985    572.63229    23.537893   -435.83993   -412.30204   -1756.4264    248.75548    7317.8731   -12835.908    15.371713     13.31224    27.579566    5643.6597 
  961500      961.485    593.81059    24.408422   -436.70617   -412.29775   -2732.8866    3526.9233    7678.5308   -19404.114    15.371715    13.312242    27.579548    5643.6579 
  962000      961.985    599.78015    24.653799   -436.94515   -412.29135   -84.243687    5582.4148    7449.7065   -13284.852    15.371718    13.312244    27.579531    5643.6561 
  962500      962.485    566.80374    23.298312   -435.58297   -412.28465   -2973.2232     3508.985    2419.8935   -14848.548     15.37172    13.312246    27.579513    5643.6542 
  963000      962.985     535.5007     22.01161   -434.28833   -412.27672   -132.94964    894.32483    11468.264   -12761.438    15.371722    13.312248    27.579496    5643.6524 
  963500      963.485    600.01616      24.6635   -436.93612   -412.27262   -3034.5683    2337.1712    487.29516   -11928.171    15.371725     13.31225    27.579478    5643.6506 
  964000      963.985    592.68807    24.362281   -436.62804   -412.26576   -1307.5114    619.24851     7727.907    -12269.69    15.371727    13.312252    27.579461    5643.6487 
  964500      964.485    574.68751    23.622373   -435.88221   -412.25984   -1814.8034    2920.4528    4712.2642   -13077.127     15.37173    13.312254    27.579443    5643.6469 
  965000      964.985    578.26498    23.769424   -436.02285   -412.25343   -2296.5448    169.33055     4513.595    -11572.56    15.371732    13.312256    27.579426    5643.6451 
  965500      965.485    607.55084    24.973211   -437.22067   -412.24746   -2482.8807    541.81168    4946.6266    -12937.08    15.371734    13.312258    27.579408    5643.6432 
  966000      965.985    593.54569    24.397533   -436.63888   -412.24135   -2408.0052    5100.3007    2728.1599   -15052.476    15.371737    13.312261    27.579391    5643.6414 
  966500      966.485    575.51853    23.656532   -435.89076   -412.23422   -525.87257    4140.3397     6217.296   -11935.253    15.371739    13.312263    27.579373    5643.6396 
  967000      966.985    569.76703    23.420118   -435.64851   -412.22839   -1128.7759    4317.3309    4967.2429   -12670.901    15.371742    13.312265    27.579356    5643.6377 
  967500      967.485    568.79876    23.380317   -435.60285   -412.22253   -2928.8678    2345.9704    3428.8334   -14561.407    15.371744    13.312267    27.579338    5643.6359 
  968000      967.985    566.65368    23.292145   -435.50831   -412.21616   -519.80228    2577.4387    8405.5413   -12542.387    15.371746    13.312269    27.579321    5643.6341 
  968500      968.485    556.20889    22.862814   -435.07111   -412.20829   -1438.2809    2546.3188    4586.4972   -11447.659    15.371749    13.312271    27.579303    5643.6322 
  969000      968.985    575.04541    23.637084   -435.83966   -412.20258   -1462.1021    2091.7548    7791.8406   -14269.902    15.371751    13.312273    27.579286    5643.6304 
  969500      969.485    611.78475    25.147244   -437.34345    -412.1962   -2807.6506    4258.1651    7003.9475   -19685.064    15.371754    13.312275    27.579268    5643.6286 
  970000      969.985     566.0059    23.265518   -435.45492    -412.1894   -1646.5904    4375.5904    6964.0941   -16279.456    15.371756    13.312277    27.579251    5643.6268 
  970500      970.485    583.02262    23.964985   -436.14683   -412.18185   -1740.1746    2648.5598    1333.2891   -9202.3727    15.371758    13.312279    27.579233    5643.6249 
  971000      970.985    587.70971    24.157647   -436.33112   -412.17348    -2599.402    1971.2129    5811.9686   -15581.388    15.371761    13.312281    27.579216    5643.6231 
  971500      971.485    585.28026    24.057785   -436.22435   -412.16657   -2234.6151    4272.4816    3302.8914   -14279.218    15.371763    13.312283    27.579198    5643.6213 
  972000      971.985    604.10945    24.831754   -436.99358   -412.16183   -2875.7428    4971.3258    5516.1748   -19114.729    15.371766    13.312285    27.579181    5643.6194 
  972500      972.485    584.75661     24.03626   -436.18979   -412.15353   -843.19503    4665.7822    8751.3453   -15946.713    15.371768    13.312287    27.579163    5643.6176 
  973000      972.985    609.77749    25.064737   -437.21178   -412.14704   -1930.7533    1878.4286    2221.4298   -9892.1184     15.37177    13.312289    27.579146    5643.6158 
  973500      973.485     570.1661    23.436521   -435.57488   -412.13836   -2081.2956    1134.6111    3698.1181   -11076.616    15.371773    13.312291    27.579128    5643.6139 
  974000      973.985    561.76089    23.091027   -435.22198   -412.13095   -698.40098    5087.7128    5477.9171   -12660.833    15.371775    13.312293    27.579111    5643.6121 
  974500      974.485    585.40752    24.063016   -436.18587   -412.12285   -1508.1084    4657.1367    5990.7354   -15172.197    15.371778    13.312295    27.579093    5643.6103 
  975000      974.985    563.91714    23.179659   -435.29471   -412.11505    -2180.927    1735.8983    6714.7655   -14993.445     15.37178    13.312297    27.579076    5643.6084 
  975500      975.485    567.17548    23.313593   -435.42122   -412.10763   -1763.6611     5312.022    6340.7906   -16943.796    15.371782    13.312299    27.579058    5643.6066 
  976000      975.985    594.84593    24.450979    -436.5495   -412.09852   -1458.1899    4768.4473    4267.2422   -13410.259    15.371785    13.312302    27.579041    5643.6048 
  976500      976.485    610.75297    25.104834   -437.19541   -412.09058   -2642.1438    3956.0169    4365.0475   -16247.496    15.371787    13.312304    27.579023     5643.603 
  977000      976.985    549.75678    22.597602   -434.68044   -412.08284   -1291.4193     2884.746      2664.96   -9423.9639     15.37179    13.312306    27.579006    5643.6011 
  977500      977.485    568.39305    23.363641   -435.43872   -412.07508   -787.67012    3663.1582     8091.066   -14117.235    15.371792    13.312308    27.578988    5643.5993 
  978000      977.985    541.75013    22.268491   -434.33607   -412.06758   -1775.7907    3538.3084    5885.5361   -14751.217    15.371794     13.31231    27.578971    5643.5975 
  978500      978.485    575.20002    23.643439   -435.70271   -412.05927    -1597.476    3716.7576    8363.5467   -16872.732    15.371797    13.312312    27.578953    5643.5956 
  979000      978.985    599.77044      24.6534   -436.70531   -412.05192   -2461.5391    4196.5802    4416.1061   -15997.303    15.371799    13.312314    27.578936    5643.5938 
  979500      979.485    549.43535     22.58439   -434.62738   -412.04299    81.168635    4981.4818    5780.6466   -10518.623    15.371802    13.312316    27.578918     5643.592 
  980000      979.985    547.37733    22.499795   -434.53515   -412.03535   -2018.6602     4198.581    5721.1312   -15975.693    15.371804    13.312318    27.578901    5643.5901 
  980500      980.485    539.31253    22.168294   -434.19518   -412.02689    71.419879    5315.7175    6318.8058   -11420.264    15.371806     13.31232    27.578883    5643.5883 
  981000      980.985    575.57502    23.658853   -435.67716   -412.01831   -2377.8886    6752.4819     3294.142    -17180.29    15.371809    13.312322    27.578866    5643.5865 
  981500      981.485    593.21969    24.384133   -436.39429   -412.01015   -2994.3722    2709.9557    5314.6288   -17007.701    15.371811    13.312324    27.578848    5643.5846 
  982000      981.985    583.87522    24.000031    -436.0007   -412.00067   -1578.3548     4446.841    3978.3896   -13160.295    15.371814    13.312326    27.578831    5643.5828 
  982500      982.485     578.4229    23.775915   -435.76734   -411.99142   -1848.5326    3535.8401    9725.1161   -18806.554    15.371816    13.312328    27.578813     5643.581 
  983000      982.985    564.72487    23.212861   -435.19525   -411.98238   -288.39245      5872.55    7347.2133   -14084.941    15.371818     13.31233    27.578796    5643.5792 
  983500      983.485    589.81536    24.244199   -436.21899    -411.9748   -772.15333    3155.8309    6947.8282   -12420.119    15.371821    13.312332    27.578778    5643.5773 
  984000      983.985     577.9219    23.755321   -435.72153   -411.96621   -1246.2625    4754.7808    4158.2964   -12651.865    15.371823    13.312334    27.578761    5643.5755 
  984500      984.485    595.04567    24.459189   -436.41685   -411.95767   -1019.8751    5475.0798    3408.3973   -11943.102    15.371826    13.312336    27.578743    5643.5737 
  985000      984.985    597.46778    24.558749   -436.50888   -411.95013   -1329.9047    6431.1426    3471.6328    -13892.49    15.371828    13.312338    27.578726    5643.5718 
  985500      985.485    571.65022    23.497526   -435.43786   -411.94033   -745.92518    5575.3695    7103.8359   -14916.981     15.37183     13.31234    27.578708      5643.57 
  986000      985.985    574.46742    23.613326   -435.54501   -411.93169   -1166.1937    3855.4605    2510.2209   -9864.2624    15.371833    13.312343    27.578691    5643.5682 
  986500      986.485    558.95986    22.975892   -434.89807   -411.92218   -470.82755    6328.8259    7451.6403   -15192.949    15.371835    13.312345    27.578673    5643.5663 
  987000      986.985    568.05168    23.349609   -435.26339   -411.91378   -789.53778    5460.7131    5628.1274   -13457.454    15.371838    13.312347    27.578656    5643.5645 
  987500      987.485    581.46718    23.901049   -435.80474   -411.90369   -2883.5653    7651.2934    2580.6628   -18882.652     15.37184    13.312349    27.578638    5643.5627 
  988000      987.985    580.72295    23.870458   -435.76531   -411.89485   -1893.9635     2507.139    3364.2958   -11553.325    15.371842    13.312351    27.578621    5643.5608 
  988500      988.485    573.77229    23.584753   -435.46987   -411.88512   -1384.0374     2468.037    9134.1522   -15754.302    15.371845    13.312353    27.578603     5643.559 
  989000      988.985    550.01474    22.608205   -434.48493   -411.87672   -1692.6411    6280.8016    5700.5853    -17059.31    15.371847    13.312355    27.578586    5643.5572 
  989500      989.485     552.6793    22.717731   -434.58495   -411.86722    -1198.794    4904.1719    4467.8655   -12968.419     15.37185    13.312357    27.578568    5643.5554 
  990000      989.985    558.27224    22.947628   -434.80624   -411.85861   -1417.8194    3130.7898    7547.6116   -14931.859    15.371852    13.312359    27.578551    5643.5535 
  990500      990.485    573.22822    23.562389   -435.41168   -411.84929   -1669.0249    3555.8596    7377.4815   -15940.416    15.371854    13.312361    27.578533    5643.5517 
  991000      990.985    585.25055    24.056564   -435.89634   -411.83978   -142.10344    6436.6799    7715.5254   -14578.516    15.371857    13.312363    27.578516    5643.5499 
  991500      991.485    590.24467    24.261845    -436.0922   -411.83035    -2288.672    4870.8493    5926.1084   -17662.974    15.371859    13.312365    27.578498     5643.548 
  992000      991.985    564.87742    23.219132   -435.03941   -411.82028    1001.7806    7299.8574    4600.7194   -8895.2351    15.371862    13.312367    27.578481    5643.5462 
  992500      992.485    578.54767    23.781043   -435.59175   -411.81071   -2623.2947    3521.4594    3908.4516   -15299.795    15.371864    13.312369    27.578463    5643.5444 
  993000      992.985    568.86291    23.382954   -435.18398   -411.80103   -43.309654    3294.9826    10076.354   -13501.266    15.371866    13.312371    27.578446    5643.5425 
  993500      993.485    558.78719    22.968794   -434.75956   -411.79076   -1532.2021    5238.9005     6111.989   -15947.496    15.371869    13.312373    27.578428    5643.5407 
  994000      993.985     604.8762     24.86327   -436.64523   -411.78196   -2153.0489    4888.3229    4301.3499   -15648.819    15.371871    13.312375    27.578411    5643.5389 
  994500      994.485     560.1735    23.025778    -434.7974   -411.77162   -1427.2645    2715.7316    2649.0913   -9646.6163    15.371874    13.312377    27.578393     5643.537 
  995000      994.985    570.58886    23.453899   -435.21478   -411.76089   -780.26267    1199.9395    7232.5417   -10773.269    15.371876    13.312379    27.578376    5643.5352 
  995500      995.485    610.70486    25.102856   -436.85315    -411.7503   -2915.7928     4517.796    4251.4788   -17516.653    15.371878    13.312381    27.578358    5643.5334 
  996000      995.985    560.46349    23.037698   -434.77638   -411.73868   -2156.2008     4804.426    7879.3889   -19152.417    15.371881    13.312384    27.578341    5643.5315 
  996500      996.485    561.15538    23.066138   -434.79376   -411.72763    289.53361    7618.9723    4428.9308   -11179.302    15.371883    13.312386    27.578323    5643.5297 
  997000      996.985    573.33004    23.566574   -435.28495   -411.71838   -2445.8007    3785.8922    4883.0822   -16006.377    15.371886    13.312388    27.578306    5643.5279 
  997500      997.485    578.26747    23.769526   -435.47768   -411.70815   -2031.9415    3174.3813    5676.2044    -14946.41    15.371888     13.31239    27.578288    5643.5261 
  998000      997.985    604.43814    24.845264   -436.54435   -411.69908   -3054.7218    1150.7402    7557.8653   -17872.771     15.37189    13.312392    27.578271    5643.5242 
  998500      998.485    570.02286    23.430634    -435.1188   -411.68817   -1166.1399    2054.6272     6593.287   -12146.334    15.371893    13.312394    27.578253    5643.5224 
  999000      998.985    538.79608    22.147065    -433.8233   -411.67623   -1296.8539    5526.0928    5156.9534   -14573.608    15.371895    13.312396    27.578236    5643.5206 
  999500      999.485    581.61677    23.907198   -435.57591   -411.66871   -883.51458    3814.7309    5256.4923   -11721.767    15.371898    13.312398    27.578218    5643.5187 
 1000000      999.985    579.74002    23.830055   -435.48892   -411.65886    -988.2601    2053.8637    7530.1491   -12548.793      15.3719      13.3124    27.578201    5643.5169 
 1000015         1000    570.04806    23.431669   -435.08947    -411.6578   -224.55508    4226.7985    6974.5964    -11875.06      15.3719      13.3124      27.5782    5643.5168 
Loop time of 916.392 on 28 procs for 1000000 steps with 319 atoms

Performance: 94.283 ns/day, 0.255 hours/ns, 1091.237 timesteps/s
87.6% CPU use with 28 MPI tasks x no OpenMP threads

MPI task timing breakdown:
Section |  min time  |  avg time  |  max time  |%varavg| %total
---------------------------------------------------------------
Pair    | 761.25     | 796.69     | 829.94     |  63.2 | 86.94
Neigh   | 0.031756   | 0.046918   | 0.060332   |   3.8 |  0.01
Comm    | 75.672     | 106.66     | 141.84     | 166.0 | 11.64
Output  | 0.09994    | 0.10211    | 0.12393    |   1.4 |  0.01
Modify  | 4.7623     | 7.7873     | 13.251     |  91.4 |  0.85
Other   |            | 5.105      |            |       |  0.56

Nlocal:    11.3929 ave 16 max 5 min
Histogram: 1 1 0 6 2 5 4 1 4 4
Nghost:    640.607 ave 688 max 586 min
Histogram: 3 5 0 0 5 1 3 5 4 2
Neighs:    703.786 ave 948 max 289 min
Histogram: 1 0 1 3 4 4 3 3 3 6
FullNghs:  1407.57 ave 1987 max 604 min
Histogram: 1 1 0 6 2 5 4 1 5 3

Total # of neighbors = 39412
Ave neighs/atom = 123.549
Neighbor list builds = 700
Dangerous builds = 0

write_restart   POSCAR_1x1x1.rest

#unfix    1
#undump   1
Total wall time: 0:15:16
