LAMMPS (7 Dec 2015)
#----------- Initialize Simulation ------------ restart01
#processors	2 2 2
units		metal
boundary	p p p     ## periodic boundary condition  on x y z axis ##
atom_style atomic
#atom_modify map array sort 0 0.0

read_data	POSCAR_1x1x1.lammps
  triclinic box = (0 0 0) to (15.3243 13.2712 27.9281) with tilt (-7.66205 0 0)
  2 by 2 by 7 MPI processor grid
  reading atoms ...
  319 atoms

#----------- Define Potential -----------------
pair_style meam
pair_coeff * * MgAlZn.library.meam Mg Al Zn MgAlZn.parameter.meam Mg Al Zn 	#1=Mg 2=Al 3=Zn	#atoms/mass

#----------- Neighbor List --------------------
neighbor 2.0 bin
neigh_modify delay 10 check yes

#--------------  Run a simulation (minimization) ---------------------------------------
minimize       1.0e-4   1.0e-6   100   1000          #結構優化的條件
WARNING: Resetting reneighboring criteria during minimization (../min.cpp:168)
Neighbor list info ...
  2 neighbor list requests
  update every 1 steps, delay 0 steps, check yes
  max neighbors/atom: 2000, page size: 100000
  master list distance cutoff = 8
  ghost atom cutoff = 8
  binsize = 4 -> bins = 6 4 7
Memory usage per processor = 8.65781 Mbytes
Step Temp E_pair E_mol TotEng Press 
       0            0   -433.01535            0   -433.01535   -5455.9196 
      14            0   -454.88965            0   -454.88965   -22776.906 
Loop time of 0.0238473 on 28 procs for 14 steps with 319 atoms

88.8% CPU use with 28 MPI tasks x no OpenMP threads

Minimization stats:
  Stopping criterion = energy tolerance
  Energy initial, next-to-last, final = 
         -433.01535428     -454.853979599       -454.8896469
  Force two-norm initial, final = 19.8473 0.711087
  Force max component initial, final = 4.26589 0.151687
  Final line search alpha, max atom move = 0.30108 0.0456699
  Iterations, force evaluations = 14 26

MPI task timing breakdown:
Section |  min time  |  avg time  |  max time  |%varavg| %total
---------------------------------------------------------------
Pair    | 0.018971   | 0.020218   | 0.021418   |   0.4 | 84.78
Neigh   | 0          | 0          | 0          |   0.0 |  0.00
Comm    | 0.0013849  | 0.0025981  | 0.0038535  |   1.2 | 10.89
Output  | 0          | 0          | 0          |   0.0 |  0.00
Modify  | 0          | 0          | 0          |   0.0 |  0.00
Other   |            | 0.001031   |            |       |  4.32

Nlocal:    11.3929 ave 16 max 6 min
Histogram: 1 1 4 1 3 5 3 2 3 5
Nghost:    642.643 ave 692 max 585 min
Histogram: 3 5 0 1 3 4 0 4 4 4
Neighs:    699.429 ave 987 max 362 min
Histogram: 2 2 3 1 6 3 2 1 5 3
FullNghs:  1398.86 ave 1971 max 731 min
Histogram: 1 4 1 4 4 2 3 2 4 3

Total # of neighbors = 39168
Ave neighs/atom = 122.784
Neighbor list builds = 0
Dangerous builds = 0
velocity all  create 600.0 4928459 #rot yes dist gaussian

#--------------  Run a simulation (Relaxation)  ----------------------------------------
fix  1  all  nvt   temp  600.0  600.0  100				#damping constant
#fix  2  all  npt   temp  393.0  393.0  50 iso 0.0 0.0 1000.0
fix  2  all deform 1 x final 0 15.3291 y final 0 13.2754 z final 0 27.8931 xy final -7.66445 units lattice
#fix  3  all  npt   temp  393.0  393.0  50 z 0.0 0.0 1000.0

#variable b equal 1
#fix 2 all efield  0.0  0.0  v_b
#compute pot all pe/atom


#----------- Output --------------------------
thermo	 500
timestep  0.001		#1.0 fs
thermo_style	custom step time temp ke pe etotal press pxx pyy pzz lx ly lz vol

dump 1 all custom 10000 dump.eq id type x y z
dump_modify 1 sort  id

run        1000000	#1000 ps
Neighbor list info ...
  2 neighbor list requests
  update every 1 steps, delay 10 steps, check yes
  max neighbors/atom: 2000, page size: 100000
  master list distance cutoff = 8
  ghost atom cutoff = 8
  binsize = 4 -> bins = 6 4 7
Memory usage per processor = 7.56375 Mbytes
Step Time Temp KinEng PotEng TotEng Press Pxx Pyy Pzz Lx Ly Lz Volume 
      14            0          600    24.662836   -454.88965   -430.22681   -18138.915   -6131.4205   -9142.1852    -39143.14      15.3243      13.2712      27.9281    5679.7894 
     500        0.486     307.8432     12.65381    -442.8762   -430.22239   -11496.102    -1600.337    151.64625   -33039.615    15.324302    13.271202    27.928083    5679.7876 
    1000        0.986    307.52183    12.640601   -442.86288   -430.22227   -12878.998   -3164.4226    -4727.411   -30745.161    15.324305    13.271204    27.928065    5679.7859 
    1500        1.486    331.76144    13.636963    -443.8593   -430.22234   -11175.353    371.17656    -3795.098   -30102.138    15.324307    13.271206    27.928048    5679.7841 
    2000        1.986    322.22489    13.244966   -443.46612   -430.22116   -11090.787   -1431.9319    -1259.819   -30580.611     15.32431    13.271208     27.92803    5679.7823 
    2500        2.486    313.49848    12.886269   -443.10644   -430.22018   -12158.594    107.74807   -6018.2032   -30565.327    15.324312     13.27121    27.928013    5679.7806 
    3000        2.986    322.41751    13.252884   -443.47136   -430.21848   -12497.313   -490.84267   -3093.8563    -33907.24    15.324314    13.271213    27.927995    5679.7788 
    3500        3.486    309.89284     12.73806   -442.95415   -430.21609   -11495.328    -1552.831   -340.35609   -32592.796    15.324317    13.271215    27.927978     5679.777 
    4000        3.986    299.60875    12.315335   -442.52878   -430.21344   -10697.196   -1799.5825   -3540.2194   -26751.787    15.324319    13.271217     27.92796    5679.7753 
    4500        4.486    333.49437    13.708195   -443.92018   -430.21198   -12211.861    -2432.219   -3623.1866   -30580.176    15.324322    13.271219    27.927943    5679.7735 
    5000        4.986    319.00128     13.11246   -443.32092   -430.20846   -11214.181    1300.8827   -2238.1579   -32705.268    15.324324    13.271221    27.927925    5679.7717 
    5500        5.486    327.00054    13.441268    -443.6469   -430.20564   -11552.189   -1850.0993   -1805.5366   -31000.932    15.324326    13.271223    27.927908    5679.7699 
    6000        5.986    323.48473    13.296751    -443.4987   -430.20195   -11237.809   -1405.5714   -1972.3722   -30335.484    15.324329    13.271225     27.92789    5679.7682 
    6500        6.486    327.09103    13.444987   -443.64333   -430.19834   -11056.663   -1126.4603   -1418.1388   -30625.389    15.324331    13.271227    27.927873    5679.7664 
    7000        6.986    319.93441    13.150816   -443.34505   -430.19424   -12185.237    -1853.845   -688.91471   -34012.952    15.324334    13.271229    27.927855    5679.7646 
    7500        7.486    323.96509    13.316496   -443.50655   -430.19005   -11345.157    1802.0177   -3522.4168   -32315.071    15.324336    13.271231    27.927838    5679.7629 
    8000        7.986    313.31067    12.878549   -443.06341   -430.18486    -10540.28   -1609.2799    -2179.871    -27831.69    15.324338    13.271234     27.92782    5679.7611 
    8500        8.486    306.99084    12.618774   -442.79869   -430.17991   -11030.624   -1049.8143   -3685.0219   -28357.036    15.324341    13.271236    27.927803    5679.7593 
    9000        8.986    306.32192    12.591279   -442.76585   -430.17457   -10469.186    136.94651   -2278.5092   -29265.994    15.324343    13.271238    27.927785    5679.7575 
    9500        9.486    315.47342    12.967449   -443.13633   -430.16889    -11523.96   -954.46621   -3675.7218   -29941.692    15.324346     13.27124    27.927768    5679.7558 
   10000        9.986     313.4791    12.885472   -443.04847   -430.16299   -11634.127   -1111.7841   -3164.2112   -30626.386    15.324348    13.271242     27.92775     5679.754 
   10500       10.486    333.03097    13.689147   -443.84666   -430.15752   -11128.253     626.5313   -3065.1902   -30946.099     15.32435    13.271244    27.927733    5679.7522 
   11000       10.986    319.15619    13.118828   -443.26924   -430.15041   -11455.706   -1110.7167   -2782.4832   -30473.919    15.324353    13.271246    27.927715    5679.7505 
   11500       11.486    306.04424    12.579865   -442.72306   -430.14319   -11346.384   -2091.8573   -2513.7555   -29433.539    15.324355    13.271248    27.927698    5679.7487 
   12000       11.986    304.94698    12.534762   -442.67125   -430.13649   -10673.026   -683.06385   -1392.0469   -29943.966    15.324358     13.27125     27.92768    5679.7469 
   12500       12.486     307.6888    12.647464   -442.77594   -430.12848   -10889.667    586.17168   -2413.2328    -30841.94     15.32436    13.271252    27.927663    5679.7451 
   13000       12.986    318.12212    13.076323   -443.19735   -430.12103   -10177.391    1840.3795   -1464.9353   -30907.618    15.324362    13.271255    27.927645    5679.7434 
   13500       13.486     314.2623    12.917666   -443.03011   -430.11244   -10767.786    687.65872   -2000.4824   -30990.535    15.324365    13.271257    27.927628    5679.7416 
   14000       13.986    316.64997     13.01581   -443.12004   -430.10423   -11693.912   -1173.0293   -2297.2494   -31611.459    15.324367    13.271259     27.92761    5679.7398 
   14500       14.486    328.35584    13.496977   -443.59289   -430.09591   -11765.017    -1577.099    -3145.373   -30572.578     15.32437    13.271261    27.927593    5679.7381 
   15000       14.986    322.55618    13.258583   -443.34452   -430.08594   -11437.976   -1183.8881   -4033.7426   -29096.297    15.324372    13.271263    27.927575    5679.7363 
   15500       15.486    318.19953    13.079505   -443.15615   -430.07665   -11223.998   -514.64501    -2447.778    -30709.57    15.324374    13.271265    27.927558    5679.7345 
   16000       15.986     316.8292    13.023178   -443.09037    -430.0672   -11605.691   -2858.4194   -1780.2925    -30178.36    15.324377    13.271267     27.92754    5679.7328 
   16500       16.486    308.19146    12.668125   -442.72557   -430.05744   -10915.045    8.7739738   -2736.1341   -30017.776    15.324379    13.271269    27.927523     5679.731 
   17000       16.986    307.66225    12.646373   -442.69339   -430.04702   -11251.567   -754.45349   -3466.7302   -29533.518    15.324382    13.271271    27.927505    5679.7292 
   17500       17.486     310.0182    12.743213   -442.77943   -430.03622   -10733.133   -74.902056   -3950.3312   -28174.165    15.324384    13.271273    27.927488    5679.7274 
   18000       17.986    318.78086      13.1034   -443.12889   -430.02549   -10792.268      1675.52   -5340.2044   -28712.121    15.324386    13.271276     27.92747    5679.7257 
   18500       18.486    325.33065    13.372627   -443.38769   -430.01506   -11458.992   -945.55009   -3652.9515   -29778.473    15.324389    13.271278    27.927453    5679.7239 
   19000       18.986    315.22954    12.957424   -442.96028   -430.00285   -11319.493   -284.56201   -1357.9314   -32315.986    15.324391     13.27128    27.927435    5679.7221 
   19500       19.486    320.22124    13.162606   -443.15371    -429.9911   -11481.214    -1094.647   -1873.3448   -31475.651    15.324394    13.271282    27.927418    5679.7204 
   20000       19.986    314.37824    12.922432   -442.90135   -429.97891   -10034.566    1554.0928   -2179.0954   -29478.696    15.324396    13.271284      27.9274    5679.7186 
   20500       20.486    334.28467     13.74068   -443.70755   -429.96687   -11560.197   -1100.0718   -330.18471   -33250.334    15.324398    13.271286    27.927383    5679.7168 
   21000       20.986    311.42823    12.801172   -442.75536   -429.95418   -11873.421   -724.38824   -2477.6203   -32418.254    15.324401    13.271288    27.927365     5679.715 
   21500       21.486    327.07164     13.44419   -443.38597   -429.94178   -11329.678   -852.17778   -2302.5655   -30834.291    15.324403     13.27129    27.927348    5679.7133 
   22000       21.986    335.18187    13.777559   -443.70612   -429.92856   -10071.155    36.328391   -3556.4265   -26693.368    15.324406    13.271292     27.92733    5679.7115 
   22500       22.486    330.30759    13.577203   -443.49209   -429.91489   -11629.437   -1331.5694   -3411.5664   -30145.176    15.324408    13.271294    27.927313    5679.7097 
   23000       22.986     313.4987    12.886278   -442.78752   -429.90124   -11255.873   -1235.0221   -963.13861   -31569.458     15.32441    13.271297    27.927295     5679.708 
   23500       23.486    301.26502    12.383416   -442.27007   -429.88665   -10494.949    1862.5117   -1170.1019   -32177.258    15.324413    13.271299    27.927278    5679.7062 
   24000       23.986    326.72073    13.429766   -443.30303   -429.87327   -11387.634    -1555.903   -1711.3757   -30895.624    15.324415    13.271301     27.92726    5679.7044 
   24500       24.486    323.81023    13.310131   -443.16832   -429.85819   -11079.904     498.0395   -1638.7333   -32099.017    15.324418    13.271303    27.927243    5679.7027 
   25000       24.986    315.84074    12.982547   -442.82588   -429.84334   -11456.076   -365.75117   -2164.2097   -31838.268     15.32442    13.271305    27.927225    5679.7009 
   25500       25.486    317.65602    13.057164   -442.88567    -429.8285   -12069.538   -1278.0901   -3772.8092   -31157.714    15.324422    13.271307    27.927208    5679.6991 
   26000       25.986    344.55652    14.162901   -443.97618   -429.81328   -11766.089   -2527.4733   -3024.8378   -29745.955    15.324425    13.271309     27.92719    5679.6973 
   26500       26.486    319.30741    13.125044   -442.92204     -429.797   -10735.302    18.152781   -3947.6342   -28276.425    15.324427    13.271311    27.927173    5679.6956 
   27000       26.986    309.57078    12.724822   -442.50606   -429.78124    -10891.36    -1175.104    839.74181   -32338.717     15.32443    13.271313    27.927155    5679.6938 
   27500       27.486    308.78575    12.692554   -442.45774   -429.76519   -9883.4648    117.98612    608.72285   -30377.103    15.324432    13.271315    27.927138     5679.692 
   28000       27.986     322.5284    13.257441   -443.00683   -429.74939   -12225.389   -253.56909    56.892052   -36479.489    15.324434    13.271318     27.92712    5679.6903 
   28500       28.486    331.54108    13.627905   -443.36074   -429.73284   -10686.119   -1063.0074    409.68395   -31405.034    15.324437     13.27132    27.927103    5679.6885 
   29000       28.986    341.39986    14.033148   -443.74943   -429.71628   -11531.085   -350.31029   -2912.7086   -31330.237    15.324439    13.271322    27.927085    5679.6867 
   29500       29.486    326.08282    13.403545   -443.10283   -429.69928   -11811.752    825.27408   -3550.6607   -32709.868    15.324442    13.271324    27.927068    5679.6849 
   30000       29.986    326.21759    13.409085   -443.09163   -429.68254   -11407.524    75.134354   -688.03722   -33609.669    15.324444    13.271326     27.92705    5679.6832 
   30500       30.486    325.37463    13.374435   -443.03975   -429.66532   -11245.103   -2096.1264   -512.10106   -31127.081    15.324446    13.271328    27.927033    5679.6814 
   31000       30.986    320.59118    13.177812   -442.82568   -429.64787   -9945.5563   -614.41488    596.98542   -29819.239    15.324449     13.27133    27.927015    5679.6796 
   31500       31.486    335.44418    13.788341   -443.41895   -429.63061   -11673.524    646.15914   -3309.4453   -32357.286    15.324451    13.271332    27.926998    5679.6779 
   32000       31.986    323.26436    13.287693   -442.89974   -429.61205   -11420.506    887.93415   -1262.0909   -33887.363    15.324454    13.271334     27.92698    5679.6761 
   32500       32.486    336.77255    13.842944   -443.43767   -429.59473   -11401.408   -152.27451   -1379.1286   -32672.821    15.324456    13.271336    27.926963    5679.6743 
   33000       32.986    326.39273    13.416284   -442.99232   -429.57604   -11057.483   -853.05342   -781.19533   -31538.201    15.324458    13.271339    27.926945    5679.6725 
   33500       33.486    318.51694    13.092552   -442.65068   -429.55813   -11561.064   -772.53376   -2745.3445   -31165.314    15.324461    13.271341    27.926928    5679.6708 
   34000       33.986    320.39507    13.169751    -442.7099   -429.54014   -10450.754   -19.456493    -3235.559   -28097.246    15.324463    13.271343     27.92691     5679.669 
   34500       34.486    320.70322    13.182418   -442.70426   -429.52184   -10694.791   -375.20624   -1676.9743   -30032.194    15.324466    13.271345    27.926893    5679.6672 
   35000       34.986    338.84055    13.927948   -443.43142   -429.50348   -11358.199   -409.34026   -2082.2474    -31583.01    15.324468    13.271347    27.926875    5679.6655 
   35500       35.486      322.811    13.269058   -442.75335   -429.48429   -10322.118   -1671.8811   -560.42569   -28734.047     15.32447    13.271349    27.926858    5679.6637 
   36000       35.986    322.75282    13.266666   -442.73241   -429.46575   -10761.903   -463.36853   -1087.7614   -30734.578    15.324473    13.271351     27.92684    5679.6619 
   36500       36.486     312.1898    12.832476    -442.2793   -429.44682   -11784.799    54.938932   -745.98936   -34663.348    15.324475    13.271353    27.926823    5679.6602 
   37000       36.986     338.0462    13.895296   -443.32372   -429.42842   -10107.911    461.48797   -2733.6056   -28051.615    15.324478    13.271355    27.926805    5679.6584 
   37500       37.486    331.66875    13.633153   -443.04212   -429.40896   -12143.589    -2663.541   -671.43595   -33095.789     15.32448    13.271357    27.926788    5679.6566 
   38000       37.986     328.2463    13.492474   -442.88272   -429.39024   -12346.436    1196.0262   -4882.5649   -33352.768    15.324482     13.27136     27.92677    5679.6548 
   38500       38.486    335.20596    13.778549   -443.14996   -429.37141   -10066.398    98.277707   -1251.1206   -29046.352    15.324485    13.271362    27.926753    5679.6531 
   39000       38.986    323.71152    13.306073   -442.65815   -429.35208   -11016.702   -403.82843   -4059.9815   -28586.295    15.324487    13.271364    27.926735    5679.6513 
   39500       39.486     329.5956    13.547937   -442.88104    -429.3331   -10348.017   -728.73529   -1287.8029   -29027.512     15.32449    13.271366    27.926718    5679.6495 
   40000       39.986     315.1682    12.954902   -442.26863   -429.31373   -10423.701    701.52329   -1652.7887   -30319.838    15.324492    13.271368      27.9267    5679.6478 
   40500       40.486    326.74881     13.43092   -442.72579   -429.29487   -11378.598   -1072.0456   -1793.2555   -31270.492    15.324494     13.27137    27.926683     5679.646 
   41000       40.986    326.68744    13.428398   -442.70439   -429.27599   -10466.492   -1093.6194   -631.83264   -29674.024    15.324497    13.271372    27.926665    5679.6442 
   41500       41.486    298.39495    12.265443   -441.52177   -429.25632   -10767.905   -829.91111   -1768.0957   -29705.707    15.324499    13.271374    27.926648    5679.6424 
   42000       41.986    341.32393    14.030027   -443.26834   -429.23831   -10844.228   -1670.1649   -1623.3991   -29239.119    15.324502    13.271376     27.92663    5679.6407 
   42500       42.486    292.02306    12.003528   -441.22175   -429.21822   -10349.585    320.50764   -922.42248   -30446.839    15.324504    13.271378    27.926613    5679.6389 
   43000       42.986    333.92414     13.72586   -442.92593   -429.20007   -9747.0849   -203.08889    992.99589   -30031.162    15.324506    13.271381    27.926595    5679.6371 
   43500       43.486    335.36183    13.784956   -442.96578   -429.18083   -10914.429     118.5472   -2469.3196   -30392.513    15.324509    13.271383    27.926578    5679.6354 
   44000       43.986    340.48259    13.995444    -443.1573   -429.16185   -11735.533   -1329.4165   -3476.8481   -30400.335    15.324511    13.271385     27.92656    5679.6336 
   44500       44.486    334.65603    13.755945   -442.89871   -429.14276   -10638.257    1157.6036   -2969.5743   -30102.802    15.324514    13.271387    27.926543    5679.6318 
   45000       44.986    330.93439    13.602967   -442.72684   -429.12388   -9679.5679    1191.4569   -2028.0484   -28202.112    15.324516    13.271389    27.926525      5679.63 
   45500       45.486    345.10324    14.185374   -443.29063   -429.10525   -11809.148   -1446.7623   -5128.6723   -28852.009    15.324518    13.271391    27.926508    5679.6283 
   46000       45.986    336.00962    13.811584   -442.89781   -429.08623   -10293.695   -533.71977   -1254.3369   -29093.029    15.324521    13.271393     27.92649    5679.6265 
   46500       46.486    318.69802    13.099995   -442.16721   -429.06721   -9795.0508    2072.6194   -2201.5325   -29256.239    15.324523    13.271395    27.926473    5679.6247 
   47000       46.986    330.84363    13.599237   -442.64778   -429.04855   -10514.665   -216.76852   -1993.3324   -29333.893    15.324526    13.271397    27.926455     5679.623 
   47500       47.486    328.29385    13.494429   -442.52445   -429.03002   -11153.597    114.82397   -1448.5016   -32127.113    15.324528    13.271399    27.926438    5679.6212 
   48000       47.986    332.98885    13.687416   -442.69937   -429.01195   -10522.244   -11.689951   -1173.4276   -30381.615     15.32453    13.271402     27.92642    5679.6194 
   48500       48.486    324.71089    13.347152   -442.34066   -428.99351   -11297.461   -1432.2741   -2338.9661   -30121.143    15.324533    13.271404    27.926403    5679.6176 
   49000       48.986    321.74908    13.225408   -442.20052   -428.97511   -10052.164     1972.198   -418.14659   -31710.544    15.324535    13.271406    27.926385    5679.6159 
   49500       49.486     323.9748    13.316895   -442.27419   -428.95729   -10908.305    286.16679   -429.12618   -32581.955    15.324538    13.271408    27.926368    5679.6141 
   50000       49.986    339.64267    13.960919   -442.89999   -428.93907   -10898.306    190.26784   -3851.4572    -29033.73     15.32454     13.27141     27.92635    5679.6123 
   50500       50.486    334.81492    13.762475   -442.68401   -428.92154   -10808.637    190.39431   -2885.3781   -29730.926    15.324542    13.271412    27.926333    5679.6106 
   51000       50.986    309.72393    12.731117   -441.63421   -428.90309   -9805.8495    941.79066   -1196.6577   -29162.682    15.324545    13.271414    27.926315    5679.6088 
   51500       51.486    323.95098    13.315916   -442.20166   -428.88574   -10224.548    1391.4967   -2627.9981   -29437.142    15.324547    13.271416    27.926298     5679.607 
   52000       51.986    329.20726    13.531974   -442.40015   -428.86817   -10140.142   -41.580216   -715.18699   -29663.659     15.32455    13.271418     27.92628    5679.6053 
   52500       52.486    342.02721    14.058935   -442.90977   -428.85084   -11184.874   -330.64265   -2093.5082   -31130.472    15.324552     13.27142    27.926263    5679.6035 
   53000       52.986    314.72487    12.936679   -441.76919   -428.83252   -9949.6319   -2942.8252   -539.08951   -26366.981    15.324554    13.271423    27.926245    5679.6017 
   53500       53.486    325.40749    13.375786   -442.19141   -428.81562   -10078.553    3188.4108   -1631.0393    -31793.03    15.324557    13.271425    27.926228    5679.5999 
   54000       53.986    341.96627     14.05643   -442.85503    -428.7986    -10951.38    1005.3885   -1711.8745   -32147.654    15.324559    13.271427     27.92621    5679.5982 
   54500       54.486    332.09472    13.650663   -442.43177    -428.7811    -11005.87   -981.41441   -2051.4534   -29984.743    15.324562    13.271429    27.926193    5679.5964 
   55000       54.986    336.33354    13.824898    -442.5892    -428.7643   -11055.934    1411.5385   -1963.5694   -32615.772    15.324564    13.271431    27.926175    5679.5946 
   55500       55.486    337.33074    13.865888   -442.61304   -428.74715    -10499.81   -326.95572   -473.61411   -30698.859    15.324566    13.271433    27.926158    5679.5929 
   56000       55.986     330.8522    13.599589   -442.32962   -428.73003   -10633.882    560.24469   -1167.4541   -31294.436    15.324569    13.271435     27.92614    5679.5911 
   56500       56.486    334.79274    13.761564   -442.47512   -428.71356   -9117.3249    2282.5533   -1563.2778    -28071.25    15.324571    13.271437    27.926123    5679.5893 
   57000       56.986    343.82408    14.132795   -442.82969   -428.69689   -10878.038   -90.220588   -990.78064   -31553.112    15.324574    13.271439    27.926105    5679.5875 
   57500       57.486    335.26733    13.781072   -442.46103   -428.67996   -10668.987   -648.68057    83.373239   -31441.654    15.324576    13.271441    27.926088    5679.5858 
   58000       57.986    334.64243    13.755385   -442.41905   -428.66366   -11215.112   -583.29369   -2061.5858   -31000.457    15.324578    13.271444     27.92607     5679.584 
   58500       58.486    350.91824    14.424398   -443.07197   -428.64757   -11018.174   -909.20702   -2356.1297   -29789.186    15.324581    13.271446    27.926053    5679.5822 
   59000       58.986    337.06008    13.854762   -442.48536    -428.6306    -10800.59    -1391.786   -1613.6396   -29396.345    15.324583    13.271448    27.926035    5679.5805 
   59500       59.486      334.059    13.731404   -442.34512   -428.61371    -11000.63   -1536.1724   -1971.7038   -29494.014    15.324586     13.27145    27.926018    5679.5787 
   60000       59.986    337.73436    13.882478   -442.47998   -428.59751   -10279.805    458.27664   -2349.1536   -28948.538    15.324588    13.271452       27.926    5679.5769 
   60500       60.486    333.65402    13.714757   -442.29635   -428.58159   -9936.9044    500.66184   -676.23562    -29635.14     15.32459    13.271454    27.925983    5679.5751 
   61000       60.986    323.35441    13.291394   -441.85657   -428.56518   -9732.9471   -622.88709   -1757.9889   -26817.965    15.324593    13.271456    27.925965    5679.5734 
   61500       61.486    326.39362     13.41632   -441.96498   -428.54866   -10291.033    794.31077    -2130.368   -29537.042    15.324595    13.271458    27.925948    5679.5716 
   62000       61.986     354.1496    14.557222   -443.09039   -428.53317   -11950.749   -2196.2469    -1551.261   -32104.739    15.324598     13.27146     27.92593    5679.5698 
   62500       62.486    349.50082    14.366135   -442.88367   -428.51753   -10125.035    965.23604   -275.01132   -31065.329      15.3246    13.271462    27.925913    5679.5681 
   63000       62.986     339.5051    13.955264    -442.4562   -428.50093   -9958.3158    209.03049   -1812.1869   -28271.791    15.324602    13.271465    27.925895    5679.5663 
   63500       63.486    343.49956    14.119455   -442.60467   -428.48522   -10545.261   -539.88659   -1953.9743   -29141.923    15.324605    13.271467    27.925878    5679.5645 
   64000       63.986    326.42605    13.417653     -441.887   -428.46935   -9856.9688   -295.31219   -2541.8035   -26733.791    15.324607    13.271469     27.92586    5679.5628 
   64500       64.486    337.58845    13.876481   -442.33003   -428.45355   -10685.209     2216.315   -762.15192    -33509.79     15.32461    13.271471    27.925843     5679.561 
   65000       64.986    345.35246    14.195618   -442.63368   -428.43806   -10352.995    726.31353    -3404.803   -28380.496    15.324612    13.271473    27.925825    5679.5592 
   65500       65.486    334.66857     13.75646   -442.17861   -428.42215   -10284.219    1885.6787   -2241.4263   -30496.911    15.324614    13.271475    27.925808    5679.5574 
   66000       65.986    360.00883    14.798065    -443.2047   -428.40663   -11860.483   -731.15935   -1032.7558   -33817.534    15.324617    13.271477     27.92579    5679.5557 
   66500       66.486    317.12288    13.035249   -441.42564   -428.39039   -9843.1283    1780.1653   -1229.9746   -30079.576    15.324619    13.271479    27.925773    5679.5539 
   67000       66.986    329.13684     13.52908    -441.9037   -428.37462   -10305.356    756.34186   -4343.7398    -27328.67    15.324622    13.271481    27.925755    5679.5521 
   67500       67.486    365.96372    15.042839   -443.40241   -428.35957   -10634.349   -608.45348   -2558.5519   -28736.041    15.324624    13.271483    27.925738    5679.5504 
   68000       67.986    339.62208    13.960073   -442.30336   -428.34329   -10389.005    689.45086   -2276.7444   -29579.722    15.324626    13.271486     27.92572    5679.5486 
   68500       68.486    314.28984    12.918798   -441.24646   -428.32766   -9403.5042    427.44112   -2356.4072   -26281.546    15.324629    13.271488    27.925703    5679.5468 
   69000       68.986    324.34257    13.332012   -441.64364   -428.31163   -11864.314   -2348.4942   -1991.7161   -31252.731    15.324631     13.27149    27.925685     5679.545 
   69500       69.486    335.00678    13.770362   -442.06618   -428.29582   -10028.088    980.41471   -1719.8302   -29344.848    15.324634    13.271492    27.925668    5679.5433 
   70000       69.986    336.58474    13.835224   -442.11539   -428.28016   -11477.732   -4615.8863    -553.6644   -29263.645    15.324636    13.271494     27.92565    5679.5415 
   70500       70.486    341.03755    14.018255   -442.28327   -428.26501   -11514.071    624.63989   -4110.0329   -31056.821    15.324638    13.271496    27.925633    5679.5397 
   71000       70.986    337.80494    13.885379   -442.13502   -428.24964   -9595.8407   -418.60122   -1664.6584   -26704.263    15.324641    13.271498    27.925615     5679.538 
   71500       71.486     326.1132    13.404794   -441.63803   -428.23324   -10108.174    -1114.781   -1368.0258   -27841.714    15.324643      13.2715    27.925598    5679.5362 
   72000       71.986    349.75137    14.376434   -442.59386   -428.21743   -11567.846   -579.12989   -3128.2935   -30996.116    15.324646    13.271502     27.92558    5679.5344 
   72500       72.486    341.02177    14.017607   -442.21916   -428.20156   -10183.208    1959.2794   -1419.5428   -31089.359    15.324648    13.271504    27.925563    5679.5326 
   73000       72.986    340.87066    14.011395   -442.19652   -428.18513   -9434.8312   -106.73056   -1642.8163   -26554.947     15.32465    13.271507    27.925545    5679.5309 
   73500       73.486    333.48768     13.70792   -441.87743   -428.16951   -9982.8614    1142.0253   -3997.0635   -27093.546    15.324653    13.271509    27.925528    5679.5291 
   74000       73.986     340.7457    14.006259   -442.16023   -428.15397   -10381.397    1209.1727   -860.95353   -31492.409    15.324655    13.271511     27.92551    5679.5273 
   74500       74.486    340.86713     14.01125    -442.1486   -428.13735   -11610.376   -364.89291   -987.86577    -33478.37    15.324658    13.271513    27.925493    5679.5256 
   75000       74.986    331.11793    13.610512   -441.73186   -428.12135   -9773.4425    941.86615    379.26083   -30641.454     15.32466    13.271515    27.925475    5679.5238 
   75500       75.486    340.58404    13.999614   -442.10512   -428.10551   -10349.926     446.0121   -2311.5302   -29184.261    15.324662    13.271517    27.925458     5679.522 
   76000       75.986    331.48146    13.625455   -441.71485    -428.0894   -9532.2537    845.61962    -1058.761    -28383.62    15.324665    13.271519     27.92544    5679.5202 
   76500       76.486    341.72728    14.046606   -442.11997   -428.07337   -10824.008    137.34066   -425.64276   -32183.723    15.324667    13.271521    27.925423    5679.5185 
   77000       76.986    342.76899    14.089425   -442.14642   -428.05699   -9817.2472   -866.18341   -1455.3453   -27130.213     15.32467    13.271523    27.925405    5679.5167 
   77500       77.486    347.71294    14.292645    -442.3332   -428.04056   -10589.691   -613.60823   -3536.5683   -27618.895    15.324672    13.271525    27.925388    5679.5149 
   78000       77.986    347.68313     14.29142   -442.31559   -428.02417   -10906.161    271.51411   -821.65514   -32168.341    15.324674    13.271528     27.92537    5679.5132 
   78500       78.486    344.15122    14.146242   -442.15383   -428.00759   -10252.044   -215.94379    1636.7627    -32176.95    15.324677     13.27153    27.925353    5679.5114 
   79000       78.986    354.53284    14.572975   -442.56458    -427.9916   -9818.4405    2154.1975     343.8885   -31953.408    15.324679    13.271532    27.925335    5679.5096 
   79500       79.486    369.19813    15.175788   -443.15098   -427.97519   -10973.587   -2426.7379   -2259.9001   -28234.124    15.324682    13.271534    27.925318    5679.5078 
   80000       79.986    360.60433    14.822542   -442.78051   -427.95797   -10756.283   -396.71184   -1263.4003   -30608.738    15.324684    13.271536      27.9253    5679.5061 
   80500       80.486    357.36146    14.689245   -442.63059   -427.94134   -10306.308    1129.5457   -3671.0638   -28377.407    15.324686    13.271538    27.925283    5679.5043 
   81000       80.986    341.35366    14.031249   -441.95591   -427.92466   -10023.875    813.95378   -57.653793   -30827.926    15.324689     13.27154    27.925265    5679.5025 
   81500       81.486    350.88789     14.42315   -442.33103   -427.90787    -11103.45    1278.5525   -4152.7996   -30436.103    15.324691    13.271542    27.925248    5679.5008 
   82000       81.986    361.08389    14.842255   -442.73314   -427.89089   -10425.312   -792.88059   -2318.0374   -28165.019    15.324694    13.271544     27.92523     5679.499 
   82500       82.486    353.61528    14.535259   -442.40918   -427.87392   -11712.533   -1955.8776   -2196.2434   -30985.478    15.324696    13.271546    27.925213    5679.4972 
   83000       82.986    355.61117      14.6173   -442.47436   -427.85707   -9859.9373    2620.8288   -794.49151   -31406.149    15.324698    13.271549    27.925195    5679.4955 
   83500       83.486    350.54227    14.408944    -442.2485   -427.83956   -9774.9503    2137.3067   -749.84915   -30712.309    15.324701    13.271551    27.925178    5679.4937 
   84000       83.986    332.39541    13.663022   -441.48534   -427.82232   -10357.708   -1112.5337   -1007.7827   -28952.809    15.324703    13.271553     27.92516    5679.4919 
   84500       84.486    352.08593    14.472396   -442.27785   -427.80545     -10836.6    557.34775   -2158.0783   -30909.069    15.324706    13.271555    27.925143    5679.4901 
   85000       84.986    361.10294    14.843037   -442.63083   -427.78779   -9416.6496    1891.9948   -1882.6585   -28259.285    15.324708    13.271557    27.925125    5679.4884 
   85500       85.486    349.48292      14.3654    -442.1355    -427.7701   -10914.788    1106.5167   -167.93628   -33682.944     15.32471    13.271559    27.925108    5679.4866 
   86000       85.986    331.63488    13.631761   -441.38442   -427.75265   -10882.044    207.74568   -2122.6461   -30731.232    15.324713    13.271561     27.92509    5679.4848 
   86500       86.486    343.50294    14.119594   -441.85487   -427.73527   -9346.8522    1279.5515   -1604.5781    -27715.53    15.324715    13.271563    27.925073    5679.4831 
   87000       86.986    347.18806     14.27107   -441.98903   -427.71796   -10373.213   -1154.9694    2516.6476   -32481.316    15.324718    13.271565    27.925055    5679.4813 
   87500       87.486      341.058    14.019096   -441.71904   -427.69994   -10473.873    795.30146    568.82243   -32785.742     15.32472    13.271567    27.925038    5679.4795 
   88000       87.986    353.79367    14.542592   -442.22484   -427.68224   -10286.618    2416.1266    -119.8649   -33156.117    15.324722     13.27157     27.92502    5679.4777 
   88500       88.486    356.51481    14.654444   -442.31871   -427.66426   -10985.331   -447.00294   -793.47968   -31715.511    15.324725    13.271572    27.925003     5679.476 
   89000       88.986    358.31196    14.728315   -442.37469   -427.64638   -10062.173   -1416.1091   -473.02321   -28297.387    15.324727    13.271574    27.924985    5679.4742 
   89500       89.486    339.53763    13.956601   -441.58484   -427.62824   -10602.701    503.21589   -3140.7177   -29170.601     15.32473    13.271576    27.924968    5679.4724 
   90000       89.986     349.4422    14.363726   -441.97423   -427.61051   -11018.456   -567.15426   -1640.5959   -30847.617    15.324732    13.271578     27.92495    5679.4707 
   90500       90.486    364.35898    14.976876   -442.56883   -427.59196   -10793.449   -257.63406   -1716.0165   -30406.697    15.324734     13.27158    27.924933    5679.4689 
   91000       90.986    349.62731    14.371335   -441.94473    -427.5734   -10706.697    2061.4887   -694.76814   -33486.812    15.324737    13.271582    27.924915    5679.4671 
   91500       91.486    355.31559     14.60515   -442.15967   -427.55452   -10600.662   -1556.9293   -133.89167   -30111.166    15.324739    13.271584    27.924898    5679.4653 
   92000       91.986    357.08617    14.677929   -442.21445   -427.53652   -9404.9183   -437.92506   -501.49754   -27275.332    15.324742    13.271586     27.92488    5679.4636 
   92500       92.486    334.75578    13.760045   -441.27733   -427.51729    -8701.502    310.09205    508.09856   -26922.697    15.324744    13.271588    27.924863    5679.4618 
   93000       92.986     347.6549     14.29026   -441.78914   -427.49888   -10783.971   -3136.5306    -399.2411   -28816.142    15.324746    13.271591    27.924845      5679.46 
   93500       93.486    363.53491    14.943003   -442.42304   -427.48004   -11356.411    571.03757   -3221.0351   -31419.234    15.324749    13.271593    27.924828    5679.4583 
   94000       93.986    338.84589    13.928167   -441.38886   -427.46069   -9610.9665    624.42469   -1830.1122   -27627.212    15.324751    13.271595     27.92481    5679.4565 
   94500       94.486    352.93408    14.507259   -441.94944   -427.44218   -10523.043   -87.956364    -502.2554   -30978.918    15.324754    13.271597    27.924793    5679.4547 
   95000       94.986    337.86937    13.888028   -441.31096   -427.42294   -10592.652    3326.7459   -2525.9962   -32578.707    15.324756    13.271599    27.924775    5679.4529 
   95500       95.486    367.83905    15.119923   -442.52353   -427.40361   -11050.923   -97.039881   -708.58909    -32347.14    15.324758    13.271601    27.924758    5679.4512 
   96000       95.986    345.04434    14.182953   -441.56681   -427.38385   -9610.3558   -279.97936    273.77687   -28824.865    15.324761    13.271603     27.92474    5679.4494 
   96500       96.486    356.21104    14.641957   -442.00674   -427.36478   -10026.347    79.879152   -2899.5251   -27259.394    15.324763    13.271605    27.924723    5679.4476 
   97000       96.986    367.58126    15.109327   -442.45502   -427.34569   -10393.366    1231.0866   -548.79914   -31862.386    15.324766    13.271607    27.924705    5679.4459 
   97500       97.486    353.68559    14.538149   -441.86404   -427.32589   -10846.484    695.39947   -4084.7301   -29150.122    15.324768    13.271609    27.924688    5679.4441 
   98000       97.986    359.21111    14.765274   -442.07153   -427.30625    -10014.87   -641.11531    2169.5671   -31573.062     15.32477    13.271612     27.92467    5679.4423 
   98500       98.486    383.13193    15.748533    -443.0352   -427.28667   -10776.047   -933.74383   -2211.5251   -29182.873    15.324773    13.271614    27.924653    5679.4405 
   99000       98.986     339.0528    13.936672   -441.20321   -427.26654   -10037.404   -353.75795   -88.244224   -29670.209    15.324775    13.271616    27.924635    5679.4388 
   99500       99.486    351.97932    14.468013   -441.71441    -427.2464    -9381.513    1432.3445   -1852.7203   -27724.163    15.324778    13.271618    27.924618     5679.437 
  100000       99.986     371.0391    15.251461   -442.47826    -427.2268   -10288.462    3082.3439   -1645.3422   -32302.388     15.32478     13.27162      27.9246    5679.4352 
  100500      100.486    365.77505    15.035083   -442.24178   -427.20669   -11123.281   -1129.2386   -498.72072   -31741.885    15.324782    13.271622    27.924583    5679.4335 
  101000      100.986    359.92698      14.7947   -441.98065   -427.18595   -10567.209   -131.43382    -1935.036   -29635.157    15.324785    13.271624    27.924565    5679.4317 
  101500      101.486    342.00589    14.058058    -441.2236   -427.16555    -9942.062    1289.4682   -502.90578   -30612.748    15.324787    13.271626    27.924548    5679.4299 
  102000      101.986    367.37879    15.101005   -442.24638   -427.14537   -11089.915   -1750.8693   -1272.1485   -30246.727     15.32479    13.271628     27.92453    5679.4282 
  102500      102.486     350.4911    14.406841   -441.53162   -427.12478   -9553.8756    1441.1977   -1220.5694   -28882.255    15.324792     13.27163    27.924513    5679.4264 
  103000      102.986    339.10052    13.938634   -441.04262   -427.10399   -8858.3135    3406.4568   -1095.5645   -28885.833    15.324794    13.271633    27.924495    5679.4246 
  103500      103.486    346.16045    14.228831   -441.31248   -427.08365   -9834.5051    665.58121    665.29429   -30834.391    15.324797    13.271635    27.924478    5679.4228 
  104000      103.986    371.61852    15.275278   -442.33862   -427.06335   -11796.239    794.61522   -3452.8786   -32730.454    15.324799    13.271637     27.92446    5679.4211 
  104500      104.486    345.96193     14.22067   -441.26318   -427.04251   -8805.5185   -904.48441    945.71248   -26457.784    15.324802    13.271639    27.924443    5679.4193 
  105000      104.986    361.04896    14.840819   -441.86255   -427.02173   -10591.553    3729.1668   -2034.1334   -33469.693    15.324804    13.271641    27.924425    5679.4175 
  105500      105.486    356.07227    14.636253   -441.63752   -427.00126   -10287.542    1107.6409   -1639.8139   -30330.453    15.324806    13.271643    27.924408    5679.4158 
  106000      105.986    359.04304    14.758366    -441.7384   -426.98003   -9702.2963    1135.6952   -3046.8874   -27195.697    15.324809    13.271645     27.92439     5679.414 
  106500      106.486    342.97132    14.097742   -441.05645    -426.9587   -8077.1199    3488.5986   -192.31128   -27527.647    15.324811    13.271647    27.924373    5679.4122 
  107000      106.986     380.0487    15.621798   -442.56027   -426.93847   -10011.127    2565.0184   -2378.0746   -30220.326    15.324814    13.271649    27.924355    5679.4104 
  107500      107.486     352.0855    14.472378    -441.3893   -426.91692   -9287.0546    1125.1048   -1795.3783    -27190.89    15.324816    13.271651    27.924338    5679.4087 
  108000      107.986    349.62973    14.371434   -441.26678   -426.89535   -8779.4145    2318.7292   -2526.7814   -26130.191    15.324818    13.271654     27.92432    5679.4069 
  108500      108.486     381.8423    15.695523   -442.57037   -426.87485   -11181.803   -1419.9153   -712.39793   -31413.095    15.324821    13.271656    27.924303    5679.4051 
  109000      108.986    370.88854    15.245272   -442.09869   -426.85342   -10352.795    696.26696   -2595.2321   -29159.419    15.324823    13.271658    27.924285    5679.4034 
  109500      109.486    385.38015    15.840945   -442.67298   -426.83204   -10718.212   -513.07101   -3387.7917   -28253.772    15.324826     13.27166    27.924268    5679.4016 
  110000      109.986    349.14082    14.351338   -441.16111   -426.80977   -10744.283   -175.18303   -1593.6776    -30463.99    15.324828    13.271662     27.92425    5679.3998 
  110500      110.486    377.30632    15.509073   -442.29773   -426.78866   -9827.8277    653.67873   -1529.0437   -28608.118     15.32483    13.271664    27.924233     5679.398 
  111000      110.986    341.52357    14.038233   -440.80498   -426.76674   -8872.6391    1055.7512   -838.19643   -26835.472    15.324833    13.271666    27.924215    5679.3963 
  111500      111.486    370.75144    15.239637   -441.98504   -426.74541   -9350.3254    3019.1705   -1869.2243   -29200.922    15.324835    13.271668    27.924198    5679.3945 
  112000      111.986    355.04463    14.594012   -441.31737   -426.72336   -9763.4723     1443.957   -1904.6192   -28829.755    15.324838     13.27167     27.92418    5679.3927 
  112500      112.486    357.45264    14.692993   -441.39447   -426.70148    -9484.916    1006.6387   -1325.5067    -28135.88     15.32484    13.271672    27.924163     5679.391 
  113000      112.986    360.97474    14.837768   -441.51727    -426.6795   -9602.0274    1440.2956   -1278.5459   -28967.832    15.324842    13.271675    27.924145    5679.3892 
  113500      113.486    360.32898    14.811224   -441.46903   -426.65781   -9229.0968    2146.4335    243.90674   -30077.631    15.324845    13.271677    27.924128    5679.3874 
  114000      113.986     348.8282    14.338488   -440.97428   -426.63579   -9745.6137    2352.3861   -533.21602   -31056.011    15.324847    13.271679     27.92411    5679.3856 
  114500      114.486    374.46497     15.39228   -442.00572   -426.61344   -8905.3005    2766.9966   -1290.5789   -28192.319     15.32485    13.271681    27.924093    5679.3839 
  115000      114.986    375.75933    15.445484   -442.03751   -426.59202   -10649.248   -202.08184   -1561.8456   -30183.817    15.324852    13.271683    27.924075    5679.3821 
  115500      115.486    361.97106    14.878721   -441.44811   -426.56939   -9544.8526    2938.8251   -2164.7408   -29408.642    15.324854    13.271685    27.924058    5679.3803 
  116000      115.986    359.04785    14.758563    -441.3062   -426.54764   -9783.8236    2272.2302    -124.1209    -31499.58    15.324857    13.271687     27.92404    5679.3786 
  116500      116.486    377.78311    15.528671   -442.05436   -426.52569   -9658.9702    3218.3992   -2473.4399    -29721.87    15.324859    13.271689    27.924023    5679.3768 
  117000      116.986    363.16912    14.927967   -441.43108   -426.50312   -9476.4988     4382.141   -3495.1327   -29316.505    15.324862    13.271691    27.924005     5679.375 
  117500      117.486    366.12402    15.049428   -441.53069   -426.48126   -10022.073   -44.471541   -3419.5524   -26602.196    15.324864    13.271693    27.923988    5679.3732 
  118000      117.986    355.25666    14.602728   -441.06078   -426.45805   -9298.9301    609.20499    325.46415    -28831.46    15.324866    13.271696     27.92397    5679.3715 
  118500      118.486    357.27441    14.685667   -441.12167     -426.436   -8860.3032    -792.7193   -691.53865   -25096.652    15.324869    13.271698    27.923953    5679.3697 
  119000      118.986     369.0749    15.170723   -441.58467   -426.41394   -9058.9751    2028.8204    -1099.634   -28106.112    15.324871      13.2717    27.923935    5679.3679 
  119500      119.486    357.14554     14.68037   -441.07154   -426.39117   -9209.1758    1281.5246    -870.4585   -28038.593    15.324874    13.271702    27.923918    5679.3662 
  120000      119.986     375.8142     15.44774   -441.81649   -426.36875   -10331.736    483.03519    -1185.958   -30292.286    15.324876    13.271704      27.9239    5679.3644 
  120500      120.486    360.36596    14.812744   -441.15868   -426.34593   -9144.6196    1791.2352    1220.4942   -30445.588    15.324878    13.271706    27.923883    5679.3626 
  121000      120.986    364.16027    14.968708   -441.29195   -426.32325   -9408.8048    554.04587   -2071.7584   -26708.702    15.324881    13.271708    27.923865    5679.3608 
  121500      121.486     368.0606     15.12903    -441.4292   -426.30017   -7939.3818    2726.6444    1163.4566   -27708.246    15.324883     13.27171    27.923848    5679.3591 
  122000      121.986     372.4775    15.310586   -441.58865   -426.27807   -9381.8209    1110.9851   -2482.9455   -26773.502    15.324886    13.271712     27.92383    5679.3573 
  122500      122.486     385.9112    15.862774    -442.1179   -426.25513   -9367.7366    1316.5564   -1052.4044   -28367.362    15.324888    13.271714    27.923813    5679.3555 
  123000      122.986     357.2068    14.682888   -440.91474   -426.23185   -9930.5124    -72.08203   -1115.4323   -28604.023     15.32489    13.271717    27.923795    5679.3538 
  123500      123.486    371.25427    15.260305   -441.46955   -426.20925   -9262.9072    1158.4776   -649.09474   -28298.105    15.324893    13.271719    27.923778     5679.352 
  124000      123.986    368.17186    15.133603   -441.31998   -426.18638   -9635.2381    164.58796    5.8476545    -29076.15    15.324895    13.271721     27.92376    5679.3502 
  124500      124.486    368.32843    15.140039   -441.30337   -426.16333   -10034.725    2166.4276   -817.23527   -31453.369    15.324898    13.271723    27.923743    5679.3484 
  125000      124.986    370.67161    15.236355   -441.37679   -426.14043   -9996.0594    1338.1863   -1905.2014   -29421.163      15.3249    13.271725    27.923725    5679.3467 
  125500      125.486    364.12335    14.967191   -441.08464   -426.11745   -9634.7558    1969.6997   -1679.4396   -29194.527    15.324902    13.271727    27.923708    5679.3449 
  126000      125.986    359.11346     14.76126   -440.85584   -426.09458   -8915.3409    2298.3602    151.61905   -29196.002    15.324905    13.271729     27.92369    5679.3431 
  126500      126.486    371.18063    15.257278   -441.32878    -426.0715     -8729.55   -323.91906    446.50264   -26311.234    15.324907    13.271731    27.923673    5679.3414 
  127000      126.986    356.36346    14.648222   -440.69597   -426.04775   -9696.7184    3020.0674    -1294.903    -30815.32     15.32491    13.271733    27.923655    5679.3396 
  127500      127.486    381.57181    15.684405   -441.71006   -426.02566   -8553.4468    2444.6824   -3083.6334   -25021.389    15.324912    13.271735    27.923638    5679.3378 
  128000      127.986    372.70514    15.319943   -441.32203   -426.00209   -9930.0777   -497.88702   -2455.1282   -26837.218    15.324914    13.271738     27.92362    5679.3361 
  128500      128.486    360.08804     14.80132   -440.78002    -425.9787   -8336.8979    3207.5578   -1581.1466   -26637.105    15.324917     13.27174    27.923603    5679.3343 
  129000      128.986    386.37387    15.881792   -441.83774   -425.95595   -10264.368    2682.5905   -306.86047   -33168.833    15.324919    13.271742    27.923585    5679.3325 
  129500      129.486    380.54531    15.642211   -441.57529   -425.93308    -10053.42    202.76852    1734.2406   -32097.268    15.324922    13.271744    27.923568    5679.3307 
  130000      129.986    369.86614    15.203247   -441.11222   -425.90897   -9914.6444    -1425.581    1128.6934   -29447.045    15.324924    13.271746     27.92355     5679.329 
  130500      130.486    383.47481    15.762627   -441.64877   -425.88614   -8546.9503    2851.4858   -1549.1562    -26943.18    15.324926    13.271748    27.923533    5679.3272 
  131000      130.986    367.72412    15.115199   -440.97745   -425.86225   -8409.5814    4572.6666   -557.16279   -29244.248    15.324929     13.27175    27.923515    5679.3254 
  131500      131.486    374.22052    15.382232   -441.22143    -425.8392   -10999.199   -2569.3541    -2867.834   -27560.409    15.324931    13.271752    27.923498    5679.3237 
  132000      131.986    365.96011     15.04269   -440.85892   -425.81623   -8309.3882    4511.8886   -444.13934   -28995.914    15.324934    13.271754     27.92348    5679.3219 
  132500      132.486    370.68597    15.236945   -441.02918   -425.79224   -8666.8359    2582.1354   -3.5435394     -28579.1    15.324936    13.271756    27.923463    5679.3201 
  133000      132.986    387.47317    15.926979   -441.69617   -425.76919   -10466.796    699.33924   -170.98846   -31928.738    15.324938    13.271759    27.923445    5679.3183 
  133500      133.486    395.78903      16.2688   -442.01443   -425.74563   -9496.6254    1506.2364   -472.81307   -29523.299    15.324941    13.271761    27.923428    5679.3166 
  134000      133.986    360.07072    14.800608   -440.52277   -425.72216   -9352.7232    2300.3339   -462.83635   -29895.667    15.324943    13.271763     27.92341    5679.3148 
  134500      134.486    379.08433    15.582158   -441.28064   -425.69848   -8561.6863    2791.3673    1405.1733   -29881.599    15.324946    13.271765    27.923393     5679.313 
  135000      134.986    401.05654    16.485319    -442.1604   -425.67508   -8615.1846     943.0082    246.79484   -27035.357    15.324948    13.271767    27.923375    5679.3113 
  135500      135.486    372.27617     15.30231   -440.95379   -425.65148    -9391.027    2806.9503   -2156.7148   -28823.316     15.32495    13.271769    27.923358    5679.3095 
  136000      135.986    390.53981    16.053032   -441.68062   -425.62759   -9006.3113    910.22237    85.287364   -28014.443    15.324953    13.271771     27.92334    5679.3077 
  136500      136.486    368.24005    15.136406   -440.73999   -425.60359    -10589.63    292.86959   -862.05681   -31199.703    15.324955    13.271773    27.923323    5679.3059 
  137000      136.986    369.45779    15.186461   -440.76601   -425.57955   -8861.4761   -980.86864   -800.26875   -24803.291    15.324958    13.271775    27.923305    5679.3042 
  137500      137.486    385.25233    15.835691     -441.392    -425.5563   -10036.757   -27.138702   -1051.8865   -29031.247     15.32496    13.271777    27.923288    5679.3024 
  138000      137.986    399.45128    16.419335   -441.95218   -425.53284   -9579.2475    3275.7531   -859.73531    -31153.76    15.324962     13.27178     27.92327    5679.3006 
  138500      138.486    355.57586    14.615848   -440.12466   -425.50881   -7498.0514    3360.4768    636.68247   -26491.314    15.324965    13.271782    27.923253    5679.2989 
  139000      138.986    382.05369    15.704212   -441.18901    -425.4848   -9511.9837    2736.3323   -1229.2502   -30043.033    15.324967    13.271784    27.923235    5679.2971 
  139500      139.486    380.33452    15.633546   -441.09437   -425.46083   -10033.638    1044.8446    1655.2901   -32801.047     15.32497    13.271786    27.923218    5679.2953 
  140000      139.986    381.43598    15.678821   -441.11599   -425.43717   -9527.5257    126.75544   -1574.7191   -27134.614    15.324972    13.271788      27.9232    5679.2935 
  140500      140.486    363.43478    14.938887   -440.35236   -425.41348   -9756.5425    1825.2957   -697.80785   -30397.115    15.324974     13.27179    27.923183    5679.2918 
  141000      140.986    370.04346    15.210535   -440.60007   -425.38953   -8131.3609    1858.9097   -346.09559   -25906.897    15.324977    13.271792    27.923165      5679.29 
  141500      141.486    386.84083    15.900986   -441.26686   -425.36587   -8833.6815    1434.6062   -1477.0096   -26458.641    15.324979    13.271794    27.923148    5679.2882 
  142000      141.986    390.64298    16.057273   -441.39962   -425.34235   -9888.9781    1451.3644   -3064.5139   -28053.785    15.324982    13.271796     27.92313    5679.2865 
  142500      142.486    380.80848    15.653028   -440.97076   -425.31773   -9451.5272    2210.4653     392.1275   -30957.175    15.324984    13.271798    27.923113    5679.2847 
  143000      142.986    383.21949    15.752132   -441.04603    -425.2939   -8754.3077    505.39933   -2314.8875   -24453.435    15.324986    13.271801    27.923095    5679.2829 
  143500      143.486    364.75818    14.993285   -440.26388   -425.27059   -9475.8634     2459.752   -3188.5083   -27698.834    15.324989    13.271803    27.923078    5679.2811 
  144000      143.986    381.59021    15.685161   -440.93153   -425.24637   -8731.8351    2088.1706   -1890.0626   -26393.613    15.324991    13.271805     27.92306    5679.2794 
  144500      144.486    402.71493    16.553487   -441.77622   -425.22273   -8160.8051    1830.0743    133.72546   -26446.215    15.324994    13.271807    27.923043    5679.2776 
  145000      144.986    373.44172     15.35022    -440.5479   -425.19768   -8052.0712    2486.2309     823.4269   -27465.871    15.324996    13.271809    27.923025    5679.2758 
  145500      145.486    373.37371    15.347424   -440.52094   -425.17352   -8100.7954    2953.3324   -1209.9794   -26045.739    15.324998    13.271811    27.923008    5679.2741 
  146000      145.986    371.91168    15.287328   -440.43651   -425.14918   -7345.5759    3015.0067   -100.28452    -24951.45    15.325001    13.271813     27.92299    5679.2723 
  146500      146.486    366.01035    15.044755   -440.16959   -425.12483   -8871.7199    1390.2408    696.82335   -28702.224    15.325003    13.271815    27.922973    5679.2705 
  147000      146.986    375.34662     15.42852   -440.52973   -425.10121   -8691.1047    1858.1025    389.89245   -28321.309    15.325006    13.271817    27.922955    5679.2687 
  147500      147.486    394.89077    16.231877   -441.30974   -425.07786     -8323.59    3349.8847    56.432622   -28377.087    15.325008    13.271819    27.922938     5679.267 
  148000      147.986    397.90989    16.355977   -441.40968    -425.0537   -7771.6488    1658.5172   -417.29198   -24556.172     15.32501    13.271822     27.92292    5679.2652 
  148500      148.486    390.06074     16.03334   -441.06263   -425.02929   -9469.8985    902.41118   -3549.9497   -25762.157    15.325013    13.271824    27.922903    5679.2634 
  149000      148.986    371.03406    15.251254   -440.25572   -425.00447   -8102.1847    3077.2145    1085.1056   -28468.874    15.325015    13.271826    27.922885    5679.2617 
  149500      149.486    370.91366    15.246304   -440.22665   -424.98035   -8924.6759    1432.2243   -815.31893   -27390.933    15.325018    13.271828    27.922868    5679.2599 
  150000      149.986    381.10694    15.665296   -440.62122   -424.95593   -9072.0804    596.34752   -1898.8385    -25913.75     15.32502     13.27183     27.92285    5679.2581 
  150500      150.486    383.50601    15.763909   -440.69556   -424.93165   -7999.7967    3616.7409   -500.67261   -27115.458    15.325022    13.271832    27.922833    5679.2563 
  151000      150.986    379.81517    15.612198   -440.51896   -424.90676   -8329.9883   -509.57853    2612.1618   -27092.548    15.325025    13.271834    27.922815    5679.2546 
  151500      151.486     387.4361    15.925455   -440.80808   -424.88262   -10673.999    1407.1219   -3812.8225   -29616.296    15.325027    13.271836    27.922798    5679.2528 
  152000      151.986    383.50224    15.763754   -440.62185   -424.85809    -7271.364    3204.2076    2137.7252   -27156.025     15.32503    13.271838     27.92278     5679.251 
  152500      152.486    399.77578    16.432674   -441.26675   -424.83408     -9764.26    1111.0212   -1665.1557   -28738.645    15.325032     13.27184    27.922763    5679.2493 
  153000      152.986    373.31744    15.345111   -440.15395   -424.80883   -8149.3929   -149.43387    1273.7929   -25572.538    15.325034    13.271843    27.922745    5679.2475 
  153500      153.486    378.60995    15.562658   -440.34779   -424.78513   -7692.9339    503.42602      3105.55   -26687.778    15.325037    13.271845    27.922728    5679.2457 
  154000      153.986    384.34672    15.798467   -440.55959   -424.76112   -9712.4255    666.02773   -477.97061   -29325.334    15.325039    13.271847     27.92271    5679.2439 
  154500      154.486    396.01688    16.278165    -441.0142   -424.73604    -8287.313    1242.8908   -495.58284   -25609.247    15.325042    13.271849    27.922693    5679.2422 
  155000      154.986    386.90138    15.903475   -440.61515   -424.71168   -9104.9414    878.48412   -430.76475   -27762.543    15.325044    13.271851    27.922675    5679.2404 
  155500      155.486       390.71    16.060028   -440.74683    -424.6868   -9534.6083    201.55975    686.95053   -29492.335    15.325046    13.271853    27.922658    5679.2386 
  156000      155.986    389.37719    16.005243   -440.66813   -424.66289   -9615.8954    1845.7046   -1801.9503   -28891.441    15.325049    13.271855     27.92264    5679.2369 
  156500      156.486    376.82317    15.489213   -440.12744   -424.63823   -8338.5108    3502.5722    161.53607   -28679.641    15.325051    13.271857    27.922623    5679.2351 
  157000      156.986     373.8155    15.365584   -439.97817   -424.61259   -8701.3482    221.78595    199.34769   -26525.178    15.325054    13.271859    27.922605    5679.2333 
  157500      157.486    401.78671    16.515333   -441.10382   -424.58848   -8671.3327    2482.1681   -717.54409   -27778.622    15.325056    13.271861    27.922588    5679.2315 
  158000      157.986    370.62093    15.234272   -439.79758   -424.56331   -9368.8528    -249.2923   -1427.9262    -26429.34    15.325058    13.271864     27.92257    5679.2298 
  158500      158.486    391.24273    16.081925   -440.62086   -424.53894   -9630.9258    512.78997   -1262.1005   -28143.467    15.325061    13.271866    27.922553     5679.228 
  159000      158.986     383.2086    15.751684   -440.26574   -424.51406   -8017.3919    1033.7178    146.84143   -25232.735    15.325063    13.271868    27.922535    5679.2262 
  159500      159.486    384.23396    15.793832    -440.2827   -424.48887   -8211.1976    4363.4474    1796.8131   -30793.853    15.325066     13.27187    27.922518    5679.2245 
  160000      159.986     380.4885    15.639875   -440.10439   -424.46451   -9664.7036   -2677.0631   -2025.6784   -24291.369    15.325068    13.271872      27.9225    5679.2227 
  160500      160.486    400.10899    16.446371   -440.88607    -424.4397   -8112.7304     2079.001   -176.57853   -26240.614     15.32507    13.271874    27.922483    5679.2209 
  161000      160.986    390.74363     16.06141    -440.4761   -424.41469   -9142.7095   -1578.1006   -89.944389   -25760.084    15.325073    13.271876    27.922465    5679.2191 
  161500      161.486    410.36112    16.867781   -441.25749    -424.3897   -8316.2394    1619.8504   -1223.9601   -25344.609    15.325075    13.271878    27.922448    5679.2174 
  162000      161.986    391.93127    16.110228   -440.47541   -424.36518   -9167.3029    1045.9536   -666.72152   -27881.141    15.325078     13.27188     27.92243    5679.2156 
  162500      162.486    412.47171    16.954537   -441.29494    -424.3404   -9475.0058    907.90756   -1277.0497   -28055.875     15.32508    13.271882    27.922413    5679.2138 
  163000      162.986    378.18938    15.545371   -439.86002   -424.31465    -8746.991    1401.3839    851.50926   -28493.866    15.325082    13.271885    27.922395    5679.2121 
  163500      163.486    402.71277    16.553398   -440.84331   -424.28991   -10463.236     443.1618    112.54584   -31945.415    15.325085    13.271887    27.922378    5679.2103 
  164000      163.986    391.77145    16.103658   -440.36841   -424.26475   -8155.1524    1060.7192    1237.6832    -26763.86    15.325087    13.271889     27.92236    5679.2085 
  164500      164.486    395.84859    16.271248   -440.51124   -424.23999   -7449.0871    3541.2795    1040.2251   -26928.766     15.32509    13.271891    27.922343    5679.2067 
  165000      164.986    404.77222    16.638051   -440.85301   -424.21496   -9163.9345   -712.60124   -635.24855   -26143.954    15.325092    13.271893    27.922325     5679.205 
  165500      165.486    377.59505    15.520941   -439.71003   -424.18909   -7790.3985    4950.8216    -389.7788   -27932.238    15.325094    13.271895    27.922308    5679.2032 
  166000      165.986    381.63974    15.687197    -439.8512   -424.16401    -8882.558    1032.6348    -1206.549    -26473.76    15.325097    13.271897     27.92229    5679.2014 
  166500      166.486    386.75917     15.89763     -440.037   -424.13937   -6962.4318    2019.9615    1543.1015   -24450.358    15.325099    13.271899    27.922273    5679.1997 
  167000      166.986    382.46164    15.720981   -439.83506   -424.11408     -8602.82    1973.8201    141.72015       -27924    15.325102    13.271901    27.922255    5679.1979 
  167500      167.486    415.42482    17.075923   -441.16527   -424.08935   -8030.2299   -40.428089    109.07362   -24159.335    15.325104    13.271903    27.922238    5679.1961 
  168000      167.986    384.15212    15.790468   -439.85373   -424.06327   -7653.6246    1015.3746     615.3921    -24591.64    15.325106    13.271906     27.92222    5679.1943 
  168500      168.486    372.62742    15.316748     -439.355   -424.03825   -9308.3121    2510.6152    1644.0355   -32079.587    15.325109    13.271908    27.922203    5679.1926 
  169000      168.986    401.63044    16.508909   -440.52129   -424.01238   -9233.0228    4462.7876   -478.80684   -31683.049    15.325111     13.27191    27.922185    5679.1908 
  169500      169.486    392.92062    16.150894   -440.13838   -423.98749   -7683.7463    4078.9808    1158.5615   -28288.781    15.325114    13.271912    27.922168     5679.189 
  170000      169.986    385.84683    15.860128    -439.8223   -423.96217   -9140.1319    1044.1539   -556.48868   -27908.061    15.325116    13.271914     27.92215    5679.1873 
  170500      170.486    390.12755    16.036086   -439.97275   -423.93666   -8727.3885    354.21214     1584.241   -28120.618    15.325118    13.271916    27.922133    5679.1855 
  171000      170.986    424.84528    17.463149    -441.3752   -423.91205   -9218.7687    712.07472    1559.5042   -29927.885    15.325121    13.271918    27.922115    5679.1837 
  171500      171.486    388.77188    15.980362   -439.86594   -423.88558   -8120.1683    3192.1041    1379.1793   -28931.788    15.325123     13.27192    27.922098    5679.1819 
  172000      171.986    400.11638    16.446674   -440.30678   -423.86011    -9114.664    483.31311   -1363.8488   -26463.456    15.325126    13.271922     27.92208    5679.1802 
  172500      172.486    394.99865    16.236311   -440.07096   -423.83465    -8186.323    2905.8847    1232.9701   -28697.824    15.325128    13.271924    27.922063    5679.1784 
  173000      172.986    392.13474    16.118591   -439.92865   -423.81006   -8355.8004    1670.6434    938.34134   -27676.386     15.32513    13.271927    27.922045    5679.1766 
  173500      173.486    395.85312    16.271434   -440.05613   -423.78469   -9408.0553   -374.32486   -2076.1848   -25773.656    15.325133    13.271929    27.922028    5679.1749 
  174000      173.986    371.68001    15.277805   -439.03658   -423.75877    -7557.687    383.49651    3389.3524    -26445.91    15.325135    13.271931     27.92201    5679.1731 
  174500      174.486    400.07745    16.445074   -440.17905   -423.73398   -8130.8227    4211.6568    1703.0746     -30307.2    15.325138    13.271933    27.921993    5679.1713 
  175000      174.986    404.27184    16.617483   -440.32595   -423.70847   -9321.6662    1399.9165   -2031.3288   -27333.586     15.32514    13.271935    27.921975    5679.1695 
  175500      175.486    389.57178    16.013241   -439.69595   -423.68271   -8039.6501    1871.5425    1048.8001   -27039.293    15.325142    13.271937    27.921958    5679.1678 
  176000      175.986    396.32207     16.29071   -439.94791    -423.6572   -8201.3805    597.22551    1190.8304   -26392.198    15.325145    13.271939     27.92194     5679.166 
  176500      176.486     391.5444    16.094325   -439.72597   -423.63165   -8509.9606    2367.6745   -962.81807   -26934.738    15.325147    13.271941    27.921923    5679.1642 
  177000      176.986    406.71995    16.718112   -440.32379   -423.60568    -8175.341    3539.6861    812.59766   -28878.307     15.32515    13.271943    27.921905    5679.1625 
  177500      177.486    394.88441    16.231615   -439.81183   -423.58022   -8208.2994    2385.1054   -322.19468   -26687.809    15.325152    13.271945    27.921888    5679.1607 
  178000      177.986    421.81839     17.33873   -440.89307   -423.55434    -8724.779    744.67793    1608.3948    -28527.41    15.325154    13.271948     27.92187    5679.1589 
  178500      178.486     382.5422    15.724292   -439.25208   -423.52779   -8806.5774    1738.7334   -3422.4439   -24736.022    15.325157     13.27195    27.921853    5679.1571 
  179000      178.986    403.72551    16.595027   -440.09731   -423.50229   -8680.4373    2413.8485    45.839158   -28500.999    15.325159    13.271952    27.921835    5679.1554 
  179500      179.486    400.96776     16.48167   -439.95804   -423.47637   -8723.6104    1538.5047    1091.5913   -28800.927    15.325162    13.271954    27.921818    5679.1536 
  180000      179.986    417.24928    17.150918    -440.6019   -423.45098   -7832.1476    2083.4764    444.35405   -26024.273    15.325164    13.271956      27.9218    5679.1518 
  180500      180.486    393.81684    16.187734   -439.61188   -423.42415   -7550.8216    2345.7868    639.73032   -25637.982    15.325166    13.271958    27.921783    5679.1501 
  181000      180.986    401.10279     16.48722   -439.88662    -423.3994   -7904.7421    2953.2881     3057.486       -29725    15.325169     13.27196    27.921765    5679.1483 
  181500      181.486    402.86688    16.559733   -439.93295   -423.37322   -9035.3486    1785.7763    252.05005   -29143.872    15.325171    13.271962    27.921748    5679.1465 
  182000      181.986    394.81717    16.228851   -439.57579   -423.34694   -7118.4107    2470.0318    2546.3016   -26371.566    15.325174    13.271964     27.92173    5679.1447 
  182500      182.486    418.29338    17.193835   -440.51536   -423.32153   -9332.0216    2827.1304    990.84175   -31814.037    15.325176    13.271966    27.921713     5679.143 
  183000      182.986    404.45185    16.624882   -439.92012   -423.29524   -8830.1648    1014.4585    2824.8796   -30329.833    15.325178    13.271969    27.921695    5679.1412 
  183500      183.486     420.9483    17.302964    -440.5731   -423.27014   -7768.0819    2810.9947    1173.7629   -27289.003    15.325181    13.271971    27.921678    5679.1394 
  184000      183.986    383.16946    15.750076   -438.99331   -423.24323   -8676.2855    2645.2247    1400.2028   -30074.284    15.325183    13.271973     27.92166    5679.1377 
  184500      184.486    385.89018     15.86191   -439.07882   -423.21691   -8323.4192    2675.6454    1592.0774    -29237.98    15.325186    13.271975    27.921643    5679.1359 
  185000      184.986    412.44387    16.953392   -440.14502   -423.19163   -7801.3775    2602.9867     1086.201    -27093.32    15.325188    13.271977    27.921625    5679.1341 
  185500      185.486    408.42682    16.788272   -439.95404   -423.16577   -9004.7072    62.300661   -60.955761   -27015.467     15.32519    13.271979    27.921608    5679.1323 
  186000      185.986    434.62217    17.865025   -441.00495   -423.13993   -9016.3993    2689.3235    -93.72522   -29644.796    15.325193    13.271981     27.92159    5679.1306 
  186500      186.486    398.42835    16.377288   -439.49028   -423.11299   -7591.2997     1458.827     -1011.87   -23220.856    15.325195    13.271983    27.921573    5679.1288 
  187000      186.986    408.34426    16.784879   -439.87144   -423.08656   -8770.9298   -956.94856   -894.83334   -24461.007    15.325198    13.271985    27.921555     5679.127 
  187500      187.486     412.0709    16.938062   -439.99848   -423.06042   -8582.9912    2062.3833    487.17606   -28298.533      15.3252    13.271987    27.921538    5679.1253 
  188000      187.986    413.73421    17.006431   -440.04105   -423.03462   -7299.0734    1309.8921    3046.3973    -26253.51    15.325202     13.27199     27.92152    5679.1235 
  188500      188.486    410.26855    16.863976   -439.87214   -423.00816   -8120.5243    2275.3208   -886.36038   -25750.533    15.325205    13.271992    27.921503    5679.1217 
  189000      188.986    406.25181    16.698869   -439.68015   -422.98128   -8158.3238    3342.6224   -730.36656   -27087.227    15.325207    13.271994    27.921485    5679.1199 
  189500      189.486    424.13536    17.433968   -440.38916    -422.9552   -7642.4161    2380.1277    3209.3173   -28516.693     15.32521    13.271996    27.921468    5679.1182 
  190000      189.986    422.78841    17.378602   -440.30704   -422.92843   -8779.3583    2242.2916   -1100.0065    -27480.36    15.325212    13.271998     27.92145    5679.1164 
  190500      190.486    407.09867    16.733679    -439.6354   -422.90172   -6688.2058    1973.8001    3060.3002   -25098.718    15.325214       13.272    27.921433    5679.1146 
  191000      190.986    417.92492    17.178689   -440.05393   -422.87524   -8185.8629    2029.3123   -549.12787   -26037.773    15.325217    13.272002    27.921415    5679.1129 
  191500      191.486    428.04528    17.594684   -440.44376   -422.84908   -6354.5136    2179.4169    1816.4442   -23059.402    15.325219    13.272004    27.921398    5679.1111 
  192000      191.986    414.43239     17.03513   -439.85808   -422.82295   -7720.6307     1881.174   -1667.9489   -23375.117    15.325222    13.272006     27.92138    5679.1093 
  192500      192.486    382.89945    15.738977   -438.53515   -422.79617   -7526.5257    2539.6887   -820.23543    -24299.03    15.325224    13.272008    27.921363    5679.1075 
  193000      192.986    429.44078    17.652046   -440.42229   -422.77025    -8233.239   -87.213312    1008.4588   -25620.963    15.325226    13.272011    27.921345    5679.1058 
  193500      193.486      418.092    17.185557   -439.92941   -422.74385   -6931.7804    3582.2053   -52.888238   -24324.658    15.325229    13.272013    27.921328     5679.104 
  194000      193.986    419.27098    17.234019   -439.95123   -422.71721   -6883.7461   -769.88482    3174.8388   -23056.192    15.325231    13.272015     27.92131    5679.1022 
  194500      194.486    430.25686     17.68559    -440.3765   -422.69091   -9265.2449    766.02033   -152.31601   -28409.439    15.325234    13.272017    27.921293    5679.1005 
  195000      194.986    429.36208    17.648811    -440.3135   -422.66469   -8971.9878    404.35308   -2011.0586   -25309.258    15.325236    13.272019    27.921275    5679.0987 
  195500      195.486    423.50328    17.407986   -440.04599   -422.63801    -8899.344    442.65946    652.29473   -27792.986    15.325238    13.272021    27.921258    5679.0969 
  196000      195.986    409.36511    16.826841   -439.43818   -422.61134   -7366.2042    3814.8032   -113.42357   -25799.992    15.325241    13.272023     27.92124    5679.0951 
  196500      196.486     448.1146    18.419628   -441.00485   -422.58522    -9289.203     537.4569    1631.4236   -30036.489    15.325243    13.272025    27.921223    5679.0934 
  197000      196.986    419.82263    17.256694   -439.81396   -422.55727   -8350.8451    3008.2729   -496.34961   -27564.459    15.325246    13.272027    27.921205    5679.0916 
  197500      197.486    411.98507    16.934534   -439.46588   -422.53134   -6547.2188    4091.1916   -524.88742    -23207.96    15.325248    13.272029    27.921188    5679.0898 
  198000      197.986    425.79436     17.50216   -440.00749   -422.50533   -8697.0401    411.99297   -2174.7745   -24328.339     15.32525    13.272032     27.92117    5679.0881 
  198500      198.486    410.92879    16.891115   -439.36953   -422.47842   -6816.7659     4561.224   -379.35261   -24632.169    15.325253    13.272034    27.921153    5679.0863 
  199000      198.986    420.39142    17.280074    -439.7322   -422.45212   -7637.3201   -725.56549     3514.593   -25700.988    15.325255    13.272036    27.921135    5679.0845 
  199500      199.486    410.18652    16.860605   -439.28591    -422.4253   -8525.2238    184.15524    1221.2681   -26981.095    15.325258    13.272038    27.921118    5679.0827 
  200000      199.986    413.17472    16.983434   -439.38184    -422.3984   -8714.8575    3999.7727   -2383.1742   -27761.171     15.32526     13.27204      27.9211     5679.081 
  200500      200.486    408.54837    16.793269   -439.16482   -422.37155   -5381.0058    4993.9102    3062.6701   -24199.598    15.325262    13.272042    27.921083    5679.0792 
  201000      200.986    439.90955    18.082361   -440.42813   -422.34577   -9622.3816    2004.9303    983.60246   -31855.678    15.325265    13.272044    27.921065    5679.0774 
  201500      201.486    410.26412    16.863794   -439.18222   -422.31842   -8641.9334     385.3904    1473.9768   -27785.167    15.325267    13.272046    27.921048    5679.0757 
  202000      201.986    423.07866    17.390532   -439.68264    -422.2921    -8812.495     1350.665    991.93895   -28780.089     15.32527    13.272048     27.92103    5679.0739 
  202500      202.486    431.13999    17.721891   -439.98742   -422.26553   -7764.7918     709.0289    2117.8041   -26121.208    15.325272     13.27205    27.921013    5679.0721 
  203000      202.986    422.81898    17.379858    -439.6187   -422.23884   -8778.5234     1763.459    2612.3536   -30711.383    15.325274    13.272053    27.920995    5679.0703 
  203500      203.486    417.28015    17.152186   -439.36413   -422.21194   -8370.0798    3816.1413    1112.7095    -30039.09    15.325277    13.272055    27.920978    5679.0686 
  204000      203.986    415.61405    17.083702   -439.26863   -422.18493   -6650.1184    3944.3112    785.95556   -24680.622    15.325279    13.272057     27.92096    5679.0668 
  204500      204.486    390.01414    16.031424    -438.1891   -422.15768   -6750.7264    2965.2688    2357.5205   -25574.969    15.325282    13.272059    27.920943     5679.065 
  205000      204.986    425.69542    17.498094   -439.62926   -422.13116   -7444.9057    2283.5909    1964.7602   -26583.068    15.325284    13.272061    27.920925    5679.0633 
  205500      205.486    421.86285    17.340557     -439.444   -422.10344   -7491.9127    1977.5131    2281.9507   -26735.202    15.325286    13.272063    27.920908    5679.0615 
  206000      205.986    410.97626    16.893067   -438.96913   -422.07606   -6720.5228    3592.8884   -46.229186   -23708.228    15.325289    13.272065     27.92089    5679.0597 
  206500      206.486    394.75291     16.22621   -438.27546   -422.04925    -7891.621    2120.1645   -741.75484   -25053.273    15.325291    13.272067    27.920873    5679.0579 
  207000      206.986    418.85509    17.216924   -439.23949   -422.02257   -8172.2193    2911.3615   -317.60877   -27110.411    15.325294    13.272069    27.920855    5679.0562 
  207500      207.486    411.48808    16.914105   -438.90951    -421.9954   -7561.1317    375.29218    3067.2164   -26125.904    15.325296    13.272071    27.920838    5679.0544 
  208000      207.986    411.14946    16.900186   -438.86847   -421.96828   -5931.3166    3212.0872   -168.32767   -20837.709    15.325298    13.272074     27.92082    5679.0526 
  208500      208.486    433.57729    17.822076    -439.7639   -421.94182   -7424.2434    1683.1135    3996.0792   -27951.923    15.325301    13.272076    27.920803    5679.0509 
  209000      208.986    415.00793    17.058787   -438.97296   -421.91417   -7131.6094    5154.4468    1641.1222   -28190.397    15.325303    13.272078    27.920785    5679.0491 
  209500      209.486    409.34714    16.826102   -438.71373   -421.88763   -7629.2186    2471.9212    1377.0562   -26736.633    15.325306     13.27208    27.920768    5679.0473 
  210000      209.986    431.78056    17.748222   -439.60842    -421.8602   -6786.6611    2519.6001    2540.7959   -25420.379    15.325308    13.272082     27.92075    5679.0455 
  210500      210.486     423.2103    17.395943   -439.22929   -421.83335   -7749.9622    2209.9058   -641.39676   -24818.396     15.32531    13.272084    27.920733    5679.0438 
  211000      210.986    431.00902    17.716508   -439.52288   -421.80637   -6399.9971     4058.925    4494.3353   -27753.252    15.325313    13.272086    27.920715     5679.042 
  211500      211.486    437.17883    17.970116   -439.74871   -421.77859   -9200.1791    -709.1419    961.30034   -27852.696    15.325315    13.272088    27.920698    5679.0402 
  212000      211.986    425.84005    17.504039   -439.25484    -421.7508   -6751.2014    4220.8039    199.14796   -24673.556    15.325318     13.27209     27.92068    5679.0385 
[...]
  948500      948.486    581.86443    23.917378   -434.53923   -410.62185   -3052.9567    480.18075    8481.6517   -18120.703    15.328853    13.275184    27.894903    5676.4268 
  949000      948.986    566.97012    23.305152   -433.92148   -410.61633   -2585.3377    4448.5601    6973.5398   -19178.113    15.328855    13.275186    27.894885    5676.4251 
  949500      949.486     539.5899    22.179695   -432.79247   -410.61278   -3998.5896    1761.3663    9939.6611   -23696.796    15.328858    13.275188    27.894868    5676.4233 
  950000      949.986    575.94604    23.674104   -434.28193   -410.60782   -2525.1097    7668.4278    7461.2804   -22705.037     15.32886     13.27519     27.89485    5676.4215 
  950500      950.486    568.30249    23.359918   -433.96521   -410.60529   -1799.4246    5930.5692    4870.2639   -16199.107    15.328862    13.275192    27.894833    5676.4197 
  951000      950.986     566.8045    23.298344   -433.89889   -410.60055   -3584.1577    4682.4017    7737.2229   -23172.098    15.328865    13.275194    27.894815     5676.418 
  951500      951.486    544.95312    22.400149   -432.99665    -410.5965   -2667.1499    5142.0889    6186.1253   -19329.664    15.328867    13.275196    27.894798    5676.4162 
  952000      951.986     590.8302    24.285914   -434.87666   -410.59075   -2812.2606    4492.8189    5971.3696    -18900.97     15.32887    13.275198     27.89478    5676.4144 
  952500      952.486    581.37526    23.897271   -434.48333   -410.58605   -3596.4924    2925.3465    6438.2638   -20153.087    15.328872      13.2752    27.894763    5676.4126 
  953000      952.986    595.54794    24.479835   -435.05931   -410.57947   -3155.7562    4294.4347    8378.4761   -22140.179    15.328874    13.275203    27.894745    5676.4109 
  953500      953.486    569.14622    23.394599   -433.96778   -410.57318   -3601.9211    3009.1094     5804.886   -19619.759    15.328877    13.275205    27.894728    5676.4091 
  954000      953.986    551.70705    22.677767   -433.24677     -410.569    -4346.282    2937.4655    7436.7499   -23413.061    15.328879    13.275207     27.89471    5676.4073 
  954500      954.486    563.42423    23.159399   -433.72377   -410.56437   -1623.2021    2822.1536    9619.0847   -17310.845    15.328882    13.275209    27.894693    5676.4055 
  955000      954.986    584.01043    24.005589   -434.56618    -410.5606   -3997.7765    4067.1837    6413.7336   -22474.247    15.328884    13.275211    27.894675    5676.4038 
  955500      955.486    572.94338    23.550681   -434.10601   -410.55533   -1662.9487    7106.1706    9910.6237    -22005.64    15.328886    13.275213    27.894658     5676.402 
  956000      955.986    567.53441    23.328347   -433.87885    -410.5505   -1942.9754    5548.6121    5500.6231   -16878.162    15.328889    13.275215     27.89464    5676.4002 
  956500      956.486    555.19845     22.82128    -433.3666   -410.54532   -2321.5851    2718.7177    8610.6046   -18294.078    15.328891    13.275217    27.894623    5676.3984 
  957000      956.986    580.26835    23.851772   -434.39163   -410.53986   -1966.5638     6529.222    4836.8012   -17265.715    15.328894    13.275219    27.894605    5676.3967 
  957500      957.486    573.94183    23.591722   -434.12735   -410.53563   -3119.4766    5624.5568    8140.9895   -23123.976    15.328896    13.275221    27.894588    5676.3949 
  958000      957.986    557.91196    22.932818    -433.4616   -410.52878    -2039.134    3652.3783    8232.6404   -18002.421    15.328898    13.275224     27.89457    5676.3931 
  958500      958.486    557.77763    22.927297   -433.45117   -410.52388   -2259.1955    2836.8178    7564.6153    -17179.02    15.328901    13.275226    27.894553    5676.3914 
  959000      958.986    603.45964    24.805043   -435.32381   -410.51877   -3848.5774    5819.6493    4664.5386    -22029.92    15.328903    13.275228    27.894535    5676.3896 
  959500      959.486     576.5457    23.698753   -434.21167   -410.51292    -2315.774    5683.3308    8678.0229   -21308.676    15.328906     13.27523    27.894518    5676.3878 
  960000      959.986    544.73509    22.391187   -432.89931   -410.50812    -3328.396    4386.9903    7365.2771   -21737.455    15.328908    13.275232      27.8945     5676.386 
  960500      960.486    561.67728    23.087591   -433.59194   -410.50435   -3282.8549    3082.0717     4872.171   -17802.807     15.32891    13.275234    27.894483    5676.3843 
  961000      960.986    582.80372    23.955987   -434.45633   -410.50034   -3935.0349    2678.0389    7931.8138   -22414.957    15.328913    13.275236    27.894465    5676.3825 
  961500      961.486    562.99853    23.141901   -433.63609   -410.49419   -2531.5941    2475.1447    10880.971   -20950.898    15.328915    13.275238    27.894448    5676.3807 
  962000      961.986    616.32826    25.334004   -435.82353   -410.48952    -3782.683    3018.5973     6763.245   -21129.891    15.328918     13.27524     27.89443    5676.3789 
  962500      962.486     597.1286    24.544808   -435.02855   -410.48374   -2560.1623    4618.1753    6912.3072   -19210.969     15.32892    13.275242    27.894413    5676.3772 
  963000      962.986    591.00687    24.293175   -434.77124   -410.47806   -2280.0364    5259.5591    6542.7603   -18642.429    15.328922    13.275245    27.894395    5676.3754 
  963500      963.486    564.43338    23.200879    -433.6724   -410.47152   -1310.1124    5098.9282    11348.848   -20378.114    15.328925    13.275247    27.894378    5676.3736 
  964000      963.986    572.22899    23.521316   -433.98642    -410.4651   -3437.1105    5297.5522    6276.5429   -21885.427    15.328927    13.275249     27.89436    5676.3718 
  964500      964.486    567.89117    23.343011    -433.8026   -410.45959   -1466.4632      3460.55    5952.4009    -13812.34     15.32893    13.275251    27.894343    5676.3701 
  965000      964.986    561.14259    23.065613   -433.51932   -410.45371   -2379.2713    3967.3115     8056.817   -19161.943    15.328932    13.275253    27.894325    5676.3683 
  965500      965.486    584.23632    24.014874   -434.46289   -410.44801   -2781.6336    4770.2505    10475.594   -23590.745    15.328934    13.275255    27.894308    5676.3665 
  966000      965.986    569.38334    23.404346   -433.84585   -410.44151   -4277.1186    2033.0031    8649.9801   -23514.339    15.328937    13.275257     27.89429    5676.3647 
  966500      966.486    563.43855    23.159987   -433.59528   -410.43529   -176.83821    6144.7871    11240.712   -17916.014    15.328939    13.275259    27.894273     5676.363 
  967000      966.986    595.31704    24.470344   -434.89927   -410.42892   -1707.0905    4719.8961    8437.2834   -18278.451    15.328942    13.275261    27.894255    5676.3612 
  967500      967.486    566.20052    23.273517   -433.69614   -410.42262   -2947.2145    7782.8517    7942.4624   -24566.958    15.328944    13.275263    27.894238    5676.3594 
  968000      967.986    595.15727    24.463776   -434.88079   -410.41701   -3282.0062    2911.0439    5055.0339   -17812.096    15.328946    13.275266     27.89422    5676.3576 
  968500      968.486     560.3234     23.03194   -433.44269   -410.41075   -1133.6546    3789.1188    7313.3765   -14503.459    15.328949    13.275268    27.894203    5676.3559 
  969000      968.986     541.9048    22.274848    -432.6782   -410.40335   -1998.8154    1412.5323    11008.052    -18417.03    15.328951     13.27527    27.894185    5676.3541 
  969500      969.486     542.5995    22.303404   -432.70079   -410.39739   -3031.3068    7593.3505    7508.1514   -24195.422    15.328954    13.275272    27.894168    5676.3523 
  970000      969.986    555.83434    22.847418     -433.239   -410.39158   -3537.0608    5120.5876    8700.6802    -24432.45    15.328956    13.275274     27.89415    5676.3505 
  970500      970.486    542.51117    22.299773   -432.68377   -410.38399   -2207.7751      5843.42    9324.1593   -21790.905    15.328958    13.275276    27.894133    5676.3488 
  971000      970.986    549.14105    22.572292   -432.94925   -410.37696   -1636.2029    3770.1216    12248.781   -20927.511    15.328961    13.275278    27.894115     5676.347 
  971500      971.486    585.38717    24.062179   -434.43331   -410.37113   -1703.3924    6548.6821    8939.3524   -20598.212    15.328963     13.27528    27.894098    5676.3452 
  972000      971.986    568.22912    23.356903     -433.721    -410.3641   -3723.0066    3882.7234    12920.355   -27972.098    15.328966    13.275282     27.89408    5676.3434 
  972500      972.486    574.48171    23.613913   -433.97288   -410.35897   -2767.9739    4383.6675    6078.0007    -18765.59    15.328968    13.275284    27.894063    5676.3417 
  973000      972.986     567.8355    23.340723    -433.6924   -410.35168   -2641.3537    6187.4165    5467.1638   -19578.642     15.32897    13.275287    27.894045    5676.3399 
  973500      973.486    567.93348     23.34475    -433.6893   -410.34455   -3644.0821    5874.4314    5461.3509   -22268.028    15.328973    13.275289    27.894028    5676.3381 
  974000      973.986    591.65929    24.319993   -434.65681   -410.33682   -2525.4016    8206.1159    3917.9842   -19700.305    15.328975    13.275291     27.89401    5676.3363 
  974500      974.486    550.71346    22.636926    -432.9663   -410.32938   -1586.8181    11250.706    4046.3922   -20057.553    15.328978    13.275293    27.893993    5676.3346 
  975000      974.986    567.18442     23.31396    -433.6362   -410.32224   -3037.1407    9628.5303    4423.9539   -23163.906     15.32898    13.275295    27.893975    5676.3328 
  975500      975.486    545.15335    22.408379   -432.72272   -410.31434   -2116.3007    10750.639    4268.3307   -21367.871    15.328982    13.275297    27.893958     5676.331 
  976000      975.986     523.7543    21.528777   -431.83544   -410.30666   -499.85989    10475.077    7901.9863   -19876.643    15.328985    13.275299     27.89394    5676.3292 
  976500      976.486    591.98963    24.333572   -434.63385   -410.30028   -2545.4874    10809.494    2232.0635    -20678.02    15.328987    13.275301    27.893923    5676.3275 
  977000      976.986    573.41564    23.570093   -433.86115   -410.29105   -3380.3512    10386.756     4336.464   -24864.274     15.32899    13.275303    27.893905    5676.3257 
  977500      977.486    559.68304    23.005618   -433.28827   -410.28266   -2073.0781    7323.8277      5804.31   -19347.372    15.328992    13.275305    27.893888    5676.3239 
  978000      977.986     566.1692     23.27223   -433.54796   -410.27573   -2838.8279     5830.246    4924.0666   -19270.796    15.328994    13.275308     27.89387    5676.3221 
  978500      978.486    586.84062    24.121923   -434.39045   -410.26853   -2678.2934    10034.842    3927.7647   -21997.487    15.328997     13.27531    27.893853    5676.3204 
  979000      978.986    583.61749    23.989437    -434.2504   -410.26097   -2837.5128    9058.2162    3512.6207   -21083.375    15.328999    13.275312    27.893835    5676.3186 
  979500      979.486    575.56073    23.658266   -433.91081   -410.25254   -1335.5556    9679.3284    5177.8647    -18863.86    15.329002    13.275314    27.893818    5676.3168 
  980000      979.986    570.01905    23.430477   -433.67448     -410.244   -3688.5146    5036.4439    3042.4748   -19144.462    15.329004    13.275316      27.8938     5676.315 
  980500      980.486    559.16841    22.984464   -433.21976    -410.2353   -1879.6339    10451.296    5334.7953   -21424.993    15.329006    13.275318    27.893783    5676.3133 
  981000      980.986    585.08257    24.049659   -434.27821   -410.22855   -2215.0696    7702.3774    6399.9664   -20747.553    15.329009     13.27532    27.893765    5676.3115 
  981500      981.486    577.30891    23.730125      -433.95   -410.21988   -3293.5374    6557.7082     4131.572   -20569.892    15.329011    13.275322    27.893748    5676.3097 
  982000      981.986    607.49457    24.970898   -435.18254   -410.21164   -4207.2389    7399.3153    1051.6059   -21072.638    15.329014    13.275324     27.89373    5676.3079 
  982500      982.486    553.46357    22.749968   -432.95311   -410.20314   -2465.6487    9780.0948    4462.9703   -21640.011    15.329016    13.275326    27.893713    5676.3062 
  983000      982.986    574.72033    23.623722   -433.82036   -410.19664   -2381.6401    10591.987    5650.7223   -23387.629    15.329018    13.275329    27.893695    5676.3044 
  983500      983.486    592.06366    24.336614   -434.52521    -410.1886   -2961.2653    9080.3182    3198.9527   -21163.067    15.329021    13.275331    27.893678    5676.3026 
  984000      983.986    564.00472    23.183259   -433.36217   -410.17891   -1616.6813    11955.304     2392.299   -19197.647    15.329023    13.275333     27.89366    5676.3009 
  984500      984.486    582.05348    23.925149   -434.09676   -410.17161   -2098.3694    12345.471    3461.5412    -22102.12    15.329026    13.275335    27.893643    5676.2991 
  985000      984.986    558.61241     22.96161   -433.12398   -410.16237   -2913.6613    9107.7998    1226.8935   -19075.677    15.329028    13.275337    27.893625    5676.2973 
  985500      985.486    574.94485    23.632951   -433.78721   -410.15426   -2102.0362     11311.41     2177.452   -19794.971     15.32903    13.275339    27.893608    5676.2955 
  986000      985.986    578.13111    23.763921   -433.91065   -410.14673   -2471.3703    7502.2394    4600.6107   -19516.961    15.329033    13.275341     27.89359    5676.2938 
  986500      986.486    590.00928     24.25217   -434.38877    -410.1366   -3490.8614     9648.971    3212.5119   -23334.067    15.329035    13.275343    27.893573     5676.292 
  987000      986.986    577.89832    23.754352   -433.88341   -410.12906    -1059.113    7514.0305     3799.032   -14490.402    15.329038    13.275345    27.893555    5676.2902 
  987500      987.486      565.804    23.257219    -433.3768   -410.11958   -1772.0914    7258.9259     7790.908   -20366.108     15.32904    13.275347    27.893538    5676.2884 
  988000      987.986    591.30973    24.305624   -434.41814   -410.11252   -3085.6958    6846.3821    9279.2448   -25382.714    15.329042     13.27535     27.89352    5676.2867 
  988500      988.486    560.05924    23.021082   -433.12317   -410.10209   -2027.2229    6939.7107     6831.346   -19852.726    15.329045    13.275352    27.893503    5676.2849 
  989000      988.986    567.43798    23.324383   -433.41908    -410.0947   -1849.9029    8094.6161    4478.6068   -18122.932    15.329047    13.275354    27.893485    5676.2831 
  989500      989.486    571.05285    23.472971   -433.55868   -410.08571   -2907.1931    9326.0597    5947.0703   -23994.709     15.32905    13.275356    27.893468    5676.2813 
  990000      989.986    585.68355    24.074362   -434.15251   -410.07815     -2829.52    3816.2736    8857.4181   -21162.252    15.329052    13.275358     27.89345    5676.2796 
  990500      990.486     529.1966    21.752482   -431.81866   -410.06618   -1683.3376    9422.3517    9713.4385   -24185.803    15.329054     13.27536    27.893433    5676.2778 
  991000      990.986    586.07917    24.090624   -434.15079   -410.06017   -3631.9226    2259.7853    9019.3178   -22174.871    15.329057    13.275362    27.893415     5676.276 
  991500      991.486    581.08181    23.885208   -433.93765   -410.05244   -2683.8909    4501.3125    6996.6594   -19549.645    15.329059    13.275364    27.893398    5676.2742 
  992000      991.986     594.1582     24.42271   -434.46762   -410.04491   -3267.6326    7016.8903    5652.9624   -22472.751    15.329062    13.275366     27.89338    5676.2725 
  992500      992.486    614.96586    25.278003   -435.31383   -410.03582   -4217.5087    4836.0385    4444.0888   -21932.653    15.329064    13.275368    27.893363    5676.2707 
  993000      992.986    583.37216    23.979353   -434.00563   -410.02628   -3141.5799    9454.4599    5163.5034   -24042.703    15.329066    13.275371    27.893345    5676.2689 
  993500      993.486    590.18933    24.259571   -434.27631   -410.01674    -3577.494    10190.003    4306.9424   -25229.427    15.329069    13.275373    27.893328    5676.2671 
  994000      993.986    567.01534     23.30701   -433.31494   -410.00793   -2210.3009    6384.9099    7458.4799   -20474.293    15.329071    13.275375     27.89331    5676.2654 
  994500      994.486    606.60813    24.934461   -434.93305   -409.99858   -2259.1339    8871.8394    7894.1379   -23543.379    15.329074    13.275377    27.893293    5676.2636 
  995000      994.986    586.29717    24.099585    -434.0883   -409.98872   -2248.3891    5077.5512     10522.88   -22345.598    15.329076    13.275379    27.893275    5676.2618 
  995500      995.486    573.24716    23.563167   -433.54229   -409.97912   -1679.1784    8419.3174    8415.4637   -21872.316    15.329078    13.275381    27.893258      5676.26 
  996000      995.986     561.7333    23.089894   -433.05845   -409.96856    -3205.204    6273.1274    4438.4545   -20327.194    15.329081    13.275383     27.89324    5676.2583 
  996500      996.486    558.81092     22.96977   -432.92973   -409.95996   -2331.4102    7254.3456    4890.6212   -19139.197    15.329083    13.275385    27.893223    5676.2565 
  997000      996.986    548.74982    22.556211   -432.50625   -409.95004   -1796.6258    7844.9298    5955.9372   -19190.745    15.329086    13.275387    27.893205    5676.2547 
  997500      997.486    611.21348    25.123763   -435.06511   -409.94134   -3270.8407    5499.9809    5103.8251   -20416.328    15.329088    13.275389    27.893188    5676.2529 
  998000      997.986    557.78017    22.927401   -432.85879   -409.93139   -1633.9399    7412.4992    8822.0462   -21136.365     15.32909    13.275392     27.89317    5676.2512 
  998500      998.486    569.66002    23.415719   -433.33771   -409.92199   -3646.1811    3168.4841    7227.1543   -21334.182    15.329093    13.275394    27.893153    5676.2494 
  999000      998.986    593.61488    24.400377   -434.31335   -409.91298   -4345.9393    7383.4481    5151.4417   -25572.708    15.329095    13.275396    27.893135    5676.2476 
  999500      999.486    620.54306    25.507252   -435.41028   -409.90303   -3642.2816    3708.9731    8007.7372   -22643.555    15.329098    13.275398    27.893118    5676.2458 
 1000000      999.986    571.09281    23.474613   -433.36631   -409.89169   -1480.4295    7295.5949    7941.9569    -19678.84      15.3291      13.2754      27.8931    5676.2441 
 1000014         1000    586.28752    24.099188   -433.99107   -409.89188   -1383.7887    6156.7323    9404.2196   -19712.318      15.3291      13.2754      27.8931     5676.244 
Loop time of 882.096 on 28 procs for 1000000 steps with 319 atoms

Performance: 97.948 ns/day, 0.245 hours/ns, 1133.663 timesteps/s
87.0% CPU use with 28 MPI tasks x no OpenMP threads

MPI task timing breakdown:
Section |  min time  |  avg time  |  max time  |%varavg| %total
---------------------------------------------------------------
Pair    | 739.06     | 769.68     | 800.94     |  58.8 | 87.26
Neigh   | 0.02944    | 0.042746   | 0.055721   |   3.5 |  0.00
Comm    | 70.8       | 99.118     | 131.05     | 158.9 | 11.24
Output  | 0.10142    | 0.10385    | 0.12675    |   1.4 |  0.01
Modify  | 4.7339     | 8.095      | 12.834     |  87.8 |  0.92
Other   |            | 5.06       |            |       |  0.57

Nlocal:    11.3929 ave 16 max 7 min
Histogram: 2 2 2 4 6 4 1 3 2 2
Nghost:    641.75 ave 693 max 586 min
Histogram: 5 1 2 2 3 2 1 5 5 2
Neighs:    701.071 ave 1025 max 410 min
Histogram: 3 0 4 4 6 3 3 2 1 2
FullNghs:  1402.14 ave 1997 max 841 min
Histogram: 2 3 1 4 6 4 1 3 2 2

Total # of neighbors = 39260
Ave neighs/atom = 123.072
Neighbor list builds = 644
Dangerous builds = 0

write_restart   POSCAR_1x1x1.rest

#unfix    1
#undump   1
Total wall time: 0:14:42
