LAMMPS (7 Dec 2015)
#----------- Initialize Simulation ------------ restart01
#processors	2 2 2
units		metal
boundary	p p p     ## periodic boundary condition  on x y z axis ##
atom_style atomic
#atom_modify map array sort 0 0.0

read_data	POSCAR_1x1x1.lammps
  triclinic box = (0 0 0) to (15.6192 13.5266 25.7588) with tilt (-7.8095 0 0)
  2 by 2 by 7 MPI processor grid
  reading atoms ...
  319 atoms

#----------- Define Potential -----------------
pair_style meam
pair_coeff * * MgAlZn.library.meam Mg Al Zn MgAlZn.parameter.meam Mg Al Zn 	#1=Mg 2=Al 3=Zn	#atoms/mass

#----------- Neighbor List --------------------
neighbor 2.0 bin
neigh_modify delay 10 check yes

#--------------  Run a simulation (minimization) ---------------------------------------
minimize       1.0e-4   1.0e-6   100   1000          #結構優化的條件
WARNING: Resetting reneighboring criteria during minimization (../min.cpp:168)
Neighbor list info ...
  2 neighbor list requests
  update every 1 steps, delay 0 steps, check yes
  max neighbors/atom: 2000, page size: 100000
  master list distance cutoff = 8
  ghost atom cutoff = 8
  binsize = 4 -> bins = 6 4 7
Memory usage per processor = 8.65167 Mbytes
Step Temp E_pair E_mol TotEng Press 
       0            0   -437.76433            0   -437.76433     8374.858 
      12            0   -460.87494            0   -460.87494   -9938.8746 
Loop time of 0.0206228 on 28 procs for 12 steps with 319 atoms

86.9% CPU use with 28 MPI tasks x no OpenMP threads

Minimization stats:
  Stopping criterion = energy tolerance
  Energy initial, next-to-last, final = 
        -437.764327414     -460.859223402     -460.874943444
  Force two-norm initial, final = 21.5602 1.73634
  Force max component initial, final = 3.91896 0.626048
  Final line search alpha, max atom move = 0.18549 0.116126
  Iterations, force evaluations = 12 20

MPI task timing breakdown:
Section |  min time  |  avg time  |  max time  |%varavg| %total
---------------------------------------------------------------
Pair    | 0.016023   | 0.01716    | 0.018658   |   0.4 | 83.21
Neigh   | 0          | 0          | 0          |   0.0 |  0.00
Comm    | 0.0011582  | 0.002616   | 0.0037251  |   1.1 | 12.68
Output  | 0          | 0          | 0          |   0.0 |  0.00
Modify  | 0          | 0          | 0          |   0.0 |  0.00
Other   |            | 0.0008468  |            |       |  4.11

Nlocal:    11.3929 ave 17 max 6 min
Histogram: 2 2 4 1 8 1 4 3 0 3
Nghost:    667.357 ave 696 max 645 min
Histogram: 2 2 7 1 6 3 4 0 0 3
Neighs:    725 ave 1127 max 407 min
Histogram: 3 1 4 4 5 3 5 0 2 1
FullNghs:  1450 ave 2217 max 774 min
Histogram: 2 2 4 1 8 1 6 1 1 2

Total # of neighbors = 40600
Ave neighs/atom = 127.273
Neighbor list builds = 0
Dangerous builds = 0
velocity all  create 600.0 4928459 #rot yes dist gaussian

#--------------  Run a simulation (Relaxation)  ----------------------------------------
fix  1  all  nvt   temp  600.0  600.0  100				#damping constant
#fix  2  all  npt   temp  393.0  393.0  50 iso 0.0 0.0 1000.0
fix  2  all deform 1 x final 0 15.624 y final 0 13.5308 z final 0 25.7238 xy final -7.8119 units lattice
#fix  3  all  npt   temp  393.0  393.0  50 z 0.0 0.0 1000.0

#variable b equal 1
#fix 2 all efield  0.0  0.0  v_b
#compute pot all pe/atom


#----------- Output --------------------------
thermo	 500
timestep  0.001		#1.0 fs
thermo_style	custom step time temp ke pe etotal press pxx pyy pzz lx ly lz vol

dump 1 all custom 10000 dump.eq id type x y z
dump_modify 1 sort  id

run        1000000	#1000 ps
Neighbor list info ...
  2 neighbor list requests
  update every 1 steps, delay 10 steps, check yes
  max neighbors/atom: 2000, page size: 100000
  master list distance cutoff = 8
  ghost atom cutoff = 8
  binsize = 4 -> bins = 6 4 7
Memory usage per processor = 7.56082 Mbytes
Step Time Temp KinEng PotEng TotEng Press Pxx Pyy Pzz Lx Ly Lz Volume 
      12            0          600    24.662836   -460.87494   -436.21211   -5098.3877   -13312.153   -14277.598    12294.587      15.6192      13.5266      25.7588     5442.182 
     500        0.488    324.74679    13.348628   -449.55605   -436.20742    541.37292   -10580.135   -8653.5905    20857.845    15.619202    13.526602    25.758783      5442.18 
    1000        0.988    327.21336    13.450015   -449.65701   -436.20699    1143.8857   -9186.9748   -12542.735    25161.367    15.619205    13.526604    25.758765     5442.178 
    1500        1.488    302.41841    12.430826   -448.63668   -436.20585    2894.5299   -6866.9141   -7573.3496    23123.853    15.619207    13.526606    25.758748     5442.176 
    2000        1.988    305.45206    12.555523   -448.76009   -436.20457    768.91006   -10196.091   -6490.4632    18993.284     15.61921    13.526608     25.75873     5442.174 
    2500        2.488    325.24725    13.369199   -449.57236   -436.20316    247.39374   -8963.0211    -10988.04    20693.243    15.619212     13.52661    25.758713     5442.172 
    3000        2.988    316.47671    13.008689    -449.2098   -436.20112     786.4998    -9835.003   -8283.0161    20477.518    15.619214    13.526613    25.758695    5442.1699 
    3500        3.488    308.01927    12.661048   -448.86026   -436.19922    2755.3605   -5584.3528   -9594.8004    23445.235    15.619217    13.526615    25.758678    5442.1679 
    4000        3.988    291.54928    11.984053   -448.18053   -436.19648     3618.321   -6926.1268   -9297.0693    27078.159    15.619219    13.526617     25.75866    5442.1659 
    4500        4.488    309.11831    12.706223   -448.90126   -436.19504     733.3168   -8706.6547    -10104.25    21010.855    15.619222    13.526619    25.758643    5442.1639 
    5000        4.988    308.25765    12.670846   -448.86267   -436.19183    1652.6131   -9685.2271    -9434.828    24077.894    15.619224    13.526621    25.758625    5442.1619 
    5500        5.488    306.65852    12.605114   -448.79407   -436.18896    1161.0949   -9789.6019   -8983.3158    22256.202    15.619226    13.526623    25.758608    5442.1599 
    6000        5.988     317.4472     13.04858   -449.23404   -436.18546    1138.8722   -7603.4318   -9313.2137    20333.262    15.619229    13.526625     25.75859    5442.1578 
    6500        6.488    293.33597    12.057495   -448.23875   -436.18126    1583.2546    -9606.851   -8693.9651     23050.58    15.619231    13.526627    25.758573    5442.1558 
    7000        6.988    310.10265    12.746685   -448.92361   -436.17693    1151.2211   -7818.2415    -10613.33    21885.235    15.619234    13.526629    25.758555    5442.1538 
    7500        7.488    299.85541    12.325475   -448.49801   -436.17254     2057.165   -7699.8511   -10201.549    24072.895    15.619236    13.526631    25.758538    5442.1518 
    8000        7.988    312.33054    12.838261   -449.00609   -436.16783    723.86897   -10216.397   -11248.607    23636.611    15.619238    13.526634     25.75852    5442.1498 
    8500        8.488    327.82375    13.475106   -449.63744   -436.16234    2023.1228   -9322.3779   -7288.3873    22680.134    15.619241    13.526636    25.758503    5442.1478 
    9000        8.988    324.58024    13.341782   -449.49904   -436.15726    919.46252   -9750.6211   -9898.1788    22407.187    15.619243    13.526638    25.758485    5442.1457 
    9500        9.488    309.95878    12.740771   -448.89189   -436.15112    2759.8687   -6232.1815   -8768.1431    23279.931    15.619246     13.52664    25.758468    5442.1437 
   10000        9.988    298.49995    12.269759   -448.41439   -436.14463    2315.2363   -5816.9967   -9677.8321    22440.538    15.619248    13.526642     25.75845    5442.1417 
   10500       10.488    305.65182    12.563735   -448.70194   -436.13821    2814.9548   -6344.8467   -10818.822    25608.533     15.61925    13.526644    25.758433    5442.1397 
   11000       10.988    307.24216    12.629105   -448.76085   -436.13174    1293.3175   -6543.9532   -13036.051    23459.956    15.619253    13.526646    25.758415    5442.1377 
   11500       11.488    290.32187    11.933601   -448.05806   -436.12446    2480.1547   -6910.1193    -9405.352    23755.935    15.619255    13.526648    25.758398    5442.1357 
   12000       11.988    310.27898    12.753932   -448.87197   -436.11804    1234.9097   -8753.9926   -10653.082    23111.803    15.619258     13.52665     25.75838    5442.1336 
   12500       12.488    304.01763    12.496562   -448.60656      -436.11     2086.455   -8280.9726   -8461.5139    23001.852     15.61926    13.526652    25.758363    5442.1316 
   13000       12.988    320.86815    13.189197   -449.29127   -436.10208    348.91658   -12506.706   -11319.049    24872.505    15.619262    13.526655    25.758345    5442.1296 
   13500       13.488    310.70852    12.771589   -448.86539    -436.0938   -146.34796    -9736.605   -10535.099     19832.66    15.619265    13.526657    25.758328    5442.1276 
   14000       13.988    295.17874    12.133241   -448.21853   -436.08529    1047.9815   -7959.3781   -11514.013    22617.336    15.619267    13.526659     25.75831    5442.1256 
   14500       14.488    311.51574    12.804769   -448.88143   -436.07666    1564.3128   -9049.1407   -8991.3205      22733.4     15.61927    13.526661    25.758293    5442.1236 
   15000       14.988    296.97072      12.2069   -448.27365   -436.06675    340.41476   -11649.246   -10088.015    22758.505    15.619272    13.526663    25.758275    5442.1216 
   15500       15.488    307.97497    12.659227   -448.71714   -436.05791    1571.2229   -9620.0319   -7890.7616    22224.462    15.619274    13.526665    25.758258    5442.1195 
   16000       15.988    303.68338    12.482822   -448.53083   -436.04801     2627.987   -8344.9591   -8256.0763    24484.996    15.619277    13.526667     25.75824    5442.1175 
   16500       16.488    304.69176    12.524271   -448.56199   -436.03772     1770.667   -9686.2591   -8725.2563    23723.516    15.619279    13.526669    25.758223    5442.1155 
   17000       16.988    334.95642    13.768292   -449.79681   -436.02852    1589.7244   -7838.0986   -9011.0679     21618.34    15.619282    13.526671    25.758205    5442.1135 
   17500       17.488     322.9509    13.274808   -449.29165   -436.01684    2104.7035   -7231.0081   -12621.095    26166.213    15.619284    13.526673    25.758188    5442.1115 
   18000       17.988    293.43106    12.061404   -448.06676   -436.00536     1854.503   -7665.5279   -8703.8183    21932.855    15.619286    13.526676     25.75817    5442.1095 
   18500       18.488    309.26906     12.71242   -448.70636   -435.99394    1517.9966   -10376.499   -11446.064    26376.553    15.619289    13.526678    25.758153    5442.1074 
   19000       18.988    318.14152     13.07712   -449.05974   -435.98262    657.37601   -9566.6678   -9148.9109    20687.707    15.619291     13.52668    25.758135    5442.1054 
   19500       19.488    308.98287    12.700656   -448.67151   -435.97085    595.53411   -8124.8074   -11727.252    21638.662    15.619294    13.526682    25.758118    5442.1034 
   20000       19.988    284.25196    11.684099   -447.64201   -435.95791    1846.5684   -8714.4804   -11738.366    25992.551    15.619296    13.526684      25.7581    5442.1014 
   20500       20.488    327.40126    13.457739   -449.40426   -435.94653    1317.0841   -7172.1552     -9220.66    20344.067    15.619298    13.526686    25.758083    5442.0994 
   21000       20.988     319.2777    13.123823    -449.0579   -435.93408    1458.9921   -7452.8121   -12109.838    23939.627    15.619301    13.526688    25.758065    5442.0974 
   21500       21.488    314.58617    12.930978   -448.85129   -435.92031    1269.0013   -9203.3939   -8969.4554    21979.853    15.619303     13.52669    25.758048    5442.0953 
   22000       21.988    324.42947    13.335584   -449.24213   -435.90655    1626.2546   -7025.5877   -7259.7677    19164.119    15.619306    13.526692     25.75803    5442.0933 
   22500       22.488      329.201    13.531717   -449.42531    -435.8936    1611.4698   -8338.9215   -10206.802    23380.133    15.619308    13.526694    25.758013    5442.0913 
   23000       22.988     314.1137    12.911558    -448.7908   -435.87924    2463.8171   -8280.2535   -6491.0408    22162.746     15.61931    13.526697    25.757995    5442.0893 
   23500       23.488    328.74815    13.513103   -449.37864   -435.86554    1893.0698   -7682.5754    -9759.889    23121.674    15.619313    13.526699    25.757978    5442.0873 
   24000       23.988     318.8074    13.104491   -448.95518   -435.85069    2102.8753   -8918.3062   -8670.8721    23897.804    15.619315    13.526701     25.75796    5442.0853 
   24500       24.488    320.55058    13.176144   -449.01241   -435.83626     1204.768   -8788.2752   -11548.901     23951.48    15.619318    13.526703    25.757943    5442.0832 
   25000       24.988    325.51115    13.380047   -449.20157   -435.82153    1859.7166    -7904.139   -11447.829    24931.118     15.61932    13.526705    25.757925    5442.0812 
   25500       25.488    319.52024    13.133792    -448.9399   -435.80611     1338.661   -7240.3502   -11440.103    22696.436    15.619322    13.526707    25.757908    5442.0792 
   26000       25.988    318.47859    13.090975   -448.88187   -435.79089    926.02993   -9048.6624   -11314.052    23140.804    15.619325    13.526709     25.75789    5442.0772 
   26500       26.488    324.38959    13.333945   -449.10858   -435.77463    1665.6082   -7981.5634   -11412.591    24390.979    15.619327    13.526711    25.757873    5442.0752 
   27000       26.988    310.42969    12.760127   -448.51878   -435.75866    1384.5388   -7498.4439   -10486.681    22138.741     15.61933    13.526713    25.757855    5442.0732 
   27500       27.488    327.06455    13.443899   -449.18673   -435.74283    1191.4161   -9658.0373   -8458.4986    21690.784    15.619332    13.526715    25.757838    5442.0711 
   28000       27.988    307.85227    12.654183   -448.38025   -435.72606    1595.4226   -10096.707   -10564.942    25447.918    15.619334    13.526718     25.75782    5442.0691 
   28500       28.488    313.03469    12.867205   -448.57683   -435.70962    775.86354   -8170.0564   -13228.037    23725.684    15.619337     13.52672    25.757803    5442.0671 
   29000       28.988    315.86687    12.983621   -448.67659   -435.69297    1325.6665    -7640.757   -11499.872    23117.629    15.619339    13.526722    25.757785    5442.0651 
   29500       29.488    324.52425     13.33948   -449.01572   -435.67624    1412.8742   -7813.9416   -11093.883    23146.448    15.619342    13.526724    25.757768    5442.0631 
   30000       29.988    323.38898    13.292816   -448.95196   -435.65914    1660.1431   -10325.877   -9408.4616    24714.768    15.619344    13.526726     25.75775    5442.0611 
   30500       30.488    314.35126    12.921322   -448.56281   -435.64149    2656.9784   -7356.2642   -11295.643    26622.843    15.619346    13.526728    25.757733     5442.059 
   31000       30.988    326.03126    13.401426   -449.02553    -435.6241    1647.7837   -7272.7385   -8611.4493    20827.539    15.619349     13.52673    25.757715     5442.057 
   31500       31.488    311.31606    12.796562   -448.40331   -435.60675     2253.522    -9809.782   -8137.2941    24707.642    15.619351    13.526732    25.757698     5442.055 
   32000       31.988     326.4666     13.41932   -449.00796   -435.58864     1301.707   -7657.6123    -7627.513    19190.246    15.619354    13.526734     25.75768     5442.053 
   32500       32.488    311.14222    12.789416   -448.36022   -435.57081    2336.7865   -6899.8595   -9012.4966    22922.716    15.619356    13.526736    25.757663     5442.051 
   33000       32.988    308.54026    12.682463   -448.23514   -435.55268    941.27787   -10821.769   -7910.4019    21556.005    15.619358    13.526739    25.757645     5442.049 
   33500       33.488    328.95603    13.521647   -449.05619   -435.53454    1216.7936   -8458.1604   -10459.455    22567.996    15.619361    13.526741    25.757628    5442.0469 
   34000       33.988    338.04566    13.895274   -449.41171   -435.51644    1151.4738    -8230.717    -9437.328    21122.466    15.619363    13.526743     25.75761    5442.0449 
   34500       34.488    323.92622    13.314899    -448.8128   -435.49791    1892.1565   -10322.654   -10128.723    26127.847    15.619366    13.526745    25.757593    5442.0429 
   35000       34.988     312.3601    12.839476   -448.31862   -435.47914    1321.9669    -7071.555   -9863.7387    20901.194    15.619368    13.526747    25.757575    5442.0409 
   35500       35.488    314.61731    12.932258   -448.39255   -435.46029    1543.4884   -7125.8484   -8303.7483    20060.062     15.61937    13.526749    25.757558    5442.0389 
   36000       35.988    320.60606    13.178424   -448.62075   -435.44233    2106.9446   -7528.8757    -9634.193    23483.902    15.619373    13.526751     25.75754    5442.0369 
   36500       36.488    302.01817    12.414374   -447.83692   -435.42255    2128.2828   -7992.7535    -6781.752    21159.354    15.619375    13.526753    25.757523    5442.0348 
   37000       36.988    318.00347    13.071445   -448.47535    -435.4039    1401.7367   -10199.651   -11551.264    25956.124    15.619378    13.526755    25.757505    5442.0328 
   37500       37.488    327.87687    13.477289   -448.86282   -435.38553    1184.3041   -9378.3246   -10778.637    23709.874     15.61938    13.526757    25.757488    5442.0308 
   38000       37.988    324.04765     13.31989   -448.68588   -435.36599     1395.586   -9129.6471   -8400.7891    21717.194    15.619382     13.52676     25.75747    5442.0288 
   38500       38.488    306.04696    12.579977   -447.92673   -435.34676    1932.2708   -8073.8015   -7669.8068    21540.421    15.619385    13.526762    25.757453    5442.0268 
   39000       38.988     328.7413    13.512821    -448.8414   -435.32857    1908.8541   -6140.2029   -11027.152    22893.917    15.619387    13.526764    25.757435    5442.0248 
   39500       39.488    326.60179    13.424877   -448.73451   -435.30964    712.56871   -8172.4657   -9825.8868    20136.059     15.61939    13.526766    25.757418    5442.0228 
   40000       39.988    330.79234    13.597128   -448.88832   -435.29119    2367.9022   -4944.1852   -10700.915    22748.807    15.619392    13.526768      25.7574    5442.0207 
   40500       40.488     337.9493    13.891313   -449.16309   -435.27178     1622.988    -6386.393   -10466.359    21721.716    15.619394     13.52677    25.757383    5442.0187 
   41000       40.988    343.87757    14.134993   -449.38782   -435.25283    1845.9506   -7743.5876   -12249.466    25530.906    15.619397    13.526772    25.757365    5442.0167 
   41500       41.488    324.68663    13.346155     -448.579   -435.23285    106.66847   -9203.9591   -11805.165     21329.13    15.619399    13.526774    25.757348    5442.0147 
   42000       41.988    344.35447    14.154596   -449.36929   -435.21469    919.23625    -11106.53   -11484.916    25349.155    15.619402    13.526776     25.75733    5442.0127 
   42500       42.488    321.53788    13.216727   -448.41196   -435.19523    2054.9704   -10506.124   -8594.9047     25265.94    15.619404    13.526778    25.757313    5442.0107 
   43000       42.988    312.60055     12.84936   -448.02495   -435.17559    2869.0624   -8436.2639   -7204.3455    24247.797    15.619406    13.526781    25.757295    5442.0086 
   43500       43.488    321.24804    13.204813   -448.36223   -435.15742    934.27764   -10525.671   -10862.115    24190.619    15.619409    13.526783    25.757278    5442.0066 
   44000       43.988    321.98467    13.235092   -448.37322   -435.13812     1715.054   -10623.165   -8531.7987    24300.126    15.619411    13.526785     25.75726    5442.0046 
   44500       44.488    338.88772    13.929887    -449.0495   -435.11962    728.83594   -9152.4963   -10149.541    21488.545    15.619414    13.526787    25.757243    5442.0026 
   45000       44.988    325.64334     13.38548   -448.48623   -435.10075     2878.099   -8078.2257   -10272.741    26985.264    15.619416    13.526789    25.757225    5442.0006 
   45500       45.488    312.98719    12.865253    -447.9471   -435.08185    3155.9598   -6778.1673   -8242.7371    24488.784    15.619418    13.526791    25.757208    5441.9986 
   46000       45.988    316.33797    13.002986   -448.06657   -435.06359    632.08207   -8034.2244   -10767.268    20697.739    15.619421    13.526793     25.75719    5441.9965 
   46500       46.488    308.43277    12.678044   -447.72261   -435.04457    1989.9099     -7623.43   -8908.7074    22501.867    15.619423    13.526795    25.757173    5441.9945 
   47000       46.988    314.38588    12.922745   -447.94837   -435.02563    170.47959   -9453.8541    -12859.34    22824.633    15.619426    13.526797    25.757155    5441.9925 
   47500       47.488    311.38515    12.799401   -447.80702   -435.00762    2749.2271   -4466.1482   -9846.9509     22560.78    15.619428    13.526799    25.757138    5441.9905 
   48000       47.988    321.73049    13.224644   -448.21364     -434.989    2269.9193   -7618.6322   -8240.1495     22668.54     15.61943    13.526802     25.75712    5441.9885 
   48500       48.488    322.03737    13.237258   -448.20779   -434.97054    2283.9213   -8659.7366   -10437.639    25949.139    15.619433    13.526804    25.757103    5441.9865 
   49000       48.988    326.44322    13.418359   -448.37112   -434.95276     2401.745    -8331.661   -9778.6031    25315.499    15.619435    13.526806    25.757085    5441.9844 
   49500       49.488    313.42614    12.883296   -447.81795   -434.93465    3883.6173   -7674.8134   -7317.2823    26642.948    15.619438    13.526808    25.757068    5441.9824 
   50000       49.988    300.07808    12.334627   -447.25133   -434.91671    1620.9097   -7744.5727   -10513.164    23120.465     15.61944     13.52681     25.75705    5441.9804 
   50500       50.488    324.50137     13.33854   -448.23738   -434.89884    2517.7273   -7349.4469   -8903.9352    23806.564    15.619442    13.526812    25.757033    5441.9784 
   51000       50.988    339.53557    13.956517   -448.83819   -434.88168    1800.5928   -6942.8763   -9408.6731    21753.328    15.619445    13.526814    25.757015    5441.9764 
   51500       51.488    324.92621    13.356003    -448.2192   -434.86319    2346.0478   -8459.4641   -9265.0714    24762.679    15.619447    13.526816    25.756998    5441.9744 
   52000       51.988    319.71325    13.141725   -447.98819   -434.84647    2282.0087   -7506.6336   -10566.603    24919.263     15.61945    13.526818     25.75698    5441.9723 
   52500       52.488    313.22159    12.874888   -447.70332   -434.82843    3362.1846   -7733.5831   -8530.2439    26350.381    15.619452     13.52682    25.756963    5441.9703 
   53000       52.988    329.26259    13.534249   -448.34541   -434.81117    3044.8065   -7025.6633   -9491.8318    25651.914    15.619454    13.526823    25.756945    5441.9683 
   53500       53.488    332.47492    13.666291   -448.46022   -434.79393    1844.7063     -7214.77   -12679.736    25428.625    15.619457    13.526825    25.756928    5441.9663 
   54000       53.988    333.58332    13.711851   -448.48919   -434.77734    1249.9983   -10184.919   -7858.6534    21793.568    15.619459    13.526827     25.75691    5441.9643 
   54500       54.488    331.23453    13.615304    -448.3751    -434.7598    2140.8493   -6897.3859   -10601.203    23921.136    15.619462    13.526829    25.756893    5441.9623 
   55000       54.988    343.07014    14.101804   -448.84445   -434.74265    3021.0468   -6778.6172   -6255.1957    22096.953    15.619464    13.526831    25.756875    5441.9602 
   55500       55.488    326.31666    13.413157   -448.13888   -434.72573    2682.1934   -7919.5358   -7698.6073    23664.723    15.619466    13.526833    25.756858    5441.9582 
   56000       55.988    322.52942    13.257483   -447.96582   -434.70834    1154.3934   -7500.2661   -11788.085    22751.531    15.619469    13.526835     25.75684    5441.9562 
   56500       56.488    330.42475    13.582019   -448.27378   -434.69176     2145.687   -8607.0966   -7806.2533    22850.411    15.619471    13.526837    25.756823    5441.9542 
   57000       56.988    315.83234    12.982202   -447.65682   -434.67462    2159.5763   -7350.5915   -13340.701    27170.021    15.619474    13.526839    25.756805    5441.9522 
   57500       57.488    323.97363    13.316847   -447.97633   -434.65948    1942.7895   -6682.1382   -9627.1122    22137.619    15.619476    13.526841    25.756788    5441.9502 
   58000       57.988     320.6922    13.181965   -447.82455   -434.64259    1898.8345   -8454.7951   -10301.075    24452.373    15.619478    13.526844     25.75677    5441.9481 
   58500       58.488     340.1545    13.981958   -448.60936    -434.6274    408.57266   -11761.089   -10102.125    23088.933    15.619481    13.526846    25.756753    5441.9461 
   59000       58.988    316.93565    13.027553   -447.63738   -434.60982    3443.5276   -6061.5769   -10869.547    27261.707    15.619483    13.526848    25.756735    5441.9441 
   59500       59.488    322.57509    13.259361   -447.85392   -434.59456    2390.9683   -5952.5931   -8397.1397    21522.638    15.619486     13.52685    25.756718    5441.9421 
   60000       59.988    341.26894    14.027766   -448.60632   -434.57855    2060.4719   -4945.0921   -11827.068    22953.575    15.619488    13.526852      25.7567    5441.9401 
   60500       60.488    325.03913    13.360644   -447.92285   -434.56221     1572.505   -7156.8236   -9187.2848    21061.623     15.61949    13.526854    25.756683    5441.9381 
   61000       60.988    339.88596    13.970919   -448.51744   -434.54652    1707.8102   -5624.9629    -12540.37    23288.763    15.619493    13.526856    25.756665     5441.936 
   61500       61.488    340.07851    13.978834   -448.50886   -434.53003    1570.7803   -9044.8069   -11660.703    25417.851    15.619495    13.526858    25.756648     5441.934 
   62000       61.988    337.09223    13.856084   -448.37062   -434.51454    3337.4254   -7452.0926    -8706.804    26171.173    15.619498     13.52686     25.75663     5441.932 
   62500       62.488    309.40285     12.71792   -447.21729   -434.49937    2202.5574   -6790.2406   -8391.9343    21789.847      15.6195    13.526862    25.756613      5441.93 
   63000       62.988    335.09451    13.773968    -448.2568   -434.48283     2842.154   -9532.1267   -7129.6332    25188.222    15.619502    13.526865    25.756595     5441.928 
   63500       63.488    335.23239    13.779635   -448.24643   -434.46679    2608.2986   -10304.878   -8084.7821    26214.556    15.619505    13.526867    25.756578     5441.926 
   64000       63.988    325.64885    13.385707   -447.83658   -434.45088    2581.0867    -5923.049   -9208.5981    22874.907    15.619507    13.526869     25.75656    5441.9239 
   64500       64.488    334.79987    13.761857   -448.19725   -434.43539    2441.1926   -9363.2708   -7061.8264    23748.675     15.61951    13.526871    25.756543    5441.9219 
   65000       64.988    310.99224    12.783251   -447.20244   -434.41919    2007.1021   -11034.789   -7609.9795    24666.075    15.619512    13.526873    25.756525    5441.9199 
   65500       65.488    340.49349    13.995892    -448.4002   -434.40431    2554.0628   -8722.5262   -8954.2173    25338.932    15.619514    13.526875    25.756508    5441.9179 
   66000       65.988    341.90917    14.054083   -448.44258    -434.3885    2412.3414   -8275.6789   -9689.6801    25202.383    15.619517    13.526877     25.75649    5441.9159 
   66500       66.488    338.59557    13.917878   -448.29017   -434.37229    3109.4124   -5731.2769   -8440.3068    23499.821    15.619519    13.526879    25.756473    5441.9139 
   67000       66.988    321.91828    13.232363   -447.58805   -434.35569    4423.9312   -6989.3966   -8167.5179    28428.708    15.619522    13.526881    25.756455    5441.9119 
   67500       67.488    314.40693    12.923611   -447.26372   -434.34011    3331.7044    -9790.873     -5696.43    25482.416    15.619524    13.526883    25.756438    5441.9098 
   68000       67.988    322.33494     13.24949   -447.57509    -434.3256    3379.5675   -6809.9399   -10907.846    27856.489    15.619526    13.526886     25.75642    5441.9078 
   68500       68.488    338.58072    13.917268    -448.2274   -434.31013    3152.2857   -6557.6583   -10443.527    26458.042    15.619529    13.526888    25.756403    5441.9058 
   69000       68.988    323.83089     13.31098   -447.60473   -434.29375    3645.0976   -9619.7136   -6100.8748    26655.881    15.619531     13.52689    25.756385    5441.9038 
   69500       69.488    345.41915    14.198359   -448.47676    -434.2784    2229.1346   -7365.5975   -7689.7351    21742.736    15.619534    13.526892    25.756368    5441.9018 
   70000       69.988     346.5284    14.243955   -448.50639   -434.26243    1256.0074   -9501.2256   -9893.0371    23162.285    15.619536    13.526894     25.75635    5441.8998 
   70500       70.488    335.33194    13.783727   -448.02941   -434.24568     1575.887   -8002.8895   -9905.6069    22636.157    15.619538    13.526896    25.756333    5441.8977 
   71000       70.988    333.05581    13.690168    -447.9208   -434.23063    1974.1176    -8674.143   -8087.8901    22684.386    15.619541    13.526898    25.756315    5441.8957 
   71500       71.488    355.46905    14.611458   -448.82614   -434.21468    1227.4551   -11292.551   -8377.6006    23352.517    15.619543      13.5269    25.756298    5441.8937 
   72000       71.988    342.10515    14.062138   -448.26112   -434.19899    2782.1277   -9046.2002   -8711.9011    26104.484    15.619546    13.526902     25.75628    5441.8917 
   72500       72.488    317.70952    13.059363    -447.2421   -434.18274     1394.044   -8798.1204   -9999.6892    22979.941    15.619548    13.526904    25.756263    5441.8897 
   73000       72.988     331.1772    13.612948   -447.78047   -434.16752    2933.9482   -9888.0966   -9444.6784     28134.62     15.61955    13.526907    25.756245    5441.8877 
   73500       73.488    343.51441    14.120066   -448.27264   -434.15257    2247.3162   -7198.1729   -9969.3326    23909.454    15.619553    13.526909    25.756228    5441.8856 
   74000       73.988    355.28207    14.603772   -448.74038   -434.13661    2072.8007    -8141.522   -10777.458    25137.382    15.619555    13.526911     25.75621    5441.8836 
   74500       74.488    332.00246     13.64687    -447.7671   -434.12023    2383.3963   -5532.0653   -10579.181    23261.436    15.619558    13.526913    25.756193    5441.8816 
   75000       74.988    335.89493    13.806869    -447.9106   -434.10373    2300.7517   -8082.1682   -8971.2058    23955.629     15.61956    13.526915    25.756175    5441.8796 
   75500       75.488    332.17142    13.653815   -447.74184   -434.08802    2994.5764    -5906.275   -11080.763    25970.767    15.619562    13.526917    25.756158    5441.8776 
   76000       75.988    343.26165    14.109676   -448.18186   -434.07219    2403.7138   -6504.2884   -9645.2081    23360.638    15.619565    13.526919     25.75614    5441.8756 
   76500       76.488    336.79645    13.843926   -447.89952    -434.0556    3357.3411   -7026.2421   -8545.9312    25644.196    15.619567    13.526921    25.756123    5441.8735 
   77000       76.988    339.34613     13.94873   -447.98756   -434.03883    1342.5059   -7843.5293   -10369.799    22240.846     15.61957    13.526923    25.756105    5441.8715 
   77500       77.488    335.62168    13.795637   -447.81832   -434.02268    3289.0138   -7901.4832   -8257.5093    26026.034    15.619572    13.526925    25.756088    5441.8695 
   78000       77.988    361.68901    14.867128   -448.87338   -434.00626    2808.6772   -7353.4673   -7927.5564    23707.055    15.619574    13.526928     25.75607    5441.8675 
   78500       78.488    318.70613    13.100328   -447.08967   -433.98934     2547.334    -6872.653   -9679.3179    24193.973    15.619577     13.52693    25.756053    5441.8655 
   79000       78.988    345.51969    14.202492   -448.17512   -433.97263     2139.092   -7258.7802   -12590.138    26266.194    15.619579    13.526932    25.756035    5441.8635 
   79500       79.488    327.09021    13.444953   -447.40044   -433.95549     1387.807   -12535.321   -9601.2613    26300.003    15.619582    13.526934    25.756018    5441.8614 
   80000       79.988    338.12524    13.898545   -447.83837   -433.93982    1735.5457   -8507.5275   -11390.752    25104.917    15.619584    13.526936       25.756    5441.8594 
   80500       80.488    351.08685    14.431329   -448.35394   -433.92261    1288.2564   -7383.9324   -9829.6538    21078.355    15.619586    13.526938    25.755983    5441.8574 
   81000       80.988    312.62055    12.850182   -446.75545   -433.90527    3336.1639   -6256.1331   -6825.2289    23089.854    15.619589     13.52694    25.755965    5441.8554 
   81500       81.488    335.09756    13.774094   -447.66242   -433.88833    2423.7985   -7923.6737   -8184.2079    23379.277    15.619591    13.526942    25.755948    5441.8534 
   82000       81.988     338.0937    13.897249   -447.76932   -433.87207     3304.172   -6840.4249   -10549.959      27302.9    15.619594    13.526944     25.75593    5441.8514 
   82500       82.488    335.68181    13.798109   -447.65283   -433.85472    1506.0911   -8388.8311   -10229.979    23137.083    15.619596    13.526946    25.755913    5441.8493 
   83000       82.988    325.57795    13.382793   -447.21972   -433.83693    3474.8839   -6727.3907   -8293.0788    25445.121    15.619598    13.526949    25.755895    5441.8473 
   83500       83.488    342.84625    14.092601   -447.91275   -433.82015     1239.798   -9621.5616   -9600.6052    22941.561    15.619601    13.526951    25.755878    5441.8453 
   84000       83.988    332.78438    13.679011   -447.48171   -433.80269    3234.7374   -6860.4167    -8934.827    25499.456    15.619603    13.526953     25.75586    5441.8433 
   84500       84.488    359.83441    14.790895   -448.57708   -433.78619    2345.5456   -5361.4846   -12060.471    24458.592    15.619606    13.526955    25.755843    5441.8413 
   85000       84.988    356.04804    14.635257   -448.40344   -433.76818    2071.0816   -8735.8139   -10663.484    25612.542    15.619608    13.526957    25.755825    5441.8393 
   85500       85.488    346.85985    14.257579    -448.0081   -433.75052    3441.1492   -5030.2022   -9350.3767    24704.026     15.61961    13.526959    25.755808    5441.8372 
   86000       85.988    347.07938    14.266603   -447.99918   -433.73258    3229.3885   -9268.4112   -5108.7876    24065.364    15.619613    13.526961     25.75579    5441.8352 
   86500       86.488    350.90638     14.42391   -448.13828   -433.71437    2465.8904   -8654.9781   -9932.3015    25984.951    15.619615    13.526963    25.755773    5441.8332 
   87000       86.988    332.45659    13.665537   -447.36217   -433.69663    2125.9526   -7934.8579   -9992.1976    24304.913    15.619618    13.526965    25.755755    5441.8312 
   87500       87.488    340.39738    13.991941   -447.67006   -433.67811    2582.0493   -8226.4486   -9498.6447    25471.241     15.61962    13.526967    25.755738    5441.8292 
   88000       87.988    325.28577    13.370782   -447.03054   -433.65976    3266.8157   -7656.5105   -8711.2839    26168.241    15.619622     13.52697     25.75572    5441.8272 
   88500       88.488    346.07387    14.225272   -447.86667    -433.6414    1744.9626   -6605.5769    -11926.45    23766.915    15.619625    13.526972    25.755703    5441.8251 
   89000       88.988    333.70409    13.716815   -447.33943   -433.62262    3546.9062   -8189.0439   -12071.141    30900.904    15.619627    13.526974    25.755685    5441.8231 
   89500       89.488    341.77706    14.048652   -447.65354   -433.60488    3707.5818   -6451.7033   -7848.8399    25423.289     15.61963    13.526976    25.755668    5441.8211 
   90000       89.988    346.05179    14.224364   -447.81061   -433.58625    2693.5996   -5386.7818   -9037.0907    22504.671    15.619632    13.526978     25.75565    5441.8191 
   90500       90.488     368.0327    15.127883   -448.69596   -433.56808    2415.0913   -9366.9511   -10016.428    26628.653    15.619634     13.52698    25.755633    5441.8171 
   91000       90.988    329.91077    13.560892   -447.10918   -433.54829    2827.1403    -8056.621   -8412.5282     24950.57    15.619637    13.526982    25.755615    5441.8151 
   91500       91.488    340.83849    14.010073    -447.5395   -433.52943    2716.4473   -11765.795   -6936.7398    26851.877    15.619639    13.526984    25.755598     5441.813 
   92000       91.988    341.37455    14.032108   -447.54322   -433.51111    1866.6311   -10325.893   -9631.0423    25556.828    15.619642    13.526986     25.75558     5441.811 
   92500       92.488    339.67495    13.962246   -447.45496   -433.49271    3020.3261   -10813.441   -6164.9908     26039.41    15.619644    13.526988    25.755563     5441.809 
   93000       92.988    342.68642    14.086031   -447.55996   -433.47393     2853.527   -6784.2497   -8613.9017    23958.732    15.619646    13.526991    25.755545     5441.807 
   93500       93.488     330.1635     13.57128   -447.02567   -433.45439    3228.8714   -7008.9878   -8890.4021    25586.004    15.619649    13.526993    25.755528     5441.805 
   94000       93.988    352.74678     14.49956   -447.93532   -433.43576    2038.0871   -8712.8648   -8523.9427    23351.069    15.619651    13.526995     25.75551     5441.803 
   94500       94.488    360.21635    14.806595   -448.22332   -433.41673    2540.6078   -8643.4754   -10005.093    26270.391    15.619654    13.526997    25.755493    5441.8009 
   95000       94.988    351.02394    14.428743   -447.82626   -433.39752    2958.3235   -7413.1054    -12340.05    28628.126    15.619656    13.526999    25.755475    5441.7989 
   95500       95.488      349.309    14.358251    -447.7362   -433.37795    1788.6731   -7398.0928   -12108.566    24872.678    15.619658    13.527001    25.755458    5441.7969 
   96000       95.988    322.49055    13.255886   -446.61383   -433.35794    2991.7177   -6964.7484   -11107.237    27047.139    15.619661    13.527003     25.75544    5441.7949 
   96500       96.488    363.56092    14.944072    -448.2828   -433.33873    2156.1463   -8795.6983    -9974.804    25238.941    15.619663    13.527005    25.755423    5441.7929 
   97000       96.988    350.05422    14.388883   -447.70777   -433.31889    2791.5665    -6573.743   -11267.198    26215.641    15.619666    13.527007    25.755405    5441.7909 
   97500       97.488    336.31579    13.824168   -447.12275   -433.29858    1961.7191   -7317.9402   -8925.1865    22128.284    15.619668    13.527009    25.755388    5441.7888 
   98000       97.988     354.5607     14.57412   -447.85297   -433.27885    2953.1855   -6494.9638   -8184.2395     23538.76     15.61967    13.527012     25.75537    5441.7868 
   98500       98.488    364.95843    15.001516   -448.26116   -433.25964    2494.9447   -7382.5645   -9553.3396    24420.738    15.619673    13.527014    25.755353    5441.7848 
   99000       98.988    336.35968    13.825973   -447.06536   -433.23939    3702.1925   -8384.4904   -7533.3598    27024.428    15.619675    13.527016    25.755335    5441.7828 
   99500       99.488    316.88528    13.025482   -446.24477   -433.21929    2488.2472   -7907.3691   -11130.389      26502.5    15.619678    13.527018    25.755318    5441.7808 
  100000       99.988     349.2199    14.354588   -447.55437   -433.19978    3090.2951   -7515.6275   -8545.4711    25331.984     15.61968     13.52702      25.7553    5441.7788 
  100500      100.488    371.65496    15.276776    -448.4569   -433.18013    2049.6483   -7331.6704   -10947.237    24427.852    15.619682    13.527022    25.755283    5441.7767 
  101000      100.988    359.09962    14.760691   -447.91957   -433.15887    2496.0873   -6433.9246   -9871.0018    23793.188    15.619685    13.527024    25.755265    5441.7747 
  101500      101.488    353.08285    14.513374   -447.65205   -433.13868    4002.4946   -4957.9169    -9334.802    26300.203    15.619687    13.527026    25.755248    5441.7727 
  102000      101.988    368.97318    15.166541   -448.28452   -433.11798    2573.0557   -6127.0227   -8194.5513    22040.741     15.61969    13.527028     25.75523    5441.7707 
  102500      102.488    340.88801    14.012108   -447.10946   -433.09735    2976.2151   -8254.1079    -8544.303    25727.056    15.619692     13.52703    25.755213    5441.7687 
  103000      102.988    343.57659    14.122622   -447.19904   -433.07642    4335.0828   -5692.3749   -10077.289    28774.912    15.619694    13.527033    25.755195    5441.7667 
  103500      103.488    363.91502    14.958627   -448.01486   -433.05624    1564.4114   -7810.1792   -10179.198    22682.612    15.619697    13.527035    25.755178    5441.7646 
  104000      103.988     361.7703    14.870469   -447.90638   -433.03591    2317.6634    -9729.703   -7629.2986    24311.992    15.619699    13.527037     25.75516    5441.7626 
  104500      104.488    345.56679    14.204428   -447.21905   -433.01462    3041.5684   -7161.6619   -8259.6275    24545.995    15.619702    13.527039    25.755143    5441.7606 
  105000      104.988    343.23367    14.108526   -447.10216   -432.99364    3731.9942   -4993.2407   -8698.4733    24887.697    15.619704    13.527041    25.755125    5441.7586 
  105500      105.488    354.72561    14.580899   -447.55344   -432.97255      3373.87   -5541.9993   -9735.4258    25399.035    15.619706    13.527043    25.755108    5441.7566 
  106000      105.988    357.07616    14.677518   -447.62884   -432.95133    3437.5523   -7370.1183   -7600.0005    25282.776    15.619709    13.527045     25.75509    5441.7546 
  106500      106.488     346.2292    14.231656   -447.16168   -432.93002    3532.9539   -5926.2641   -7962.7938     24487.92    15.619711    13.527047    25.755073    5441.7525 
  107000      106.988     357.7696    14.706021   -447.61489   -432.90887    2899.2569   -7410.9709    -7892.978     24001.72    15.619714    13.527049    25.755055    5441.7505 
  107500      107.488    363.54204    14.943296   -447.83073   -432.88743    2620.9941   -9370.2423   -6887.8792    24121.104    15.619716    13.527051    25.755038    5441.7485 
  108000      107.988    341.88947    14.053273    -446.9197   -432.86643    2878.0518   -6128.7385   -11623.679    26386.573    15.619718    13.527054     25.75502    5441.7465 
  108500      108.488    359.80234    14.789577   -447.63415   -432.84457    3456.9785   -4725.2919    -9681.251    24777.478    15.619721    13.527056    25.755003    5441.7445 
  109000      108.988    328.53557    13.504365   -446.32663   -432.82226    4009.6389    -7074.891   -6572.0165    25675.824    15.619723    13.527058    25.754985    5441.7425 
  109500      109.488    339.92738    13.972622   -446.77387   -432.80125    4392.0597   -4948.2812   -10162.165    28286.625    15.619726     13.52706    25.754968    5441.7404 
  110000      109.988    372.80011    15.323846   -448.10422   -432.78038    3292.4171    -7305.652   -10819.444    28002.348    15.619728    13.527062     25.75495    5441.7384 
  110500      110.488    332.12605     13.65195   -446.40977   -432.75782    4499.2608   -7685.7959   -9194.5729    30378.151     15.61973    13.527064    25.754933    5441.7364 
  111000      110.988    369.18188     15.17512   -447.91165   -432.73653    3492.5722   -7097.4809   -7790.2401    25365.438    15.619733    13.527066    25.754915    5441.7344 
  111500      111.488    361.94116    14.877492   -447.59178   -432.71429    2855.9842   -7439.7768   -9797.0229    25804.752    15.619735    13.527068    25.754898    5441.7324 
  112000      111.988    368.50481    15.147289   -447.83973   -432.69244    1810.2426   -9386.4478   -7852.0262    22669.202    15.619738     13.52707     25.75488    5441.7304 
  112500      112.488    353.75677    14.541075   -447.21184   -432.67076    3079.6428   -5962.7646   -6908.0538    22109.747     15.61974    13.527072    25.754863    5441.7283 
  113000      112.988    364.54566    14.984549   -447.63343   -432.64888     2957.406   -5440.4457   -9379.7874    23692.451    15.619742    13.527075    25.754845    5441.7263 
  113500      113.488     349.9375    14.384085   -447.01064   -432.62656    3467.7925   -7462.6999    -10690.13    28556.208    15.619745    13.527077    25.754828    5441.7243 
  114000      113.988    353.60537    14.534852   -447.13936   -432.60451    3365.7653   -5983.8393    -10771.84    26852.976    15.619747    13.527079     25.75481    5441.7223 
  114500      114.488    343.80709    14.132096   -446.71389    -432.5818    3816.1671   -5251.3271   -8607.5713      25307.4     15.61975    13.527081    25.754793    5441.7203 
  115000      114.988    361.14336    14.844699   -447.40494   -432.56025    2776.6319   -7941.8389   -7596.8406    23868.575    15.619752    13.527083    25.754775    5441.7183 
  115500      115.488    351.46083    14.446701   -446.98432   -432.53762    2938.3861   -7104.9506    -9055.839    24975.948    15.619754    13.527085    25.754758    5441.7162 
  116000      115.988    363.52841    14.942736   -447.45905   -432.51632    2674.0714   -7204.8555   -9045.5477    24272.617    15.619757    13.527087     25.75474    5441.7142 
  116500      116.488     353.5709    14.533435   -447.02769   -432.49426     3116.976   -7838.9185    -6053.595    23243.441    15.619759    13.527089    25.754723    5441.7122 
  117000      116.988    368.52792    15.148239   -447.62031   -432.47207    4434.9855   -5737.3463   -9036.6143    28078.917    15.619762    13.527091    25.754705    5441.7102 
  117500      117.488    353.83274    14.544198   -446.99319   -432.44899    3714.2702   -5403.0626   -10903.512    27449.386    15.619764    13.527093    25.754688    5441.7082 
  118000      117.988    336.69186    13.839627   -446.26653    -432.4269    3521.6342   -7927.5481   -9182.6998     27675.15    15.619766    13.527096     25.75467    5441.7062 
  118500      118.488    344.82682    14.174012   -446.57827   -432.40426    3430.2526   -7675.8355   -8490.0957    26456.689    15.619769    13.527098    25.754653    5441.7041 
  119000      118.988    376.45389    15.474034   -447.85554   -432.38151    3189.4996   -5288.2568   -5990.3004    20847.056    15.619771      13.5271    25.754635    5441.7021 
  119500      119.488    356.66261    14.660519   -447.01932    -432.3588    3682.1463   -6719.8305   -8319.4322    26085.702    15.619774    13.527102    25.754618    5441.7001 
  120000      119.988    357.97165    14.714327   -447.05035   -432.33602    2561.3329   -10771.435   -7177.0156    25632.449    15.619776    13.527104      25.7546    5441.6981 
  120500      120.488    358.77767    14.747458   -447.05994   -432.31249    2537.1955   -9043.0207   -8979.1877    25633.795    15.619778    13.527106    25.754583    5441.6961 
  121000      120.988    350.24398    14.396683   -446.68681   -432.29013    2848.4423   -8629.2688   -10639.785    27814.381    15.619781    13.527108    25.754565    5441.6941 
  121500      121.488    371.41649    15.266973   -447.53471   -432.26774    3977.7107   -6436.8131   -8701.2026    27071.148    15.619783     13.52711    25.754548     5441.692 
  122000      121.988    373.10901    15.336544   -447.58118   -432.24464    4115.7958   -7164.2283   -6099.1192    25610.735    15.619786    13.527112     25.75453      5441.69 
  122500      122.488    338.16343    13.900115   -446.12077   -432.22066    3238.7214   -9825.5421   -11334.874     30876.58    15.619788    13.527114    25.754513     5441.688 
  123000      122.988    351.65991    14.454884   -446.65281   -432.19793    3449.5276   -10478.573   -6031.6833    26858.839     15.61979    13.527117    25.754495     5441.686 
  123500      123.488    368.00971    15.126938   -447.30257   -432.17563     3719.697   -7803.3623    -7290.653    26253.106    15.619793    13.527119    25.754478     5441.684 
  124000      123.988    330.32032    13.577726   -445.72983    -432.1521     4540.092   -6665.8336   -8857.0159    29143.125    15.619795    13.527121     25.75446     5441.682 
  124500      124.488    357.44171    14.692544   -446.82158   -432.12904    2916.0564   -8406.6696   -9424.5826    26579.421    15.619798    13.527123    25.754443    5441.6799 
  125000      124.988    370.79524    15.241437   -447.34813   -432.10669    2989.3197   -5831.3033   -8106.8222    22906.084      15.6198    13.527125    25.754425    5441.6779 
  125500      125.488    359.07729    14.759774   -446.84345   -432.08368    3372.5676   -5285.2748   -10351.934    25754.912    15.619802    13.527127    25.754408    5441.6759 
  126000      125.988    354.70106     14.57989   -446.64034   -432.06045    3635.1916   -4638.8151   -7646.5311    23190.921    15.619805    13.527129     25.75439    5441.6739 
  126500      126.488    339.22191    13.943624   -445.98117   -432.03755    4427.4483   -4231.8937   -7132.1126    24646.351    15.619807    13.527131    25.754373    5441.6719 
  127000      126.988    379.08404    15.582146   -447.59691   -432.01476    2027.9523   -6888.9655   -12637.498     25610.32     15.61981    13.527133    25.754355    5441.6699 
  127500      127.488    369.37563    15.183084   -447.17421   -431.99113     2836.258   -7731.7665   -7365.0491     23605.59    15.619812    13.527135    25.754338    5441.6678 
  128000      127.988    374.78592    15.405473   -447.37372   -431.96825     3651.482   -8185.2952   -8382.7499    27522.491    15.619814    13.527138     25.75432    5441.6658 
  128500      128.488    377.38632    15.512361   -447.45733   -431.94496    3654.6211    -6427.546   -9217.4181    26608.828    15.619817     13.52714    25.754303    5441.6638 
  129000      128.988    355.92677    14.630272   -446.55224   -431.92197    1529.9031    -8119.186   -11263.276    23972.172    15.619819    13.527142    25.754285    5441.6618 
  129500      129.488    370.90069    15.245771   -447.14454   -431.89877    2542.3386   -4441.7203   -10495.089    22563.825    15.619822    13.527144    25.754268    5441.6598 
  130000      129.988    369.83801     15.20209    -447.0769   -431.87481    3392.7826   -3626.6083   -9272.9012    23077.857    15.619824    13.527146     25.75425    5441.6578 
  130500      130.488    365.54216     15.02551   -446.87646   -431.85095    3846.4584   -5829.0435   -7467.2452    24835.664    15.619826    13.527148    25.754233    5441.6557 
  131000      130.988    371.89302    15.286561   -447.11422   -431.82766    4671.0652    -7415.206   -6293.0307    27721.432    15.619829     13.52715    25.754215    5441.6537 
  131500      131.488    357.61608    14.699711   -446.50318   -431.80347    3446.2301   -6706.7302   -5911.9292     22957.35    15.619831    13.527152    25.754198    5441.6517 
  132000      131.988    368.03632    15.128032   -446.90939   -431.78136    4369.9916   -6866.9607   -5573.5116    25550.447    15.619834    13.527154     25.75418    5441.6497 
  132500      132.488    347.93528    14.301784   -446.05927   -431.75748    3571.8899   -5145.8162   -6632.8796    22494.365    15.619836    13.527156    25.754163    5441.6477 
  133000      132.988    359.36052    14.771416   -446.50557   -431.73416    3696.7624   -8304.0326   -7444.9377    26839.258    15.619838    13.527159    25.754145    5441.6457 
  133500      133.488    363.06623    14.923738   -446.63381   -431.71008    3490.5969   -8229.8504   -5456.8394    24158.481    15.619841    13.527161    25.754128    5441.6436 
  134000      133.988    364.13475    14.967659   -446.65446    -431.6868    4955.3063   -5749.1176   -8877.4605    29492.497    15.619843    13.527163     25.75411    5441.6416 
  134500      134.488    359.04025    14.758251   -446.42127   -431.66302    3810.3684   -5012.6225   -9793.0096    26236.737    15.619846    13.527165    25.754093    5441.6396 
  135000      134.988    362.89302    14.916618   -446.55639   -431.63977    4459.9643   -4793.3756   -5391.3999    23564.669    15.619848    13.527167    25.754075    5441.6376 
  135500      135.488    369.61409    15.192886   -446.80849   -431.61561    3558.5776   -4793.3992   -9655.1849    25124.317     15.61985    13.527169    25.754058    5441.6356 
  136000      135.988    370.55439    15.231537    -446.8239   -431.59236    3286.2218    -6364.685   -10048.954    26272.304    15.619853    13.527171     25.75404    5441.6336 
  136500      136.488    367.94019    15.124081   -446.69178    -431.5677     2154.093   -8954.0277   -7593.1265    23009.433    15.619855    13.527173    25.754023    5441.6315 
  137000      136.988    369.67115    15.195231   -446.73944   -431.54421    3596.9275   -6388.6689   -8813.0034    25992.455    15.619858    13.527175    25.754005    5441.6295 
  137500      137.488     366.6804    15.072298   -446.59173   -431.51943    4392.0089    -7091.313   -6442.0853    26709.425     15.61986    13.527177    25.753988    5441.6275 
  138000      137.988    347.17818    14.270664     -445.767   -431.49633    3585.9002   -5608.5843   -10451.003    26817.287    15.619862     13.52718     25.75397    5441.6255 
  138500      138.488    368.56304    15.149683   -446.62311   -431.47342    3801.4016   -7908.1362   -7054.5906    26366.932    15.619865    13.527182    25.753953    5441.6235 
  139000      138.988    373.04308    15.333834   -446.78297   -431.44914    3289.4678   -8330.1175   -6689.5718    24888.093    15.619867    13.527184    25.753935    5441.6215 
  139500      139.488    351.92047    14.465594   -445.89029   -431.42469    4348.1017    -8457.203   -5713.2942    27214.802     15.61987    13.527186    25.753918    5441.6194 
  140000      139.988     375.6007    15.438964    -446.8404   -431.40144    5135.8025   -5429.9804   -5659.0141    26496.402    15.619872    13.527188      25.7539    5441.6174 
  140500      140.488    387.45844    15.926373   -447.30437     -431.378    3098.3418   -8039.3346    -8392.633    25726.993    15.619874     13.52719    25.753883    5441.6154 
  141000      140.988    370.60177    15.233484   -446.58588    -431.3524    3239.5304   -5371.8704   -8071.6314    23162.093    15.619877    13.527192    25.753865    5441.6134 
  141500      141.488    385.34343    15.839436   -447.16902   -431.32958    3219.8224   -8012.5992    -7514.902    25186.968    15.619879    13.527194    25.753848    5441.6114 
  142000      141.988    378.83098    15.571744   -446.87701   -431.30527    3316.6902   -8669.0213   -8334.1937    26953.286    15.619882    13.527196     25.75383    5441.6094 
  142500      142.488    381.18818    15.668636   -446.94994    -431.2813    3683.9386   -7038.3714   -5160.9064    23251.094    15.619884    13.527198    25.753813    5441.6073 
  143000      142.988    361.04903    14.840821   -446.09763    -431.2568    4185.8559   -7621.1897   -5839.2856    26018.043    15.619886    13.527201    25.753795    5441.6053 
  143500      143.488    347.01175    14.263823   -445.49679   -431.23296    4154.3892   -5935.8361    -8683.852    27082.856    15.619889    13.527203    25.753778    5441.6033 
  144000      143.988    374.31533    15.386129   -446.59566   -431.20953    3228.6303   -5748.6011   -11256.414    26690.907    15.619891    13.527205     25.75376    5441.6013 
  144500      144.488    361.37552    14.854242   -446.04042   -431.18617     3313.179   -5118.6165   -4738.8285    19796.982    15.619894    13.527207    25.753743    5441.5993 
  145000      144.988    361.61028    14.863891   -446.02678   -431.16289    4155.0973   -8134.6652   -6533.0809    27133.038    15.619896    13.527209    25.753725    5441.5973 
  145500      145.488    380.22816    15.629174    -446.7683   -431.13913    3770.9321   -5691.9646   -5559.3255    22564.087    15.619898    13.527211    25.753708    5441.5952 
  146000      145.988    391.17133     16.07899   -447.19467   -431.11568    3508.0954   -5229.3533   -6708.0842    22461.724    15.619901    13.527213     25.75369    5441.5932 
  146500      146.488    377.81618    15.530031   -446.62096   -431.09093     4304.842   -7491.0442   -7980.7255    28386.296    15.619903    13.527215    25.753673    5441.5912 
  147000      146.988    380.76641    15.651299   -446.71732   -431.06602    2222.9035   -9371.0714   -6869.3232    22909.105    15.619906    13.527217    25.753655    5441.5892 
  147500      147.488    370.95693    15.248083   -446.28981   -431.04173    4162.2811   -5314.7228   -8037.2335      25838.8    15.619908    13.527219    25.753638    5441.5872 
  148000      147.988    384.24575    15.794316   -446.81182   -431.01751     3822.817   -6194.2339   -8867.7314    26530.416     15.61991    13.527222     25.75362    5441.5852 
  148500      148.488    386.30157     15.87882   -446.87244   -430.99362    4085.3091   -6990.0663   -6155.2245    25401.218    15.619913    13.527224    25.753603    5441.5831 
  149000      148.988    399.95854    16.440186   -447.40936   -430.96918    3755.6279   -8055.6288   -4691.5832    24014.096    15.619915    13.527226    25.753585    5441.5811 
  149500      149.488    396.09046     16.28119    -447.2266   -430.94541    2782.3357    -8700.551   -7704.8314     24752.39    15.619918    13.527228    25.753568    5441.5791 
  150000      149.988    369.28456    15.179341   -446.10003   -430.92069    2861.3305   -9506.0355   -5301.6415    23391.668     15.61992     13.52723     25.75355    5441.5771 
  150500      150.488     380.0912    15.623545   -446.52046   -430.89691    4282.8815   -4175.9577   -6729.0881     23753.69    15.619922    13.527232    25.753533    5441.5751 
  151000      150.988    389.37314    16.005076    -446.8781   -430.87303    3241.4325   -8287.2223   -7238.4858    25250.006    15.619925    13.527234    25.753515    5441.5731 
  151500      151.488    363.84407    14.955711   -445.80329   -430.84758    4027.8073   -5240.7869   -6845.9437    24170.153    15.619927    13.527236    25.753498     5441.571 
  152000      151.988     374.8067    15.406327    -446.2301   -430.82378    4349.6706    -6216.842   -7831.5275    27097.381     15.61993    13.527238     25.75348     5441.569 
  152500      152.488    374.26041    15.383871   -446.18288     -430.799    3346.4326   -3792.7866   -11096.029    24928.113    15.619932     13.52724    25.753463     5441.567 
  153000      152.988    390.02854    16.032016   -446.80665   -430.77464    3296.4142   -7844.9956    -6917.401    24651.639    15.619934    13.527243    25.753445     5441.565 
  153500      153.488    373.94454    15.370888   -446.12081   -430.74993    2369.6839   -7480.6746   -9121.7954    23711.522    15.619937    13.527245    25.753428     5441.563 
  154000      153.988    384.50974    15.805168   -446.53052   -430.72535    2603.9694   -5963.4253   -9054.8067     22830.14    15.619939    13.527247     25.75341     5441.561 
  154500      154.488    385.53429    15.847281   -446.54921   -430.70193    2262.7587   -7413.4601   -8660.2362    22861.972    15.619942    13.527249    25.753393    5441.5589 
  155000      154.988    359.60287    14.781378   -445.45815   -430.67677    5092.6294    -4015.785   -6156.4322    25450.105    15.619944    13.527251    25.753375    5441.5569 
  155500      155.488    378.58751    15.561736   -446.21419   -430.65245    3407.5063   -7379.1901   -4563.3936    22165.103    15.619946    13.527253    25.753358    5441.5549 
  156000      155.988    379.37917    15.594277   -446.22128   -430.62701    3682.3885   -7393.3157   -6341.1355    24781.617    15.619949    13.527255     25.75334    5441.5529 
  156500      156.488    360.11367    14.802374   -445.40347    -430.6011    1954.1715   -11152.774   -6385.2393    23400.528    15.619951    13.527257    25.753323    5441.5509 
  157000      156.988    369.09072    15.171373   -445.74788   -430.57651    3180.0952   -8540.6391   -7934.4783    26015.403    15.619954    13.527259    25.753305    5441.5489 
  157500      157.488    373.96583    15.371763    -445.9243   -430.55254    4650.4418   -5257.8844   -5373.2287    24582.439    15.619956    13.527261    25.753288    5441.5468 
  158000      157.988    355.73694    14.622469   -445.14997    -430.5275    3734.9592   -6184.0583   -5927.9842     23316.92    15.619958    13.527264     25.75327    5441.5448 
  158500      158.488    370.55755    15.231666   -445.73463   -430.50296    3388.8608   -11751.024   -4083.2367    26000.843    15.619961    13.527266    25.753253    5441.5428 
  159000      158.988    346.49003    14.242378   -444.72064   -430.47826    4876.0613   -6439.6763   -6553.0395      27620.9    15.619963    13.527268    25.753235    5441.5408 
  159500      159.488    384.95225    15.823357   -446.27796    -430.4546    4261.4566   -5965.3765   -7460.8517    26210.598    15.619966     13.52727    25.753218    5441.5388 
  160000      159.988      359.138    14.762269    -445.1907   -430.42843    4819.1742    -3988.757   -8828.9825    27275.262    15.619968    13.527272      25.7532    5441.5368 
  160500      160.488     382.3208    15.715192   -446.11878   -430.40359    3853.3897   -5870.1803   -7464.8219    24895.171     15.61997    13.527274    25.753183    5441.5347 
  161000      160.988    377.13465    15.502016   -445.87939   -430.37738    4239.0196   -7293.0457    -5530.782    25540.886    15.619973    13.527276    25.753165    5441.5327 
  161500      161.488    389.03048    15.990992    -446.3439    -430.3529    4628.2698   -4530.1453   -7062.1707    25477.125    15.619975    13.527278    25.753148    5441.5307 
  162000      161.988    401.96647    16.522722   -446.85115   -430.32843    3496.0892   -5013.9396   -9807.1594    25309.367    15.619978     13.52728     25.75313    5441.5287 
  162500      162.488    371.33493    15.263621   -445.56586   -430.30224    4138.4472    -7322.431    -7952.289    27690.062     15.61998    13.527282    25.753113    5441.5267 
  163000      162.988     377.5406    15.518703   -445.79719   -430.27848    4576.8438   -6038.7342   -7917.1674    27686.433    15.619982    13.527285    25.753095    5441.5247 
  163500      163.488    379.60601    15.603601   -445.85528   -430.25168    4236.9485   -6498.7712   -6954.3839    26164.001    15.619985    13.527287    25.753078    5441.5226 
  164000      163.988    381.08813    15.664523   -445.89188   -430.22736    4660.7027   -6280.4592   -6566.3505    26828.918    15.619987    13.527289     25.75306    5441.5206 
  164500      164.488    403.67987    16.593151   -446.79613   -430.20298    4243.6365   -4674.0793   -7863.2038    25268.193     15.61999    13.527291    25.753043    5441.5186 
  165000      164.988    385.70309     15.85422   -446.03192    -430.1777    3767.3497   -8220.5718   -5806.7777    25329.398    15.619992    13.527293    25.753025    5441.5166 
  165500      165.488    367.11123    15.090006   -445.24238   -430.15237    3147.0186   -6410.1812   -5959.1704    21810.407    15.619994    13.527295    25.753008    5441.5146 
  166000      165.988    405.98014    16.687703   -446.81548   -430.12778    3048.8063   -7394.8642   -8014.4637    24555.747    15.619997    13.527297     25.75299    5441.5126 
  166500      166.488    391.80707    16.105123   -446.20781   -430.10269    4053.9758   -4925.1191   -9004.6821    26091.729    15.619999    13.527299    25.752973    5441.5105 
  167000      166.988    384.42013    15.801484   -445.87851   -430.07703    3944.7607   -7581.2249   -5669.8334    25085.341    15.620002    13.527301    25.752955    5441.5085 
  167500      167.488    394.71838    16.224791   -446.27739    -430.0526    2572.4717   -7264.3047   -5073.6169    20055.337    15.620004    13.527303    25.752938    5441.5065 
  168000      167.988    364.03765    14.963668   -444.99095   -430.02728    3773.8622   -6146.9495   -4319.9807    21788.517    15.620006    13.527306     25.75292    5441.5045 
  168500      168.488    382.19526    15.710031   -445.71188   -430.00185    3447.8101   -9561.4287   -7136.4339    27041.293    15.620009    13.527308    25.752903    5441.5025 
  169000      168.988    387.32352    15.920827   -445.89778   -429.97695    2695.0772   -6025.4417   -5377.8107    19488.484    15.620011     13.52731    25.752885    5441.5005 
  169500      169.488    376.35663    15.470036   -445.42166   -429.95162    2156.1285   -9570.1075   -6132.7802    22171.273    15.620014    13.527312    25.752868    5441.4984 
  170000      169.988    402.03713    16.525626   -446.45299   -429.92736    3058.7422   -7364.9387   -7501.3041    24042.469    15.620016    13.527314     25.75285    5441.4964 
  170500      170.488    401.02555    16.484045   -446.38621   -429.90216    4768.3765   -4920.1492   -4281.9999    23507.279    15.620018    13.527316    25.752833    5441.4944 
  171000      170.988    391.01212    16.072446   -445.94817   -429.87572    4161.5968   -5272.1541   -8713.6944    26470.639    15.620021    13.527318    25.752815    5441.4924 
  171500      171.488    391.06678    16.074693   -445.92586   -429.85117    4045.7652   -7830.8745   -4991.3649    24959.535    15.620023     13.52732    25.752798    5441.4904 
  172000      171.988    385.87307    15.861207   -445.68663   -429.82543    4698.7132   -7101.1933   -4852.5671      26049.9    15.620026    13.527322     25.75278    5441.4884 
  172500      172.488    400.32318    16.455175   -446.25539   -429.80022    5083.9811   -6526.5048   -5619.8433    27398.291    15.620028    13.527324    25.752763    5441.4863 
  173000      172.988    391.23686    16.081684   -445.85541   -429.77373     4238.962   -6214.4139   -3306.6292    22237.929     15.62003    13.527327    25.752745    5441.4843 
  173500      173.488    396.54968    16.300066   -446.04804   -429.74797    4436.5414   -8178.3604    -6092.871    27580.856    15.620033    13.527329    25.752728    5441.4823 
  174000      173.988    417.80056    17.173577   -446.89623   -429.72265    2202.2936   -6984.8576   -7688.0696    21279.808    15.620035    13.527331     25.75271    5441.4803 
  174500      174.488    386.65273    15.893254   -445.59078   -429.69753    4145.6882   -3415.3378    -5678.733    21531.135    15.620038    13.527333    25.752693    5441.4783 
  175000      174.988    385.10199    15.829512   -445.50124   -429.67173    5103.3187   -7087.5507   -5429.3986    27826.906     15.62004    13.527335    25.752675    5441.4762 
  175500      175.488    376.87021    15.491147   -445.13742   -429.64627    3516.9221   -3290.5599   -11752.354     25593.68    15.620042    13.527337    25.752658    5441.4742 
  176000      175.988    390.09398    16.034706   -445.65561    -429.6209    3786.5217   -8471.6343   -6483.0389    26314.238    15.620045    13.527339     25.75264    5441.4722 
  176500      176.488    386.54799    15.888949   -445.48422   -429.59527     3074.843   -5135.9175   -9598.9778    23959.424    15.620047    13.527341    25.752623    5441.4702 
  177000      176.988    382.23416    15.711631   -445.28022   -429.56859    3944.9941   -5590.2723   -9095.7125    26520.967     15.62005    13.527343    25.752605    5441.4682 
  177500      177.488    379.38518    15.594524   -445.13849   -429.54397    4089.9374    -5022.803   -6233.0731    23525.688    15.620052    13.527345    25.752588    5441.4662 
  178000      177.988    375.88007    15.450447   -444.96771   -429.51727    2392.5873   -9870.8237   -8987.2333    26035.819    15.620054    13.527348     25.75257    5441.4641 
  178500      178.488    404.67945    16.634238   -446.12583   -429.49159    3228.6809   -6638.2703   -11410.945    27735.258    15.620057     13.52735    25.752553    5441.4621 
  179000      178.988     396.7971    16.310236    -445.7756   -429.46537    3462.7137   -7705.9899   -9802.6451    27896.776    15.620059    13.527352    25.752535    5441.4601 
  179500      179.488    401.12471    16.488121   -445.92778   -429.43966    4048.8819   -8598.4432   -5647.2357    26392.324    15.620062    13.527354    25.752518    5441.4581 
  180000      179.988    421.12234    17.310118   -446.72418   -429.41406    2913.9049    -6710.693   -8238.7101    23691.118    15.620064    13.527356      25.7525    5441.4561 
  180500      180.488    406.11273    16.693153   -446.08039   -429.38723    3182.7632   -8406.8376   -10666.773      28621.9    15.620066    13.527358    25.752483    5441.4541 
  181000      180.988    387.75693    15.938642   -445.29863   -429.35999     4461.879   -5752.5261   -5908.9623    25047.125    15.620069     13.52736    25.752465     5441.452 
  181500      181.488     388.2346    15.958277   -445.29269   -429.33442     4106.047   -8728.6906    -6457.128     27503.96    15.620071    13.527362    25.752448      5441.45 
  182000      181.988    387.44491    15.925817   -445.23418   -429.30836    3994.9057   -6331.6152   -11168.284    29484.616    15.620074    13.527364     25.75243     5441.448 
  182500      182.488    383.10714    15.747514   -445.02963   -429.28212    4617.9555   -6072.9687   -6301.9691    26228.804    15.620076    13.527366    25.752413     5441.446 
  183000      182.988     389.5862    16.013834   -445.27005   -429.25622     3819.383   -6254.5887   -7150.8655    24863.603    15.620078    13.527369    25.752395     5441.444 
  183500      183.488    393.46929    16.173447   -445.40483   -429.23139    4156.0712   -2967.1937   -9474.5027     24909.91    15.620081    13.527371    25.752378     5441.442 
  184000      183.988    406.27882     16.69998   -445.90456   -429.20458    3346.3736   -7233.8415   -8315.7301    25588.692    15.620083    13.527373     25.75236    5441.4399 
  184500      184.488    388.23441    15.958269   -445.13663   -429.17836    3494.0124   -6195.5466   -8935.8204    25613.404    15.620086    13.527375    25.752343    5441.4379 
  185000      184.988      383.828    15.777145   -444.92923   -429.15209    3426.5483   -5981.8433   -6743.6771    23005.165    15.620088    13.527377    25.752325    5441.4359 
  185500      185.488    396.66065    16.304627   -445.43072    -429.1261    4444.8935   -7729.0142   -6347.8102    27411.505     15.62009    13.527379    25.752308    5441.4339 
  186000      185.988    410.42268    16.870312   -445.97042   -429.10011    3064.3035   -7452.7398   -8163.3859    24809.036    15.620093    13.527381     25.75229    5441.4319 
  186500      186.488    386.88369    15.902748   -444.97607   -429.07332    6140.3042   -5167.0228   -4475.3227    28063.258    15.620095    13.527383    25.752273    5441.4299 
  187000      186.988    386.69742    15.895092   -444.94153   -429.04643    4811.7814   -5304.2484   -6276.8884    26016.481    15.620098    13.527385    25.752255    5441.4278 
  187500      187.488    390.62087    16.056364   -445.07917   -429.02281    5912.3583   -7765.7141   -4943.8019    30446.591      15.6201    13.527387    25.752238    5441.4258 
  188000      187.988    418.78399    17.214001   -446.21118   -428.99718    4964.1317   -6738.2893   -6366.7195    27997.404    15.620102     13.52739     25.75222    5441.4238 
  188500      188.488    403.58083    16.589079   -445.55918    -428.9701    4538.8992   -7555.1635   -3829.1763    25001.037    15.620105    13.527392    25.752203    5441.4218 
  189000      188.988    401.15882    16.489524   -445.43248   -428.94296    6023.0433    -6973.461   -1863.1375    26905.729    15.620107    13.527394    25.752185    5441.4198 
  189500      189.488    389.89852    16.026672   -444.94334   -428.91666    5080.3189   -5689.5213   -4411.5468    25342.025     15.62011    13.527396    25.752168    5441.4178 
  190000      189.988    388.48835    15.968707   -444.85861   -428.88991    3605.9214   -8402.8746   -7844.8539    27065.493    15.620112    13.527398     25.75215    5441.4157 
  190500      190.488    393.28348     16.16581   -445.02993   -428.86412    4019.8964   -7094.9407   -4017.7959    23172.426    15.620114      13.5274    25.752133    5441.4137 
  191000      190.988    391.16171    16.078595   -444.91733   -428.83873    5140.8993   -6511.7568   -4581.5762    26516.031    15.620117    13.527402    25.752115    5441.4117 
  191500      191.488    395.44534    16.254672   -445.06711   -428.81244    4732.8018   -5432.5236   -5893.4128    25524.342    15.620119    13.527404    25.752098    5441.4097 
  192000      191.988     401.2041    16.491385   -445.27753   -428.78615    5771.8677   -6795.2135   -4081.2264    28192.043    15.620122    13.527406     25.75208    5441.4077 
  192500      192.488    408.09729    16.774727   -445.53411   -428.75938    3900.1323   -7174.6941    -7131.604    26006.695    15.620124    13.527408    25.752063    5441.4057 
  193000      192.988    399.38589    16.416648   -445.14922   -428.73257     4348.472   -4549.2067   -5962.2663    23556.889    15.620126    13.527411    25.752045    5441.4036 
  193500      193.488    376.29221    15.467388   -444.17289   -428.70551    4201.5895   -5611.9517   -6870.1956    25086.916    15.620129    13.527413    25.752028    5441.4016 
  194000      193.988    411.65453    16.920947   -445.60214   -428.68119    5045.3587   -5109.8661   -7618.1541    27864.096    15.620131    13.527415     25.75201    5441.3996 
  194500      194.488    386.69798    15.895115   -444.54848   -428.65336    5235.8765    -5504.889   -7620.4725    28832.991    15.620134    13.527417    25.751993    5441.3976 
  195000      194.988    408.33491    16.784495   -445.41107   -428.62658    4444.2733   -4712.8532   -7626.1414    25671.815    15.620136    13.527419    25.751975    5441.3956 
  195500      195.488    415.20089    17.066719    -445.6672   -428.60048    5074.5947   -4602.7435   -6347.0028     26173.53    15.620138    13.527421    25.751958    5441.3936 
  196000      195.988    411.71303    16.923351   -445.49625    -428.5729    5681.7804   -3391.0274   -9635.3026    30071.671    15.620141    13.527423     25.75194    5441.3915 
  196500      196.488    407.68814    16.757909   -445.30379   -428.54588    5010.7855   -4698.8841   -7386.1449    27117.385    15.620143    13.527425    25.751923    5441.3895 
  197000      196.988    383.36403    15.758074   -444.27732   -428.51925    6334.2833   -3940.7576   -5532.7278    28476.335    15.620146    13.527427    25.751905    5441.3875 
  197500      197.488    387.30012    15.919865   -444.41255   -428.49269    5857.2802   -8538.4263   -3122.3083    29232.575    15.620148    13.527429    25.751888    5441.3855 
  198000      197.988    395.44644    16.254717   -444.71967   -428.46495    5452.8128   -5098.4423    -4358.678    25815.559     15.62015    13.527432     25.75187    5441.3835 
  198500      198.488    413.69545    17.004838   -445.44521   -428.44037    5031.0284   -4250.9764   -9281.1453    28625.207    15.620153    13.527434    25.751853    5441.3815 
  199000      198.988    396.53895    16.299625   -444.71147   -428.41184    5868.3362   -5658.3524   -6446.4249    29709.786    15.620155    13.527436    25.751835    5441.3794 
  199500      199.488     399.0222    16.401698   -444.78637   -428.38467    4857.9042   -1151.7879   -7382.5601    23108.061    15.620158    13.527438    25.751818    5441.3774 
  200000      199.988    413.93247    17.014581   -445.37247   -428.35789    6335.3487   -7362.8516   -6181.4454    32550.343     15.62016     13.52744      25.7518    5441.3754 
  200500      200.488    420.03029     17.26523   -445.59584   -428.33061    6276.7744   -5075.6484   -4859.4993    28765.471    15.620162    13.527442    25.751783    5441.3734 
  201000      200.988    393.97566    16.194262   -444.49661   -428.30234    6114.2576   -3262.9989   -6087.1923    27692.964    15.620165    13.527444    25.751765    5441.3714 
  201500      201.488     393.7777    16.186124   -444.46228   -428.27616    5387.9705   -5786.0369   -7369.7988    29319.747    15.620167    13.527446    25.751748    5441.3694 
  202000      201.988    406.58487     16.71256   -444.96219   -428.24963    5285.0961   -5060.4566   -5523.0044    26438.749     15.62017    13.527448     25.75173    5441.3673 
  202500      202.488    415.26201    17.069231   -445.29208   -428.22285    4134.7888   -4583.0253   -9309.1639    26296.556    15.620172     13.52745    25.751713    5441.3653 
  203000      202.988    410.50022    16.873499   -445.06808   -428.19458    4285.8003   -6837.1978   -6585.3018      26279.9    15.620174    13.527453    25.751695    5441.3633 
  203500      203.488    404.67927     16.63423   -444.80197   -428.16774    6339.7521   -4326.2048   -5277.3327    28622.794    15.620177    13.527455    25.751678    5441.3613 
  204000      203.988    416.89016    17.136156   -445.27692   -428.14076    5173.9269   -5311.0932   -7899.9729    28732.847    15.620179    13.527457     25.75166    5441.3593 
  204500      204.488    409.22394    16.821038   -444.93534    -428.1143    4874.6494   -7535.6178   -8242.5143     30402.08    15.620182    13.527459    25.751643    5441.3572 
  205000      204.988    416.53207    17.121437   -445.21024    -428.0888    4987.9758   -4938.7582   -7692.9342     27595.62    15.620184    13.527461    25.751625    5441.3552 
  205500      205.488    415.93288    17.096807   -445.15829   -428.06148    5375.9337   -4959.9615   -5999.0957    27086.858    15.620186    13.527463    25.751608    5441.3532 
  206000      205.988    434.53548    17.861462   -445.89576    -428.0343    5185.9329    -6670.673   -4119.6038    26348.075    15.620189    13.527465     25.75159    5441.3512 
  206500      206.488    421.22557    17.314362   -445.32145   -428.00709    5167.3264   -4986.2149   -10441.627    30929.821    15.620191    13.527467    25.751573    5441.3492 
  207000      206.988    421.04007    17.306737   -445.28557   -427.97883    4996.5798   -6417.1411   -8185.2554    29592.136    15.620194    13.527469    25.751555    5441.3472 
  207500      207.488    385.45909     15.84419   -443.79485   -427.95066    5901.7319    -3100.664   -7118.8506     27924.71    15.620196    13.527471    25.751538    5441.3451 
  208000      207.988    412.04971     16.93719   -444.86125   -427.92406    5934.6555   -4398.5373   -7687.2632    29889.767    15.620198    13.527474     25.75152    5441.3431 
  208500      208.488    402.41694    16.541238   -444.43763   -427.89639    4957.1067   -5689.7345   -9501.3478    30062.402    15.620201    13.527476    25.751503    5441.3411 
  209000      208.988    404.10098     16.61046   -444.47953   -427.86907    6526.0087   -2039.5584   -9583.5815    31201.166    15.620203    13.527478    25.751485    5441.3391 
  209500      209.488    409.21584    16.820705   -444.66326   -427.84255    5970.6693   -5808.6985   -9808.5971    33529.303    15.620206     13.52748    25.751468    5441.3371 
  210000      209.988    427.83463    17.586025    -445.4008   -427.81478    4982.7099   -3277.4605   -10178.893    28404.483    15.620208    13.527482     25.75145    5441.3351 
  210500      210.488    409.19822    16.819981   -444.60781   -427.78783    6276.8222   -4466.4475   -6744.5795    30041.494     15.62021    13.527484    25.751433     5441.333 
  211000      210.988    422.05806    17.348581   -445.10816   -427.75957    5917.0178   -5409.4121   -6954.5743     30115.04    15.620213    13.527486    25.751415     5441.331 
  211500      211.488    408.74324    16.801279   -444.53256   -427.73128    5858.8595   -5967.1738   -5086.2377     28629.99    15.620215    13.527488    25.751398     5441.329 
  212000      211.988    433.25762    17.808936   -445.51315   -427.70421    4420.9575   -5396.8445   -6331.2775    24990.995    15.620218     13.52749     25.75138     5441.327 
[...]
  948500      948.488    558.57464    22.960058   -438.18683   -415.22677     9088.049    -5375.929   -3414.2395    36054.315    15.623753    13.530584    25.725603    5438.3537 
  949000      948.988    556.66499    22.881562   -438.10733   -415.22577    11613.942   -1889.9409   -1671.0867    38402.853    15.623755    13.530586    25.725585    5438.3517 
  949500      949.488    586.00542    24.087592   -439.31235   -415.22475     10841.33    225.74522   -1187.0585    33485.305    15.623758    13.530588    25.725568    5438.3497 
  950000      949.988    566.22993    23.274726   -438.50109   -415.22636     9873.176    -2776.487   -2248.8072    34644.822     15.62376     13.53059     25.72555    5438.3476 
  950500      950.488    599.79445    24.654386   -439.88068   -415.22629    10696.442   -5048.2193   -72.528203    37210.074    15.623762    13.530592    25.725533    5438.3456 
  951000      950.988    586.71057    24.116577   -439.34398    -415.2274    10372.684   -2891.6327   -1571.6974    35581.382    15.623765    13.530594    25.725515    5438.3436 
  951500      951.488    593.10994    24.379622   -439.60544   -415.22582     10352.02   -2085.6445   -408.80763    33550.512    15.623767    13.530596    25.725498    5438.3416 
  952000      951.988    592.71704    24.363472   -439.58752   -415.22405    10921.847   -2411.9392   -3159.1677    38336.647     15.62377    13.530598     25.72548    5438.3396 
  952500      952.488    566.26036    23.275977   -438.50035   -415.22438    11029.493   -1840.6562    1526.2873    33402.847    15.623772      13.5306    25.725463    5438.3375 
  953000      952.988     571.1583    23.477305   -438.70181    -415.2245    9212.9358   -3825.0529   -2203.8324    33667.693    15.623774    13.530603    25.725445    5438.3355 
  953500      953.488     566.2071    23.273788   -438.49656   -415.22277    11776.949   -1485.4194    1191.8875    35624.379    15.623777    13.530605    25.725428    5438.3335 
  954000      953.988    543.44663    22.338225   -437.56047   -415.22224    11073.973     -2371.96    4538.8599     31055.02    15.623779    13.530607     25.72541    5438.3315 
  954500      954.488    550.51542    22.628786   -437.85049   -415.22171    12152.691   -2482.2804    3826.2595    35114.094    15.623782    13.530609    25.725393    5438.3295 
  955000      954.988    560.94252    23.057389   -438.27773   -415.22035    10845.053   -1545.3693   -5040.7664    39121.293    15.623784    13.530611    25.725375    5438.3274 
  955500      955.488    558.67243    22.964077   -438.18364   -415.21957    10523.225    -5926.626    1516.8903     35979.41    15.623786    13.530613    25.725358    5438.3254 
  956000      955.988     589.9219    24.248578   -439.46776   -415.21918     11555.09   -1043.8401    -264.9742    35974.083    15.623789    13.530615     25.72534    5438.3234 
  956500      956.488    533.27163    21.919984   -437.13681   -415.21683    10502.894   -3795.0605   -833.95354    36137.697    15.623791    13.530617    25.725323    5438.3214 
  957000      956.988    566.97121    23.305196   -438.52426   -415.21906    11049.055   -756.28428   -3057.9836    36961.432    15.623794    13.530619    25.725305    5438.3194 
  957500      957.488    552.03909    22.691416   -437.90867   -415.21725    10059.735   -6927.7079   -1133.7416    38240.656    15.623796    13.530621    25.725288    5438.3173 
  958000      957.988    566.86096    23.300665   -438.51736    -415.2167    12305.918   -3305.1068    1670.5235    38552.338    15.623798    13.530624     25.72527    5438.3153 
  958500      958.488    551.14578    22.654696   -437.87057   -415.21587    10013.999   -4358.5551    3834.3951    30566.158    15.623801    13.530626    25.725253    5438.3133 
  959000      958.988    553.70136    22.759743   -437.97421   -415.21446    12109.548   -209.54702   -991.51241    37529.704    15.623803    13.530628    25.725235    5438.3113 
  959500      959.488     549.1967     22.57458   -437.78493   -415.21035    11682.269   -1248.8964   -660.46906    36956.173    15.623806     13.53063    25.725218    5438.3093 
  960000      959.988    599.49074    24.641903   -439.85505   -415.21315    9337.4463   -6294.0253    2431.6796    31874.685    15.623808    13.530632      25.7252    5438.3072 
  960500      960.488    609.36571    25.047811   -440.26023   -415.21242    12172.936    3893.7391    171.91828    32453.152     15.62381    13.530634    25.725183    5438.3052 
  961000      960.988    557.43202     22.91309   -438.12232   -415.20923    9964.2893   -4898.8528    7.5780342    34784.143    15.623813    13.530636    25.725165    5438.3032 
  961500      961.488    558.19898    22.944616   -438.15238   -415.20776    12863.392   -4574.8785    6268.4033     36896.65    15.623815    13.530638    25.725148    5438.3012 
  962000      961.988    553.35073     22.74533   -437.95059   -415.20526    6996.3786   -6710.3921   -1555.7549    29255.283    15.623818     13.53064     25.72513    5438.2992 
  962500      962.488    569.33528    23.402371   -438.60656   -415.20419    9479.1418   -5387.6213   -679.34074    34504.387     15.62382    13.530642    25.725113    5438.2971 
  963000      962.988    586.34705    24.101635   -439.30367   -415.20203    8574.7848   -5738.2699   -3781.4228    35244.047    15.623822    13.530645    25.725095    5438.2951 
  963500      963.488    547.87844    22.520393   -437.71956   -415.19916    10967.095   -1254.4025   -180.41973    34336.106    15.623825    13.530647    25.725078    5438.2931 
  964000      963.988    539.32459    22.168789   -437.36461   -415.19582    12082.576    669.79093   -481.92352    36059.859    15.623827    13.530649     25.72506    5438.2911 
  964500      964.488    590.94437    24.290606   -439.48558   -415.19497    10946.286      831.884   -8019.8375    40026.813     15.62383    13.530651    25.725043    5438.2891 
  965000      964.988    550.30355    22.620077   -437.81433   -415.19425    10800.942   -5237.8175   -217.65128    37858.294    15.623832    13.530653    25.725025     5438.287 
  965500      965.488     573.0193    23.553801   -438.74501   -415.19121    11055.058   -1741.3937     109.9503    34796.617    15.623834    13.530655    25.725008     5438.285 
  966000      965.988    558.52916    22.958188   -438.14769    -415.1895     12753.91   -2101.0599    2519.0079    37843.781    15.623837    13.530657     25.72499     5438.283 
  966500      966.488    579.24243    23.809602   -438.99742   -415.18782    11581.656   -5050.4795   -1168.3325     40963.78    15.623839    13.530659    25.724973     5438.281 
  967000      966.988    540.78861    22.228968   -437.41304   -415.18407    9239.2061   -1518.6104   -4898.0137    34134.242    15.623842    13.530661    25.724955     5438.279 
  967500      967.488    543.23565    22.329553   -437.51039   -415.18084    11986.223   -37.733464    570.85819    35425.543    15.623844    13.530663    25.724938    5438.2769 
  968000      967.988    554.95164    22.811135   -437.98863   -415.17749    11892.776   -3310.0541    161.49625    38826.886    15.623846    13.530666     25.72492    5438.2749 
  968500      968.488    560.44916    23.037109   -438.21086   -415.17375    9571.8112   -1528.0507   -5077.9771    35321.461    15.623849    13.530668    25.724903    5438.2729 
  969000      968.988    553.02632    22.731996   -437.90319    -415.1712    11777.577    -156.9595   -140.52727    35630.218    15.623851     13.53067    25.724885    5438.2709 
  969500      969.488    547.42862    22.501903   -437.67069   -415.16878    10595.401   -4262.2435   -26.539186    36074.987    15.623854    13.530672    25.724868    5438.2689 
  970000      969.988    594.17676    24.423473   -439.58917   -415.16569    10174.455   -3633.5665    71.851233     34085.08    15.623856    13.530674     25.72485    5438.2668 
  970500      970.488     609.5861     25.05687   -440.22044   -415.16357     10699.32   -3595.3437    459.70491    35233.597    15.623858    13.530676    25.724833    5438.2648 
  971000      970.988    584.56488    24.028379   -439.18776   -415.15938    11542.146   -4307.5094   -318.80764    39252.755    15.623861    13.530678    25.724815    5438.2628 
  971500      971.488     561.4945    23.080077    -438.2366   -415.15653     11026.01   -1943.5176    1550.3292    33471.219    15.623863     13.53068    25.724798    5438.2608 
  972000      971.988    548.62133     22.55093   -437.70341   -415.15248    12185.882   -3102.3341   -1119.2345    40779.216    15.623866    13.530682     25.72478    5438.2588 
  972500      972.488    588.66997    24.197118   -439.34809   -415.15097    12165.063   -2532.6666    5499.4944    33528.362    15.623868    13.530684    25.724763    5438.2567 
  973000      972.988     573.7043    23.581958   -438.72955   -415.14759    11062.473   -309.14666    1490.6985    32005.866     15.62387    13.530687    25.724745    5438.2547 
  973500      973.488    573.46093    23.571954   -438.71563   -415.14367    10989.419   -2012.4749     2160.477    32820.256    15.623873    13.530689    25.724728    5438.2527 
  974000      973.988    560.68738    23.046901    -438.1857    -415.1388    11896.543   -2144.2067   -1199.5142    39033.351    15.623875    13.530691     25.72471    5438.2507 
  974500      974.488    542.92564     22.31681   -437.45241    -415.1356    10921.938   -2538.2154    2368.5933    32935.436    15.623878    13.530693    25.724693    5438.2487 
  975000      974.988    600.18309    24.670361   -439.80309   -415.13273    12445.455   -458.60736   -1204.7824    38999.756     15.62388    13.530695    25.724675    5438.2466 
  975500      975.488    585.43764    24.064254   -439.19342   -415.12917    10807.122   -2709.4936    197.92241    34932.936    15.623882    13.530697    25.724658    5438.2446 
  976000      975.988    581.33844    23.895757   -439.02051   -415.12475    10789.493   -3040.7969    2653.0545    32756.222    15.623885    13.530699     25.72464    5438.2426 
  976500      976.488    568.01889    23.348261   -438.47079   -415.12253    10389.213   -4628.3523    -2709.468     38505.46    15.623887    13.530701    25.724623    5438.2406 
  977000      976.988     571.7462    23.501471   -438.62282   -415.12134      11248.8   -2099.3645   -3155.8927    39001.658     15.62389    13.530703    25.724605    5438.2386 
  977500      977.488    556.92244    22.892144   -438.00913   -415.11698    10854.944   -35.865971    1590.3719    31010.325    15.623892    13.530705    25.724588    5438.2365 
  978000      977.988    589.49624    24.231082   -439.34522   -415.11414    9929.4717   -4119.8106    854.69283    33053.533    15.623894    13.530708     25.72457    5438.2345 
  978500      978.488    547.85694     22.51951   -437.63263   -415.11312    10739.174   -4213.8587     1591.241    34840.138    15.623897     13.53071    25.724553    5438.2325 
  979000      978.988    584.81869    24.038812   -439.14748   -415.10867    10772.601    2005.7868   -3140.6666    33452.682    15.623899    13.530712    25.724535    5438.2305 
  979500      979.488    591.62145    24.318438   -439.42283   -415.10439    8851.8247   -4689.1354     770.1416    30474.468    15.623902    13.530714    25.724518    5438.2285 
  980000      979.988    603.18557    24.793778   -439.89418    -415.1004    8955.0881    -6210.786   -3942.2321    37018.282    15.623904    13.530716      25.7245    5438.2264 
  980500      980.488    529.34361    21.758524   -436.85085   -415.09232    9579.6263    -5851.554      813.837    33776.596    15.623906    13.530718    25.724483    5438.2244 
  981000      980.988    578.39541    23.774785   -438.86318    -415.0884    9422.1749   -3930.7721    2825.0322    29372.265    15.623909     13.53072    25.724465    5438.2224 
  981500      981.488    547.85944    22.519612   -437.60284   -415.08322    10277.985   -1415.1879   -1402.7704    33651.912    15.623911    13.530722    25.724448    5438.2204 
  982000      981.988    580.35865    23.855483   -438.93287   -415.07739    9575.9754   -177.55113   -3112.5847    32018.062    15.623914    13.530724     25.72443    5438.2184 
  982500      982.488    548.83333    22.559644   -437.63314    -415.0735    11872.783    2548.5485   -1577.6117    34647.411    15.623916    13.530726    25.724413    5438.2163 
  983000      982.988    575.93224    23.673537   -438.74182   -415.06829    10531.801   -8238.8475    1633.3387    38200.912    15.623918    13.530729    25.724395    5438.2143 
  983500      983.488    593.60819    24.400102    -439.4657    -415.0656    11213.907    27.403307    986.41902    32627.899    15.623921    13.530731    25.724378    5438.2123 
  984000      983.988    569.39694    23.404905    -438.4653   -415.06039    10153.336   -5389.6341    2417.1758    33432.465    15.623923    13.530733     25.72436    5438.2103 
  984500      984.488    545.56245    22.425195    -437.4805    -415.0553    10661.918   -4021.1798    3546.4581    32460.476    15.623926    13.530735    25.724343    5438.2083 
  985000      984.988     538.7309    22.144386   -437.19512   -415.05073    11729.263   -5251.4404    1002.2887    39436.939    15.623928    13.530737    25.724325    5438.2062 
  985500      985.488    551.60647    22.673633   -437.72021   -415.04658    10924.314   -149.70941   -635.70036    33558.351     15.62393    13.530739    25.724308    5438.2042 
  986000      985.988    566.81833    23.298912   -438.33749   -415.03858    11280.937   -4909.2216    411.30183    38340.729    15.623933    13.530741     25.72429    5438.2022 
  986500      986.488    590.43682    24.269744   -439.30439   -415.03465    10213.746   -1774.6203   -2726.5851    35142.444    15.623935    13.530743    25.724273    5438.2002 
  987000      986.988    588.58432    24.193597    -439.2217    -415.0281    10707.995   -4040.9159    66.455588    36098.445    15.623938    13.530745    25.724255    5438.1982 
  987500      987.488    550.30418    22.620103   -437.64201   -415.02191     12213.49   -397.23406    1899.7458    35137.957     15.62394    13.530747    25.724238    5438.1961 
  988000      987.988    586.99898    24.128432    -439.1465   -415.01807    11042.628   -520.13489   -1534.8146    35182.835    15.623942     13.53075     25.72422    5438.1941 
  988500      988.488    576.12516    23.681467   -438.69717    -415.0157     10429.38   -5180.5302    1451.5364    35017.133    15.623945    13.530752    25.724203    5438.1921 
  989000      988.988     593.0897     24.37879   -439.38845   -415.00966    8247.6328   -5820.0789    -3104.157    33667.134    15.623947    13.530754    25.724185    5438.1901 
  989500      989.488    563.57469    23.165583   -438.16814   -415.00255     11869.29   -2142.8706   -722.33786    38473.079     15.62395    13.530756    25.724168    5438.1881 
  990000      989.988    567.32215    23.319622   -438.31898   -414.99936    9819.2506   -5359.2904   -2288.7233    37105.765    15.623952    13.530758     25.72415     5438.186 
  990500      990.488    559.33912    22.991481   -437.98572   -414.99424    9988.6952   -4275.0276    3901.7965    30339.317    15.623954     13.53076    25.724133     5438.184 
  991000      990.988    575.32514    23.648582   -438.63825   -414.98967    11839.594   -4304.2063    3467.7717    36355.217    15.623957    13.530762    25.724115     5438.182 
  991500      991.488    549.97551    22.606593   -437.59072   -414.98413    10683.766   -1462.0066    4825.6631    28687.641    15.623959    13.530764    25.724098      5438.18 
  992000      991.988    580.81576    23.874273   -438.85232   -414.97805    9310.3696    -4139.198    275.68174    31794.625    15.623962    13.530766     25.72408    5438.1779 
  992500      992.488    556.23781    22.864003   -437.83612   -414.97211    8684.1321   -5959.7788   -3336.6122    35348.787    15.623964    13.530768    25.724063    5438.1759 
  993000      992.988    543.91239     22.35737   -437.32455   -414.96718    11341.878   -4215.7183   -366.63303    38607.985    15.623966    13.530771    25.724045    5438.1739 
  993500      993.488    582.86692    23.958585   -438.92087   -414.96229    9611.4577   -7696.2807    713.76131    35816.892    15.623969    13.530773    25.724028    5438.1719 
  994000      993.988    561.55239    23.082457   -438.03716    -414.9547    10607.626   -5291.4478    465.55851    36648.767    15.623971    13.530775     25.72401    5438.1699 
  994500      994.488    586.43751    24.105353   -439.05533   -414.94998    11433.697   -2627.6325   -191.95441    37120.678    15.623974    13.530777    25.723993    5438.1678 
  995000      994.988    610.66305    25.101137   -440.04567   -414.94453    10753.107   -3203.6528   -3187.4433    38650.416    15.623976    13.530779    25.723975    5438.1658 
  995500      995.488     570.6268    23.455458   -438.39365    -414.9382    12033.233    1805.8562    161.47439    34132.369    15.623978    13.530781    25.723958    5438.1638 
  996000      995.988    586.10548    24.091705    -439.0255   -414.93379    12671.537    845.79605   -805.47224    37974.286    15.623981    13.530783     25.72394    5438.1618 
  996500      996.488    561.03886    23.061349   -437.98847   -414.92712    13489.661    -1405.828   -1748.9558    43623.768    15.623983    13.530785    25.723923    5438.1598 
  997000      996.988    569.46887    23.407862   -438.32841   -414.92055    11815.104   -1539.3412   -2083.3934    39068.046    15.623986    13.530787    25.723905    5438.1577 
  997500      997.488    563.48157    23.161756   -438.07615   -414.91439    12845.411   -1845.4266    3657.8208    36723.838    15.623988    13.530789    25.723888    5438.1557 
  998000      997.988    563.18627    23.149617   -438.05671    -414.9071    11791.078   -3147.4693   -676.07079    39196.775     15.62399    13.530792     25.72387    5438.1537 
  998500      998.488    559.60011    23.002209   -437.90335   -414.90114    11742.932   -197.22675   -5735.5433    41161.565    15.623993    13.530794    25.723853    5438.1517 
  999000      998.988    563.23838    23.151759   -438.04812   -414.89636    12200.011    -786.4957   -1205.2344    38591.762    15.623995    13.530796    25.723835    5438.1497 
  999500      999.488    540.68802    22.224833   -437.11271   -414.88788    11283.524    -717.5703    619.14527    33948.997    15.623998    13.530798    25.723818    5438.1476 
 1000000      999.988    553.48248    22.750746   -437.63066   -414.87991    10813.753    -5538.669    431.97955    37547.949       15.624      13.5308      25.7238    5438.1456 
 1000012         1000    571.71957    23.500376   -438.38013   -414.87975    9798.8014   -5641.4127   -928.44885    35966.266       15.624      13.5308      25.7238    5438.1456 
Loop time of 970.443 on 28 procs for 1000000 steps with 319 atoms

Performance: 89.032 ns/day, 0.270 hours/ns, 1030.458 timesteps/s
87.4% CPU use with 28 MPI tasks x no OpenMP threads

MPI task timing breakdown:
Section |  min time  |  avg time  |  max time  |%varavg| %total
---------------------------------------------------------------
Pair    | 772.77     | 828.5      | 895.42     |  91.7 | 85.37
Neigh   | 0.029013   | 0.044798   | 0.063388   |   4.3 |  0.00
Comm    | 64.559     | 130.29     | 184.05     | 225.9 | 13.43
Output  | 0.10173    | 0.10433    | 0.12684    |   1.4 |  0.01
Modify  | 4.9824     | 6.3331     | 8.2664     |  35.2 |  0.65
Other   |            | 5.171      |            |       |  0.53

Nlocal:    11.3929 ave 17 max 6 min
Histogram: 5 2 1 1 2 7 4 1 3 2
Nghost:    676.5 ave 720 max 652 min
Histogram: 3 4 7 4 2 4 2 0 0 2
Neighs:    725.571 ave 1025 max 395 min
Histogram: 5 2 0 1 2 5 5 4 2 2
FullNghs:  1451.14 ave 2172 max 773 min
Histogram: 5 2 1 1 2 7 5 0 3 2

Total # of neighbors = 40632
Ave neighs/atom = 127.373
Neighbor list builds = 643
Dangerous builds = 0

write_restart   POSCAR_1x1x1.rest

#unfix    1
#undump   1
Total wall time: 0:16:10
