LAMMPS (7 Dec 2015)
#----------- Initialize Simulation ------------ restart01
#processors	2 2 2
units		metal
boundary	p p p     ## periodic boundary condition  on x y z axis ##
atom_style atomic
#atom_modify map array sort 0 0.0

read_data	POSCAR_1x1x1.lammps
  triclinic box = (0 0 0) to (15.2387 13.1971 28.5579) with tilt (-7.61925 0 0)
  2 by 2 by 7 MPI processor grid
  reading atoms ...
  319 atoms

#----------- Define Potential -----------------
pair_style meam
pair_coeff * * MgAlZn.library.meam Mg Al Zn MgAlZn.parameter.meam Mg Al Zn 	#1=Mg 2=Al 3=Zn	#atoms/mass

#----------- Neighbor List --------------------
neighbor 2.0 bin
neigh_modify delay 10 check yes

#--------------  Run a simulation (minimization) ---------------------------------------
minimize       1.0e-4   1.0e-6   100   1000          #結構優化的條件
WARNING: Resetting reneighboring criteria during minimization (../min.cpp:168)
Neighbor list info ...
  2 neighbor list requests
  update every 1 steps, delay 0 steps, check yes
  max neighbors/atom: 2000, page size: 100000
  master list distance cutoff = 8
  ghost atom cutoff = 8
  binsize = 4 -> bins = 6 4 8
Memory usage per processor = 8.64986 Mbytes
Step Temp E_pair E_mol TotEng Press 
       0            0   -428.89795            0   -428.89795   -7503.0519 
      18            0   -450.87923            0   -450.87923   -24215.502 
Loop time of 0.0285897 on 28 procs for 18 steps with 319 atoms

85.3% CPU use with 28 MPI tasks x no OpenMP threads

Minimization stats:
  Stopping criterion = energy tolerance
  Energy initial, next-to-last, final = 
        -428.897953918     -450.838307803     -450.879233591
  Force two-norm initial, final = 20.6171 0.849492
  Force max component initial, final = 3.85925 0.172484
  Final line search alpha, max atom move = 0.263013 0.0453657
  Iterations, force evaluations = 18 32

MPI task timing breakdown:
Section |  min time  |  avg time  |  max time  |%varavg| %total
---------------------------------------------------------------
Pair    | 0.022747   | 0.02431    | 0.02592    |   0.5 | 85.03
Neigh   | 0          | 0          | 0          |   0.0 |  0.00
Comm    | 0.0016183  | 0.003223   | 0.004806   |   1.3 | 11.27
Output  | 0          | 0          | 0          |   0.0 |  0.00
Modify  | 0          | 0          | 0          |   0.0 |  0.00
Other   |            | 0.001056   |            |       |  3.69

Nlocal:    11.3929 ave 15 max 7 min
Histogram: 4 2 1 2 0 3 6 3 3 4
Nghost:    656.036 ave 710 max 607 min
Histogram: 7 1 0 2 6 0 4 4 0 4
Neighs:    690.071 ave 953 max 369 min
Histogram: 4 1 1 2 2 4 4 3 3 4
FullNghs:  1380.14 ave 1851 max 805 min
Histogram: 4 2 1 2 3 0 7 2 3 4

Total # of neighbors = 38644
Ave neighs/atom = 121.141
Neighbor list builds = 0
Dangerous builds = 0
velocity all  create 600.0 4928459 #rot yes dist gaussian

#--------------  Run a simulation (Relaxation)  ----------------------------------------
fix  1  all  nvt   temp  600.0  600.0  100				#damping constant
#fix  2  all  npt   temp  393.0  393.0  50 iso 0.0 0.0 1000.0
fix  2  all deform 1 x final 0 15.2434 y final 0 13.2012 z final 0 28.5229 xy final -7.6216 units lattice
#fix  3  all  npt   temp  393.0  393.0  50 z 0.0 0.0 1000.0

#variable b equal 1
#fix 2 all efield  0.0  0.0  v_b
#compute pot all pe/atom


#----------- Output --------------------------
thermo	 500
timestep  0.001		#1.0 fs
thermo_style	custom step time temp ke pe etotal press pxx pyy pzz lx ly lz vol

dump 1 all custom 10000 dump.eq id type x y z
dump_modify 1 sort  id

run        1000000	#1000 ps
Neighbor list info ...
  2 neighbor list requests
  update every 1 steps, delay 10 steps, check yes
  max neighbors/atom: 2000, page size: 100000
  master list distance cutoff = 8
  ghost atom cutoff = 8
  binsize = 4 -> bins = 6 4 8
Memory usage per processor = 7.5558 Mbytes
Step Time Temp KinEng PotEng TotEng Press Pxx Pyy Pzz Lx Ly Lz Volume 
      18            0          600    24.662836   -450.87923    -426.2164   -19628.706   -1852.4775   -12101.018   -44932.622      15.2387      13.1971      28.5579    5743.1835 
     500        0.482    305.76848     12.56853   -438.78055   -426.21202   -12803.026     5726.748   -1948.4992   -42187.328    15.238702    13.197102    28.557883    5743.1819 
    1000        0.982    302.50519    12.434393   -438.64615   -426.21176   -13568.175    4377.9137    -4632.194   -40450.244    15.238705    13.197104    28.557866    5743.1801 
    1500        1.482    306.98999     12.61874   -438.82977   -426.21103    -13271.12    8673.8993   -4867.6327   -43619.625    15.238707    13.197106    28.557848    5743.1784 
    2000        1.982    309.54524    12.723772     -438.934   -426.21023   -12259.836    5778.2108   -1318.3614   -41239.358    15.238709    13.197108    28.557831    5743.1766 
    2500        2.482     297.6792    12.236022   -438.44486   -426.20884   -11940.548    5977.1307   -477.47092   -41321.305    15.238712     13.19711    28.557813    5743.1749 
    3000        2.982    314.78525    12.939161   -439.14659   -426.20742   -13586.144    5288.3992   -3564.6747   -42482.157    15.238714    13.197112    28.557796    5743.1731 
    3500        3.482    312.08292    12.828083   -439.03344   -426.20536    -12589.26    6583.5748   -542.78751   -43808.568    15.238716    13.197114    28.557778    5743.1714 
    4000        3.982    311.09705    12.787559   -438.99061   -426.20305   -13796.196    4226.0069   -708.91075   -44905.685    15.238719    13.197116    28.557761    5743.1697 
    4500        4.482    304.50832    12.516731   -438.71755   -426.20082   -12058.762    6924.2049    42.225261   -43142.716    15.238721    13.197118    28.557743    5743.1679 
    5000        4.982     313.5972    12.890327    -439.0885   -426.19817   -12082.249    5252.3687   -2042.3572   -39456.759    15.238723     13.19712    28.557726    5743.1662 
    5500        5.482    320.88723    13.189982   -439.38521   -426.19523   -13258.308    5312.9625   -4755.8152   -40332.071    15.238726    13.197122    28.557708    5743.1644 
    6000        5.982    325.06951    13.361893   -439.55399    -426.1921   -14223.859     5458.023   -5101.0976   -43028.503    15.238728    13.197125    28.557691    5743.1627 
    6500        6.482    308.61923    12.685709   -438.87322   -426.18751    -12767.41    5940.6636    1007.3284   -45250.221     15.23873    13.197127    28.557673     5743.161 
    7000        6.982    319.60047     13.13709   -439.32065   -426.18356   -12634.795     6447.983   -2334.6772   -42017.692    15.238733    13.197129    28.557656    5743.1592 
    7500        7.482    325.99309    13.399857   -439.57943   -426.17957   -13015.731    4746.8427   -1829.0975   -41964.938    15.238735    13.197131    28.557638    5743.1575 
    8000        7.982    318.92361    13.109268   -439.28405   -426.17479   -13346.246    7238.2063   -3907.6273   -43369.318    15.238738    13.197133    28.557621    5743.1557 
    8500        8.482    311.76519    12.815023   -438.98432   -426.16929   -12363.009    7246.6187   -3592.9113   -40742.735     15.23874    13.197135    28.557603     5743.154 
    9000        8.982    326.10936    13.404636   -439.56884    -426.1642   -13341.469    6246.5747   -3628.8309   -42642.151    15.238742    13.197137    28.557586    5743.1523 
    9500        9.482    331.65755    13.632693    -439.7913   -426.15861   -13829.622    8219.8723   -4724.0557   -44984.682    15.238745    13.197139    28.557568    5743.1505 
   10000        9.982    313.67125    12.893371   -439.04631   -426.15294   -12977.511    6603.3024   -2126.7381   -43409.098    15.238747    13.197141    28.557551    5743.1488 
   10500       10.482    327.51845    13.462556   -439.60912   -426.14656   -13400.716    6538.1043   -3066.6911   -43673.562    15.238749    13.197143    28.557533     5743.147 
   11000       10.982    304.19195    12.503727   -438.64321   -426.13949    -12033.41    6818.6837   -1441.3167   -41477.598    15.238752    13.197145    28.557516    5743.1453 
   11500       11.482    326.31178    13.412956   -439.54621   -426.13326    -13293.39    6264.5262   -2469.2976   -43675.398    15.238754    13.197147    28.557498    5743.1435 
   12000       11.982    320.79835    13.186328   -439.31253   -426.12621   -12946.381    5701.4164   -3175.5459   -41365.014    15.238756    13.197149    28.557481    5743.1418 
   12500       12.482    308.39802    12.676616   -438.79506   -426.11845   -11316.432    7587.2053    32.016863   -41568.517    15.238759    13.197151    28.557463    5743.1401 
   13000       12.982    304.90743    12.533136    -438.6434   -426.11026   -12211.933    7196.5001   -1844.6432   -41987.656    15.238761    13.197153    28.557446    5743.1383 
   13500       13.482    315.55055    12.970619   -439.07314   -426.10252   -12593.234    8274.2394   -2176.8586   -43877.082    15.238763    13.197155    28.557428    5743.1366 
   14000       13.982    324.93373    13.356312   -439.45052   -426.09421   -14020.868    4752.3127   -4080.1144   -42734.802    15.238766    13.197157    28.557411    5743.1348 
   14500       14.482    317.94694    13.069122   -439.15467   -426.08555   -12711.297    7985.7422   -2563.8048   -43555.828    15.238768    13.197159    28.557393    5743.1331 
   15000       14.982     325.8375    13.393461    -439.4703   -426.07683   -13463.833    5280.0212   -5319.7332   -40351.786     15.23877    13.197161    28.557376    5743.1314 
   15500       15.482    323.80897    13.310079   -439.37695   -426.06687   -14217.296    5845.6112   -3574.9895    -44922.51    15.238773    13.197163    28.557358    5743.1296 
   16000       15.982    308.98758     12.70085   -438.75833   -426.05748   -11748.791    5682.6434    198.97668   -41127.994    15.238775    13.197166    28.557341    5743.1279 
   16500       16.482    321.71045     13.22382   -439.27148   -426.04766   -12483.561    5798.2519   -1581.8616   -41667.073    15.238777    13.197168    28.557323    5743.1261 
   17000       16.982    311.00506    12.783778   -438.82144   -426.03766   -12266.801    7389.4703   -4667.8043   -39522.069     15.23878     13.19717    28.557306    5743.1244 
   17500       17.482    317.79365    13.062821   -439.09012    -426.0273   -13551.225    3909.8836   -2443.6262   -42119.931    15.238782    13.197172    28.557288    5743.1226 
   18000       17.982    320.65696    13.180516   -439.19714   -426.01663   -13416.429    5348.9583    -4066.067   -41532.178    15.238785    13.197174    28.557271    5743.1209 
   18500       18.482    318.73979    13.101712   -439.10687   -426.00516   -13292.477    4469.2291   -4183.4933   -40163.166    15.238787    13.197176    28.557253    5743.1192 
   19000       18.982    323.95144    13.315935   -439.30984   -425.99391   -12786.077    6739.0382   -3147.6389   -41949.629    15.238789    13.197178    28.557236    5743.1174 
   19500       19.482    335.45618    13.788834   -439.77131   -425.98247   -13762.152    5369.6119    -2632.358    -44023.71    15.238792     13.19718    28.557218    5743.1157 
   20000       19.982    320.66719    13.180937   -439.15123   -425.97029   -12570.508    7657.0966   -3112.3771   -42256.243    15.238794    13.197182    28.557201    5743.1139 
   20500       20.482    312.38786    12.840617    -438.7983   -425.95769   -13168.389    4133.6345   -1842.0533   -41796.748    15.238796    13.197184    28.557183    5743.1122 
   21000       20.982    330.99688    13.605536   -439.55076   -425.94523   -13749.346    5324.0757   -3748.7661   -42823.347    15.238799    13.197186    28.557166    5743.1105 
   21500       21.482    329.50926    13.544388   -439.47744   -425.93306   -12931.244    6407.3312   -3441.4812   -41759.581    15.238801    13.197188    28.557148    5743.1087 
   22000       21.982    319.21113    13.121086   -439.04064   -425.91956   -13265.449     5600.903   -3092.2158   -42305.035    15.238803     13.19719    28.557131     5743.107 
   22500       22.482    340.12757    13.980851     -439.887   -425.90615   -13273.429    4990.3532   -3375.9684   -41434.671    15.238806    13.197192    28.557113    5743.1052 
   23000       22.982    330.60023    13.589232   -439.48189   -425.89266    -13385.96    6624.8484   -3717.7027   -43065.027    15.238808    13.197194    28.557096    5743.1035 
   23500       23.482    313.66905     12.89328    -438.7718   -425.87852   -12846.858    3322.4722   -2733.1013   -39129.945     15.23881    13.197196    28.557078    5743.1017 
   24000       23.982    324.33464    13.331686   -439.19609    -425.8644   -12667.653    6925.8594   -3450.9147   -41477.903    15.238813    13.197198    28.557061       5743.1 
   24500       24.482    333.05176    13.690001   -439.54016   -425.85016   -13393.641    6423.2586   -2381.8489   -44222.332    15.238815      13.1972    28.557043    5743.0983 
   25000       24.982    329.67572     13.55123   -439.38645   -425.83522   -13982.217    5087.8398    -3163.459    -43871.03    15.238817    13.197202    28.557026    5743.0965 
   25500       25.482    315.54516    12.970397   -438.79039   -425.81999   -13439.467    5029.4526   -4538.5206   -40809.334     15.23882    13.197204    28.557008    5743.0948 
   26000       25.982    341.17389    14.023859   -439.82869   -425.80483   -13673.547    6425.0809   -1338.9499   -46106.772    15.238822    13.197207    28.556991     5743.093 
   26500       26.482    349.85111    14.380534    -440.1699   -425.78936   -13255.907    5189.1456   -2483.2061    -42473.66    15.238824    13.197209    28.556973    5743.0913 
   27000       26.982    322.09992    13.239829   -439.01349   -425.77367   -12029.531    7130.4221   -2142.7081   -41076.307    15.238827    13.197211    28.556956    5743.0896 
   27500       27.482    325.25688    13.369595   -439.12737   -425.75777    -12917.01    6085.2387   -1251.3354   -43584.934    15.238829    13.197213    28.556938    5743.0878 
   28000       27.982    314.02518    12.907919   -438.64929   -425.74137   -14001.858    5287.4253   -1246.6996     -46046.3    15.238832    13.197215    28.556921    5743.0861 
   28500       28.482    318.80376    13.104341   -438.82939   -425.72505   -12625.074    5435.2379   -3748.3237   -39562.137    15.238834    13.197217    28.556903    5743.0843 
   29000       28.982    331.41658    13.622788   -439.33131   -425.70852   -12687.562    7427.9837   -5369.7954   -40120.873    15.238836    13.197219    28.556886    5743.0826 
   29500       29.482    324.62359    13.343564   -439.03503   -425.69147    -12930.14    5556.8495   -1263.7741   -43083.496    15.238839    13.197221    28.556868    5743.0808 
   30000       29.982    336.72966    13.841181   -439.51602   -425.67483   -14284.039    6060.5034   -4911.1993   -44001.423    15.238841    13.197223    28.556851    5743.0791 
   30500       30.482    307.98366    12.659584   -438.31654   -425.65695   -11010.323    7237.4084    543.28103   -40811.659    15.238843    13.197225    28.556833    5743.0774 
   31000       30.982    321.92485    13.232633   -438.87299   -425.64035   -12182.158    8324.8995   -3324.4547   -41546.919    15.238846    13.197227    28.556816    5743.0756 
   31500       31.482    315.09899    12.952057   -438.57428   -425.62222   -11978.387     6308.367    -1894.275   -40349.253    15.238848    13.197229    28.556798    5743.0739 
   32000       31.982    300.70509      12.3604   -437.96446   -425.60406   -12174.292    7424.3426   -1316.6701   -42630.549     15.23885    13.197231    28.556781    5743.0721 
   32500       32.482    317.26477    13.041081   -438.62747   -425.58639   -12121.337    7979.7915   -2434.3522   -41909.449    15.238853    13.197233    28.556763    5743.0704 
   33000       32.982    336.54112    13.833431   -439.40242   -425.56899   -13802.242    5492.6138   -4524.8988    -42374.44    15.238855    13.197235    28.556746    5743.0687 
   33500       33.482    353.68875    14.538279   -440.08956   -425.55128   -13879.419    6274.3536    -4355.464   -43557.145    15.238857    13.197237    28.556728    5743.0669 
   34000       33.982     329.2313    13.532962   -439.06547    -425.5325   -12585.454      4731.77    72.993982   -42561.126     15.23886    13.197239    28.556711    5743.0652 
   34500       34.482    322.11906    13.240616   -438.75459   -425.51397   -13113.325    8248.5894   -3526.8573   -44061.709    15.238862    13.197241    28.556693    5743.0634 
   35000       34.982    342.20312    14.066165   -439.56197   -425.49581   -12901.408    3745.0948   -1726.5782    -40722.74    15.238864    13.197243    28.556676    5743.0617 
   35500       35.482    337.88352     13.88861   -439.36519   -425.47658   -12992.486    7709.0323   -3544.5139   -43141.976    15.238867    13.197245    28.556658    5743.0599 
   36000       35.982    318.26907    13.082363   -438.53971   -425.45734   -14016.423    3490.3178   -2313.4605   -43226.126    15.238869    13.197248    28.556641    5743.0582 
   36500       36.482    314.33951     12.92084   -438.35961   -425.43877   -13071.758    5177.9682   -2294.3979   -42098.846    15.238871     13.19725    28.556623    5743.0565 
   37000       36.982    323.32329    13.290115   -438.71007   -425.41996    -12347.74     6975.244    -3813.614   -40204.849    15.238874    13.197252    28.556606    5743.0547 
   37500       37.482      335.994    13.810941   -439.21207   -425.40113   -12151.533    6157.3207   -3231.9719   -39379.948    15.238876    13.197254    28.556588     5743.053 
   38000       37.982    339.40984    13.951349   -439.33325    -425.3819   -13333.309    7077.4642   -3523.7812    -43553.61    15.238879    13.197256    28.556571    5743.0512 
   38500       38.482    323.32327    13.290115   -438.65303   -425.36291   -12676.872    4442.8842   -1939.3186   -40534.183    15.238881    13.197258    28.556553    5743.0495 
   39000       38.982    316.40363    13.005684   -438.34863   -425.34294   -12483.522    7248.5151   -1552.0025   -43147.079    15.238883     13.19726    28.556536    5743.0478 
   39500       39.482    309.46889    12.720634   -438.04432   -425.32369   -12415.957    7487.4628   -3086.3226    -41649.01    15.238886    13.197262    28.556518     5743.046 
   40000       39.982    338.50474    13.914145   -439.21945   -425.30531   -13093.381    6323.4252    -1831.968   -43771.601    15.238888    13.197264    28.556501    5743.0443 
   40500       40.482    330.14011    13.570319   -438.85593   -425.28561   -12947.189    7041.2396   -2983.4055   -42899.401     15.23889    13.197266    28.556483    5743.0425 
   41000       40.982    323.74155    13.307308     -438.574   -425.26669   -12744.442    5049.6306   -2440.0704   -40842.886    15.238893    13.197268    28.556466    5743.0408 
   41500       41.482     317.9984    13.071237   -438.31869   -425.24745   -12048.525    8459.0732    -1363.977   -43240.671    15.238895     13.19727    28.556448     5743.039 
   42000       41.982    334.21943    13.737998   -438.96648   -425.22848    -13426.62    8241.9762   -1734.8044   -46787.031    15.238897    13.197272    28.556431    5743.0373 
   42500       42.482    337.37013    13.867507   -439.07672   -425.20921   -13741.112    4575.3432    -5434.721   -40363.957      15.2389    13.197274    28.556413    5743.0356 
   43000       42.982    343.12016     14.10386   -439.29393   -425.19007   -12802.842    6791.9111   -1704.8622   -43495.576    15.238902    13.197276    28.556396    5743.0338 
   43500       43.482    321.11068    13.199167   -438.36996   -425.17079   -12984.898    7831.5503   -2814.6623   -43971.582    15.238904    13.197278    28.556378    5743.0321 
   44000       43.982    342.27839    14.069259   -439.22112   -425.15186   -12291.514    5946.2209    -2882.203   -39938.559    15.238907     13.19728    28.556361    5743.0303 
   44500       44.482    337.94598    13.891177   -439.02385   -425.13267   -13708.966    6327.5602   -3262.4583   -44191.999    15.238909    13.197282    28.556343    5743.0286 
   45000       44.982    325.80168    13.391989   -438.50582   -425.11383   -11058.358    8238.5973    323.70893   -41737.379    15.238911    13.197284    28.556326    5743.0269 
   45500       45.482    359.26805    14.767615   -439.86332   -425.09571   -13701.033     5183.032    -2674.821   -43611.311    15.238914    13.197286    28.556308    5743.0251 
   46000       45.982    319.31743    13.125455   -438.20088   -425.07542   -13303.423    5518.2283   -2399.1232   -43029.375    15.238916    13.197289    28.556291    5743.0234 
   46500       46.482    344.18122    14.147475   -439.20452   -425.05705   -13051.179    7258.2565   -3590.5728   -42821.222    15.238918    13.197291    28.556273    5743.0216 
   47000       46.982    343.30399    14.111416   -439.14995   -425.03854   -11837.544    8726.8364   -2581.5725   -41657.896    15.238921    13.197293    28.556256    5743.0199 
   47500       47.482    326.72818    13.430072   -438.45012   -425.02005   -13246.983    4194.2581   -1006.7473    -42928.46    15.238923    13.197295    28.556238    5743.0181 
   48000       47.982    347.99038    14.304049   -439.30556   -425.00151   -12698.255    5854.0403   -383.62762   -43565.179    15.238926    13.197297    28.556221    5743.0164 
   48500       48.482    333.77193    13.719604   -438.70264   -424.98303    -13631.67    6849.3753    -4003.039   -43741.347    15.238928    13.197299    28.556203    5743.0147 
   49000       48.982    339.05606    13.936806   -438.90186   -424.96505   -12080.251    7850.0059   -3175.8293    -40914.93     15.23893    13.197301    28.556186    5743.0129 
   49500       49.482    334.69975    13.757742   -438.70459   -424.94685   -11101.893    7141.4966   -575.96894   -39871.207    15.238933    13.197303    28.556168    5743.0112 
   50000       49.982    340.00073    13.975637   -438.90501   -424.92937   -12671.134    4322.2041   -1638.9717   -40696.636    15.238935    13.197305    28.556151    5743.0094 
   50500       50.482    344.36574     14.15506   -439.06713   -424.91207   -13645.224    1809.4925   -847.49123   -41897.674    15.238937    13.197307    28.556133    5743.0077 
   51000       50.982    329.43809    13.541462   -438.43555   -424.89409   -13426.017    3860.0025   -4473.2062   -39664.849     15.23894    13.197309    28.556116    5743.0059 
   51500       51.482    341.79804    14.049515   -438.92548   -424.87596    -12996.25    4687.8304   -2781.4496   -40895.131    15.238942    13.197311    28.556098    5743.0042 
   52000       51.982    347.46303    14.282372   -439.14087    -424.8585    -12414.14    7421.6625   -593.34569   -44070.737    15.238944    13.197313    28.556081    5743.0025 
   52500       52.482     326.0888    13.403791   -438.24484   -424.84105   -12181.301     6434.333   -1495.0735   -41483.163    15.238947    13.197315    28.556063    5743.0007 
   53000       52.982    327.03704    13.442768   -438.26573   -424.82296   -11992.794    7041.2694   -2760.9938   -40258.657    15.238949    13.197317    28.556046     5742.999 
   53500       53.482     329.3799     13.53907   -438.34469   -424.80562   -12195.111    7024.3517   -2035.7579   -41573.926    15.238951    13.197319    28.556028    5742.9972 
   54000       53.982    330.65459    13.591466      -438.38   -424.78853   -13480.593    6786.8056   -2900.4406   -44328.144    15.238954    13.197321    28.556011    5742.9955 
   54500       54.482    338.57484    13.917026   -438.68856   -424.77153   -12020.082    6405.0493   -2300.3385   -40164.958    15.238956    13.197323    28.555993    5742.9938 
   55000       54.982    323.49043    13.296986   -438.05127   -424.75428   -10703.058    9653.8873    -156.6358   -41606.424    15.238958    13.197325    28.555976     5742.992 
   55500       55.482    329.71854     13.55299    -438.2905   -424.73751   -12716.135     6167.482   -1187.3746   -43128.514    15.238961    13.197327    28.555958    5742.9903 
   56000       55.982    338.19398    13.901371   -438.62197    -424.7206   -13569.503    5552.3848   -3402.7715   -42858.124    15.238963     13.19733    28.555941    5742.9885 
   56500       56.482    339.35648    13.949155   -438.65272   -424.70356   -13402.527    6179.6919   -1034.8583   -45352.416    15.238965    13.197332    28.555923    5742.9868 
   57000       56.982    348.16282    14.311137    -438.9981   -424.68696   -13052.283    6416.1023   -2682.8012   -42890.151    15.238968    13.197334    28.555906     5742.985 
   57500       57.482    338.30794    13.906055   -438.57564   -424.66958   -12039.301    6984.0449   -2699.8153   -40402.132     15.23897    13.197336    28.555888    5742.9833 
   58000       57.982    357.85983     14.70973   -439.36327   -424.65354   -12648.603    5628.6908   -2571.0095    -41003.49    15.238973    13.197338    28.555871    5742.9816 
   58500       58.482    347.04219    14.265074   -438.90188    -424.6368   -13222.607    4494.1269   -1659.9988    -42501.95    15.238975     13.19734    28.555853    5742.9798 
   59000       58.982      333.161    13.694492   -438.31425   -424.61976   -12030.152     7461.989     -1465.33   -42087.116    15.238977    13.197342    28.555836    5742.9781 
   59500       59.482    334.40882    13.745783   -438.34934   -424.60356   -11714.711    7763.2316   -1007.4716   -41899.892     15.23898    13.197344    28.555818    5742.9763 
   60000       59.982     344.9105    14.177452   -438.76519   -424.58774   -12733.236     7923.506   -461.17408    -45662.04    15.238982    13.197346    28.555801    5742.9746 
   60500       60.482    331.32227    13.618911   -438.19036   -424.57145   -12438.558    4739.0048   -2402.3088    -39652.37    15.238984    13.197348    28.555783    5742.9729 
   61000       60.982    316.09752    12.993102   -437.54767   -424.55457   -11153.109    10855.549   -1.1193545   -44313.756    15.238987     13.19735    28.555766    5742.9711 
   61500       61.482    361.34677     14.85306   -439.39224   -424.53918   -12947.933    4434.3607   -3689.4395   -39588.721    15.238989    13.197352    28.555748    5742.9694 
   62000       61.982    321.01443     13.19521   -437.71776   -424.52255   -11903.478     7451.998   -1669.0311   -41493.402    15.238991    13.197354    28.555731    5742.9676 
   62500       62.482    333.18915    13.695649   -438.20262   -424.50698   -11959.508    5508.8387   -2379.3054   -39008.058    15.238994    13.197356    28.555713    5742.9659 
   63000       62.982    336.07861    13.814419   -438.30559   -424.49117   -11917.456    8872.2243   -1542.5221   -43082.069    15.238996    13.197358    28.555696    5742.9641 
   63500       63.482    305.44462    12.555217   -437.03017   -424.47496   -11680.358    5653.9587   -752.87085   -39942.163    15.238998     13.19736    28.555678    5742.9624 
   64000       63.982    340.74692    14.006309   -438.46597   -424.45966   -12263.749    6353.0118   -2240.2351   -40904.025    15.239001    13.197362    28.555661    5742.9607 
   64500       64.482    344.70533    14.169018   -438.61268   -424.44366   -12477.448    7190.7485   -4256.7004   -40366.392    15.239003    13.197364    28.555643    5742.9589 
   65000       64.982    330.33809    13.578457   -438.00599   -424.42753   -12449.659    5483.5319    434.80723   -43267.317    15.239005    13.197366    28.555626    5742.9572 
   65500       65.482    356.80592    14.666409   -439.07831    -424.4119   -12840.448    5981.2432   -1267.7832   -43234.803    15.239008    13.197368    28.555608    5742.9554 
   66000       65.982    355.26976    14.603266   -438.99986   -424.39659   -12561.047    6718.9165   -4335.5387   -40066.519     15.23901    13.197371    28.555591    5742.9537 
   66500       66.482    329.05174    13.525582   -437.90603   -424.38045   -11144.561    8123.8245   -1897.3384    -39660.17    15.239012    13.197373    28.555573     5742.952 
   67000       66.982    333.69315    13.716366   -438.08077    -424.3644   -12835.457    5314.1748    -993.9811   -42826.566    15.239015    13.197375    28.555556    5742.9502 
   67500       67.482    342.85389    14.092915   -438.44159   -424.34868   -12708.873    5315.7423   -835.19531   -42607.167    15.239017    13.197377    28.555538    5742.9485 
   68000       67.982    350.02986    14.387882   -438.72143   -424.33354   -13020.714    7479.5611   -4470.1691   -42071.534     15.23902    13.197379    28.555521    5742.9467 
   68500       68.482    336.90712    13.848475   -438.16614   -424.31766   -11096.181    7934.1597   -2095.9589   -39126.745    15.239022    13.197381    28.555503     5742.945 
   69000       68.982    327.49226     13.46148    -437.7634   -424.30192   -12328.527    7232.6466    868.38287   -45086.611    15.239024    13.197383    28.555486    5742.9432 
   69500       69.482    352.42088    14.486164   -438.77248   -424.28631   -12324.683    6819.2608   -1756.4486   -42036.862    15.239027    13.197385    28.555468    5742.9415 
   70000       69.982    345.39775     14.19748   -438.46785   -424.27037   -13009.527    5327.5545    -3424.758   -40931.378    15.239029    13.197387    28.555451    5742.9398 
   70500       70.482    339.30686    13.947116   -438.20179   -424.25468   -12198.929    8272.0482   -1766.9741   -43101.861    15.239031    13.197389    28.555433     5742.938 
   71000       70.982     339.5522      13.9572   -438.19576   -424.23856   -11992.254    7853.5348   -2494.2335   -41336.063    15.239034    13.197391    28.555416    5742.9363 
   71500       71.482    336.39863    13.827574   -438.05061   -424.22304   -12112.028    8103.4786   -4845.5873   -39593.976    15.239036    13.197393    28.555398    5742.9345 
   72000       71.982    354.31312    14.563944   -438.77125    -424.2073   -12575.958    5825.0687   -3388.5705   -40164.371    15.239038    13.197395    28.555381    5742.9328 
   72500       72.482    353.47411    14.529457   -438.72061   -424.19115   -12917.398    7753.3367   -2212.1041   -44293.426    15.239041    13.197397    28.555363    5742.9311 
   73000       72.982    328.70227    13.511217    -437.6864   -424.17519   -11170.609    8084.0667    -367.0184   -41228.875    15.239043    13.197399    28.555346    5742.9293 
   73500       73.482    331.95408    13.644882   -437.80436   -424.15948   -12104.307    6066.1861    -2471.396   -39907.712    15.239045    13.197401    28.555328    5742.9276 
   74000       73.982    354.07984    14.554355   -438.69834   -424.14398    -12402.44    6646.9658   -3624.9265    -40229.36    15.239048    13.197403    28.555311    5742.9258 
   74500       74.482    360.23125    14.807207   -438.93521     -424.128    -13164.27    5104.1901   -1554.3147   -43042.685     15.23905    13.197405    28.555293    5742.9241 
   75000       74.982    338.75768    13.924542   -438.03578   -424.11124   -12312.358    8438.7065   -1989.2099   -43386.571    15.239052    13.197407    28.555276    5742.9223 
   75500       75.482    344.79667    14.172773   -438.26833   -424.09556    -12068.52    7692.1043   -2587.2408   -41310.424    15.239055    13.197409    28.555258    5742.9206 
   76000       75.982    338.07693     13.89656   -437.97617   -424.07961   -12522.152     5779.458   -299.56857   -43046.344    15.239057    13.197412    28.555241    5742.9189 
   76500       76.482    343.28821    14.110768   -438.17434   -424.06357   -11511.358    6961.7788   -1342.7292   -40153.123    15.239059    13.197414    28.555223    5742.9171 
   77000       76.982    358.78515    14.747765   -438.79519   -424.04742   -13046.886    4658.3878   -1671.5541   -42127.492    15.239062    13.197416    28.555206    5742.9154 
   77500       77.482    349.31028    14.358303   -438.38948   -424.03118   -13447.647    7084.3882   -4229.3174   -43198.012    15.239064    13.197418    28.555188    5742.9136 
   78000       77.982    352.96128    14.508377   -438.52335   -424.01497    -12646.02    8538.8358   -2553.3434   -43923.553    15.239067     13.19742    28.555171    5742.9119 
   78500       78.482    355.13229    14.597616   -438.59582    -423.9982   -12206.161    5695.9511   -1188.8611   -41125.572    15.239069    13.197422    28.555153    5742.9101 
   79000       78.982    352.55241     14.49157   -438.47339   -423.98182   -12047.216    6948.8017   -1284.4674   -41805.981    15.239071    13.197424    28.555136    5742.9084 
   79500       79.482     319.6191    13.137856   -437.10245   -423.96459   -10940.869    7178.0908    1542.4371   -41543.134    15.239074    13.197426    28.555118    5742.9067 
   80000       79.982    335.38949    13.786093    -437.7342    -423.9481    -12070.49    5876.4806   -783.77697   -41304.174    15.239076    13.197428    28.555101    5742.9049 
   80500       80.482    353.47405    14.529454   -438.46142   -423.93197   -11599.689    7136.6315   -430.62717   -41505.072    15.239078     13.19743    28.555083    5742.9032 
   81000       80.982    363.86694    14.956651   -438.87198   -423.91533   -12430.823    7826.5456   -2872.1866   -42246.828    15.239081    13.197432    28.555066    5742.9014 
   81500       81.482    368.54028    15.148747   -439.04762   -423.89888   -12483.299    6791.0421   -476.50604   -43764.435    15.239083    13.197434    28.555048    5742.8997 
   82000       81.982     342.8315    14.091995   -437.97351   -423.88152   -10089.221     8498.838   -1315.0839   -37451.416    15.239085    13.197436    28.555031     5742.898 
   82500       82.482    354.95007    14.590125   -438.45501   -423.86488   -12301.107    7878.4564    355.53722   -45137.315    15.239088    13.197438    28.555013    5742.8962 
   83000       82.982    347.57529    14.286987    -438.1348   -423.84782   -12802.781    5576.5503   -1148.5728    -42836.32     15.23909     13.19744    28.554996    5742.8945 
   83500       83.482    349.54383    14.367903   -438.19846   -423.83056   -13019.815     7444.943   -3651.9284   -42852.459    15.239092    13.197442    28.554978    5742.8927 
   84000       83.982    348.11317    14.309097    -438.1224   -423.81331   -11820.873    7956.3167   -2420.5796   -40998.356    15.239095    13.197444    28.554961     5742.891 
   84500       84.482    327.83791    13.475688   -437.27125   -423.79556   -11129.131     9858.405   -425.16561   -42820.634    15.239097    13.197446    28.554943    5742.8892 
   85000       84.982    358.33932     14.72944   -438.50857   -423.77913   -12482.634    6678.0538   -2509.8778   -41616.077    15.239099    13.197448    28.554926    5742.8875 
   85500       85.482    329.30864    13.536141   -437.29724    -423.7611   -10967.319    5886.3738    1712.5927   -40500.924    15.239102     13.19745    28.554908    5742.8858 
   86000       85.982    352.93931    14.507474   -438.25166   -423.74419   -12354.009      7090.53    409.48497   -44562.042    15.239104    13.197453    28.554891     5742.884 
   86500       86.482    358.03617    14.716979   -438.44311   -423.72613   -12771.883    6030.3822   -1428.7085   -42917.323    15.239106    13.197455    28.554873    5742.8823 
   87000       86.982    348.65876    14.331523   -438.03938   -423.70786   -11909.979    7100.4931   -531.40443   -42299.025    15.239109    13.197457    28.554856    5742.8805 
   87500       87.482    316.43428    13.006944   -436.69685    -423.6899   -11347.788    9119.4708   -2506.8529   -40655.983    15.239111    13.197459    28.554838    5742.8788 
   88000       87.982    342.53299    14.079725   -437.75161   -423.67189   -12321.214    9472.4073   -1593.2728   -44842.775    15.239114    13.197461    28.554821    5742.8771 
   88500       88.482     355.1642    14.598927   -438.25332    -423.6544   -12958.317    6200.1567   -2391.1518   -42683.955    15.239116    13.197463    28.554803    5742.8753 
   89000       88.982    353.67927    14.537889   -438.17414   -423.63625   -11660.581    6545.1656   -1596.3497   -39930.559    15.239118    13.197465    28.554786    5742.8736 
   89500       89.482    332.23812    13.656557   -437.27456     -423.618   -12231.073    8050.8015   -1199.1551   -43544.867    15.239121    13.197467    28.554768    5742.8718 
   90000       89.982    348.51664    14.325681   -437.92569   -423.60001   -10757.733    8219.3673   -1431.9367    -39060.63    15.239123    13.197469    28.554751    5742.8701 
   90500       90.482    363.60204    14.945762   -438.52769   -423.58193   -12278.281    6318.8423   -3388.6379   -39765.048    15.239125    13.197471    28.554733    5742.8683 
   91000       90.982    331.73124    13.635722   -437.19818   -423.56246   -12556.428     6365.165   -2310.5643   -41723.884    15.239128    13.197473    28.554716    5742.8666 
   91500       91.482    367.78513    15.117707   -438.66255   -423.54485   -12180.898    6743.1975   -2587.9648   -40697.928     15.23913    13.197475    28.554698    5742.8649 
   92000       91.982    355.39219    14.608299   -438.13423   -423.52593       -12645    5175.0963   -2736.5806   -40373.516    15.239132    13.197477    28.554681    5742.8631 
   92500       92.482    345.85338    14.216208    -437.7239   -423.50769   -11506.554    6877.5784   -1566.6686   -39830.573    15.239135    13.197479    28.554663    5742.8614 
   93000       92.982    372.48894    15.311056   -438.80024   -423.48918   -12306.138     6921.258   -1493.8424   -42345.831    15.239137    13.197481    28.554646    5742.8596 
   93500       93.482    361.54163     14.86107   -438.33155   -423.47048   -11638.393    5416.2799    260.17265   -40591.631    15.239139    13.197483    28.554628    5742.8579 
   94000       93.982    341.43792    14.034712   -437.48617   -423.45146   -10989.642    8882.7236   -379.09479   -41472.555    15.239142    13.197485    28.554611    5742.8562 
   94500       94.482    352.36803    14.483992    -437.9167   -423.43271   -11719.321    7445.7399   -2544.8855   -40058.817    15.239144    13.197487    28.554593    5742.8544 
   95000       94.982    355.98906    14.632833    -438.0464   -423.41356   -11655.787     6902.945   -1060.4046   -40809.902    15.239146    13.197489    28.554576    5742.8527 
   95500       95.482    349.30819    14.358218    -437.7526   -423.39438    -12416.44    8283.1406   -2184.6192   -43347.841    15.239149    13.197491    28.554558    5742.8509 
   96000       95.982    353.89609    14.546802   -437.92113   -423.37433   -12205.155    5837.1601   -2414.9588   -40037.665    15.239151    13.197494    28.554541    5742.8492 
   96500       96.482    339.13225    13.939938   -437.29491   -423.35498   -10915.268    8197.7291     810.3395   -41753.872    15.239153    13.197496    28.554523    5742.8474 
   97000       96.982    373.38132    15.347737   -438.68379   -423.33605   -12189.305    6642.8782   -3432.4724   -39778.322    15.239156    13.197498    28.554506    5742.8457 
   97500       97.482    343.68006    14.126875   -437.44285   -423.31598   -11308.113    7265.7248   -2613.1672   -38576.896    15.239158      13.1975    28.554488     5742.844 
   98000       97.982    382.00515    15.702217   -438.99878   -423.29656    -13275.55    4859.7146    -2587.885    -42098.48    15.239161    13.197502    28.554471    5742.8422 
   98500       98.482      339.203    13.942847    -437.2189   -423.27605   -10967.646     5043.826     1393.923   -39340.687    15.239163    13.197504    28.554453    5742.8405 
   99000       98.982    363.12266    14.926058   -438.18306     -423.257   -11142.706    7977.9024   -531.55707   -40874.462    15.239165    13.197506    28.554436    5742.8387 
   99500       99.482    353.89508     14.54676   -437.78367   -423.23691   -12182.447    6494.8776    1052.0141   -44094.233    15.239168    13.197508    28.554418     5742.837 
  100000       99.982    365.57977    15.027056   -438.24424   -423.21719   -12310.975    6266.2017    234.98472   -43434.111     15.23917     13.19751    28.554401    5742.8352 
  100500      100.482    355.91294    14.629704   -437.82668   -423.19698   -11524.776    7497.9431    317.56326   -42389.834    15.239172    13.197512    28.554383    5742.8335 
  101000      100.982     365.8763    15.039245   -438.21624     -423.177   -13063.786    7019.4865   -608.26841   -45602.576    15.239175    13.197514    28.554366    5742.8318 
  101500      101.482    357.97129    14.714312    -437.8708   -423.15649   -11117.243    7184.7223   -591.45387   -39944.996    15.239177    13.197516    28.554348      5742.83 
  102000      101.982    395.70543    16.265363   -439.40214   -423.13678   -12456.374    6917.6528    -1694.582   -42592.194    15.239179    13.197518    28.554331    5742.8283 
  102500      102.482    366.91346    15.081877   -438.19739   -423.11552   -11810.648    6644.5225   -39.229628   -42037.238    15.239182     13.19752    28.554313    5742.8265 
  103000      102.982    323.77588    13.308719   -436.40302   -423.09431   -11380.523    7332.5257    1798.4095   -43272.504    15.239184    13.197522    28.554296    5742.8248 
  103500      103.482    352.29666    14.481058   -437.55539   -423.07434   -11681.666    5960.7983    -1698.171   -39307.626    15.239186    13.197524    28.554278    5742.8231 
  104000      103.982    363.02987    14.922243   -437.97579   -423.05355    -10909.59    8723.5113   -668.24843   -40784.032    15.239189    13.197526    28.554261    5742.8213 
  104500      104.482    354.46857    14.570334    -437.6029   -423.03257   -10531.535    7141.6651     639.5629   -39375.833    15.239191    13.197528    28.554243    5742.8196 
  105000      104.982    359.76762    14.788149   -437.80037   -423.01222   -12052.472    7856.2131   -547.91204   -43465.718    15.239193     13.19753    28.554226    5742.8178 
  105500      105.482    372.67308    15.318625   -438.30997   -422.99134   -12339.669     6092.112   -856.11506   -42255.005    15.239196    13.197532    28.554208    5742.8161 
  106000      105.982    351.63587    14.453896   -437.42364   -422.96974   -11810.744    7920.9526   -1528.8748    -41824.31    15.239198    13.197535    28.554191    5742.8143 
  106500      106.482     380.8653    15.655364   -438.60477   -422.94941   -12192.082    6538.9217    -2845.686   -40269.481      15.2392    13.197537    28.554173    5742.8126 
  107000      106.982    366.01383    15.044898   -437.97361   -422.92871   -12311.426    7492.6254   -2933.8623   -41493.041    15.239203    13.197539    28.554156    5742.8109 
  107500      107.482    362.54558    14.902337   -437.80924    -422.9069   -12015.473     7716.615   -273.63854   -43489.394    15.239205    13.197541    28.554138    5742.8091 
  108000      107.982    356.72229    14.662972   -437.54865   -422.88568   -11461.723    6295.6207   -850.40711   -39830.383    15.239208    13.197543    28.554121    5742.8074 
  108500      108.482    355.39848    14.608557   -437.47283   -422.86427   -12087.138    6571.7321   -279.25532   -42553.889     15.23921    13.197545    28.554103    5742.8056 
  109000      108.982    364.84281    14.996764   -437.83981   -422.84305    -11736.21     8599.637    -537.7781   -43270.489    15.239212    13.197547    28.554086    5742.8039 
  109500      109.482    365.07466    15.006294   -437.82822   -422.82192   -11594.992    7651.1349    -725.6936   -41710.416    15.239215    13.197549    28.554068    5742.8022 
  110000      109.982     364.1772    14.969404   -437.77025   -422.80084   -12840.339    5608.5005   -550.53919   -43578.977    15.239217    13.197551    28.554051    5742.8004 
  110500      110.482    356.62368    14.658919   -437.43806   -422.77914   -11268.691    7839.1735   -844.90175   -40800.346    15.239219    13.197553    28.554033    5742.7987 
  111000      110.982    365.17522    15.010427   -437.76755   -422.75713   -11255.568    6845.5356    252.76228   -40865.001    15.239222    13.197555    28.554016    5742.7969 
  111500      111.482    353.04159    14.511678    -437.2473   -422.73563   -13104.475    5724.6491   -971.68028   -44066.393    15.239224    13.197557    28.553998    5742.7952 
  112000      111.982    376.01682    15.456068   -438.17046   -422.71439   -10505.629    9111.7398   -428.30742   -40200.318    15.239226    13.197559    28.553981    5742.7934 
  112500      112.482    351.94622    14.466653   -437.15945   -422.69279   -9785.9245    8752.4428    2014.4459   -40124.662    15.239229    13.197561    28.553963    5742.7917 
  113000      112.982    394.15996    16.201837   -438.87333   -422.67149   -12077.905    6744.1554    35.170112   -43013.041    15.239231    13.197563    28.553946      5742.79 
  113500      113.482    367.40202    15.101959   -437.75147   -422.64951   -12552.774    8266.0459   -2642.4084   -43281.961    15.239233    13.197565    28.553928    5742.7882 
  114000      113.982     368.5002      15.1471   -437.77436   -422.62726   -11212.483    7149.1264   -1614.6979   -39171.876    15.239236    13.197567    28.553911    5742.7865 
  114500      114.482    368.17504    15.133734   -437.73918   -422.60544   -11469.971     7774.741    358.90741   -42543.562    15.239238    13.197569    28.553893    5742.7847 
  115000      114.982    363.81733    14.954612    -437.5377   -422.58309   -11322.743      8261.87   -1651.2849   -40578.813     15.23924    13.197571    28.553876     5742.783 
  115500      115.482    351.18265    14.435267    -436.9964   -422.56114    -11109.08     7719.921   -539.16742   -40507.995    15.239243    13.197573    28.553858    5742.7812 
  116000      115.982    364.81968    14.995813   -437.53509   -422.53927   -11834.634     8560.434   -1587.5447    -42476.79    15.239245    13.197576    28.553841    5742.7795 
  116500      116.482    351.61278    14.452947   -436.96988   -422.51693   -10564.254    9925.5164    750.13997   -42368.419    15.239247    13.197578    28.553823    5742.7778 
  117000      116.982    379.73908    15.609071   -438.10421   -422.49514   -11152.092    5331.0094    1053.2356   -39840.521     15.23925     13.19758    28.553806     5742.776 
  117500      117.482    380.89862    15.656734   -438.12979   -422.47305   -11869.283    4541.3514   -1429.7432   -38719.456    15.239252    13.197582    28.553788    5742.7743 
  118000      117.982    360.36057    14.812523   -437.26265   -422.45013   -12101.377    8569.6098   -950.70179   -43923.038    15.239255    13.197584    28.553771    5742.7725 
  118500      118.482    377.63663     15.52265   -437.95087   -422.42821   -12128.209    7065.2759   -2849.4307   -40600.473    15.239257    13.197586    28.553753    5742.7708 
  119000      118.982      374.369    15.388335   -437.79414    -422.4058   -11217.963    7819.2449   -24.422727   -41448.713    15.239259    13.197588    28.553736    5742.7691 
  119500      119.482    379.66507    15.606029   -437.98937   -422.38334   -11697.846    7201.6822    -201.8163   -42093.403    15.239262     13.19759    28.553718    5742.7673 
  120000      119.982      370.632    15.234727   -437.59561   -422.36088   -12477.437    5298.4981   -1913.0524   -40817.758    15.239264    13.197592    28.553701    5742.7656 
  120500      120.482    361.94172    14.877515    -437.2159   -422.33839    -11641.77     9100.125   -243.51929   -43781.916    15.239266    13.197594    28.553683    5742.7638 
  121000      120.982    382.72465    15.731792   -438.04781   -422.31602   -12082.725    7214.9164   -1857.2791   -41605.812    15.239269    13.197596    28.553666    5742.7621 
  121500      121.482    369.35173    15.182102   -437.47514   -422.29304    -12375.47    5948.2067   -3484.6151   -39590.001    15.239271    13.197598    28.553648    5742.7603 
  122000      121.982    362.88173    14.916154   -437.18643   -422.27028    -11769.33    6840.7762    1865.5934   -44014.359    15.239273      13.1976    28.553631    5742.7586 
  122500      122.482    358.27914    14.726966   -436.97452   -422.24755   -11004.596    7110.0685   -599.79006   -39524.068    15.239276    13.197602    28.553613    5742.7569 
  123000      122.982    387.25897    15.918174   -438.14349   -422.22531    -11644.55    6189.5958   -3808.3703   -37314.875    15.239278    13.197604    28.553596    5742.7551 
  123500      123.482    393.82829    16.188204   -438.39055   -422.20235   -12574.071     8353.365   -856.38655   -45219.192     15.23928    13.197606    28.553578    5742.7534 
  124000      123.982    374.64023    15.399484   -437.57886   -422.17938   -11174.716    6076.2771    930.52193   -40530.947    15.239283    13.197608    28.553561    5742.7516 
  124500      124.482     356.9453    14.672139   -436.82833   -422.15619   -11059.143    8026.6011   -2655.3958   -38548.634    15.239285     13.19761    28.553543    5742.7499 
  125000      124.982    348.11695    14.309252   -436.44161   -422.13236   -11323.807    5533.3846    1268.5704   -40773.377    15.239287    13.197612    28.553526    5742.7481 
  125500      125.482     373.5182    15.353363   -437.46321   -422.10985   -12547.301    6084.5313   -544.07816   -43182.357     15.23929    13.197614    28.553508    5742.7464 
  126000      125.982     371.6682     15.27732   -437.36519   -422.08787   -12140.084     5550.794    -2438.865   -39532.181    15.239292    13.197617    28.553491    5742.7447 
  126500      126.482    373.48325    15.351927   -437.41627   -422.06435   -11310.839    8603.1653   -2938.5199   -39597.163    15.239294    13.197619    28.553473    5742.7429 
  127000      126.982    353.26417    14.520827   -436.56238   -422.04155   -11050.097     8093.771   -2160.2832   -39083.779    15.239297    13.197621    28.553456    5742.7412 
  127500      127.482    356.57001    14.656713   -436.67482   -422.01811   -11110.073    6863.3271   -1499.4593   -38694.087    15.239299    13.197623    28.553438    5742.7394 
  128000      127.982    366.77821    15.076318   -437.07151   -421.99519   -10783.836    8556.1771   -1604.9674   -39302.719    15.239302    13.197625    28.553421    5742.7377 
  128500      128.482    366.05855    15.046736   -437.01868   -421.97194   -11194.024    8739.2948   -358.08017   -41963.288    15.239304    13.197627    28.553403     5742.736 
  129000      128.982    387.57636     15.93122   -437.88037   -421.94915   -13292.746    5677.1485   -304.76204   -45250.623    15.239306    13.197629    28.553386    5742.7342 
  129500      129.482    368.30241     15.13897   -437.06487    -421.9259   -10879.274     7693.402   -701.29198   -39629.931    15.239309    13.197631    28.553368    5742.7325 
  130000      129.982    400.38348    16.457653   -438.36105   -421.90339   -10961.285    6241.9221   -1642.5928   -37483.183    15.239311    13.197633    28.553351    5742.7307 
  130500      130.482      359.593    14.780972   -436.66071   -421.87974   -11777.592    6379.2564   -438.91607   -41273.117    15.239313    13.197635    28.553333     5742.729 
  131000      130.982    372.35236    15.305442   -437.16206   -421.85662   -11511.878     7285.483   -4960.2044   -36860.912    15.239316    13.197637    28.553316    5742.7272 
  131500      131.482    375.29378    15.426348   -437.25857   -421.83222   -11593.133    5950.8219   -1807.2984   -38922.923    15.239318    13.197639    28.553298    5742.7255 
  132000      131.982    354.25997    14.561759   -436.37077   -421.80901   -10768.698    8179.9299    156.05414   -40642.077     15.23932    13.197641    28.553281    5742.7238 
  132500      132.482     377.9307    15.534738   -437.32056   -421.78582   -10426.346    8058.5301    682.83719   -40020.404    15.239323    13.197643    28.553263     5742.722 
  133000      132.982    378.91869    15.575349    -437.3377   -421.76236   -11133.866    6115.9619    431.03954     -39948.6    15.239325    13.197645    28.553246    5742.7203 
  133500      133.482    373.15783     15.33855   -437.07757   -421.73902   -9733.3914    10525.678    1666.6799   -41392.532    15.239327    13.197647    28.553228    5742.7185 
  134000      133.982    374.12605    15.378349   -437.09392   -421.71557   -10222.165    9911.4234   -910.14536   -39667.774     15.23933    13.197649    28.553211    5742.7168 
  134500      134.482    376.67713     15.48321   -437.17551    -421.6923   -10668.166    8265.1523   -492.23671   -39777.412    15.239332    13.197651    28.553193     5742.715 
  135000      134.982    371.43024    15.267538   -436.93572   -421.66818   -11960.018    6982.3041     2036.038   -44898.395    15.239334    13.197653    28.553176    5742.7133 
  135500      135.482    383.30874    15.755801   -437.40018   -421.64438   -11993.498    7155.7563    -869.3651   -42266.885    15.239337    13.197655    28.553158    5742.7116 
  136000      135.982    392.69293    16.141535   -437.76364   -421.62211   -11186.924    8703.4101   -1907.2933   -40356.889    15.239339    13.197658    28.553141    5742.7098 
  136500      136.482    390.26383    16.041688   -437.63929    -421.5976   -11237.111    5607.7956   -2027.6952   -37291.432    15.239341     13.19766    28.553123    5742.7081 
  137000      136.982    396.46053    16.296401   -437.87097   -421.57457   -12846.937    5798.6003   -2640.7356   -41698.677    15.239344    13.197662    28.553106    5742.7063 
  137500      137.482    373.23712     15.34181   -436.89155   -421.54974   -11187.791    6900.7837    933.81109   -41397.968    15.239346    13.197664    28.553088    5742.7046 
  138000      137.982    382.01518     15.70263    -437.2287   -421.52607   -11080.234    8643.9859   -1609.9987   -40274.689    15.239349    13.197666    28.553071    5742.7029 
  138500      138.482    387.11014    15.912056   -437.41467   -421.50262   -11005.108    9077.6536   -2332.1409   -39760.836    15.239351    13.197668    28.553053    5742.7011 
  139000      138.982    342.38066    14.073463   -435.55163   -421.47817   -10871.741    11728.769   -2871.3679   -41472.623    15.239353     13.19767    28.553036    5742.6994 
  139500      139.482    374.86153    15.408581   -436.86372   -421.45514   -10996.311    7988.6666   -2301.7319   -38675.869    15.239356    13.197672    28.553018    5742.6976 
  140000      139.982    391.18528    16.079564   -437.51093   -421.43137    -10736.73    7691.4138     2746.369   -42647.972    15.239358    13.197674    28.553001    5742.6959 
  140500      140.482    374.59007    15.397422   -436.80554   -421.40812   -11394.829    8936.1245   -2359.7837   -40760.828     15.23936    13.197676    28.552983    5742.6941 
  141000      140.982    374.75485    15.404196     -436.788   -421.38381   -11517.317    8468.6267   -2770.9051   -40249.672    15.239363    13.197678    28.552966    5742.6924 
  141500      141.482    348.45542    14.323164   -435.68248   -421.35931    -9350.162    9515.7633    -128.7703   -37437.479    15.239365     13.19768    28.552948    5742.6907 
  142000      141.982    397.17767    16.325879   -437.66177   -421.33589    -11474.97    7535.4348    244.78906   -42205.135    15.239367    13.197682    28.552931    5742.6889 
  142500      142.482    400.44754    16.460286   -437.77269    -421.3124   -11110.759    8035.5012   -181.06703   -41186.711     15.23937    13.197684    28.552913    5742.6872 
  143000      142.982    368.76551    15.158005   -436.44604   -421.28803   -11766.965     6615.881   -1904.1664    -40012.61    15.239372    13.197686    28.552896    5742.6854 
  143500      143.482    394.39318    16.211424    -437.4754   -421.26397   -10356.027    6610.6198   -123.40414   -37555.297    15.239374    13.197688    28.552878    5742.6837 
  144000      143.982    387.04685    15.909455   -437.14955    -421.2401   -11001.042    9651.6671    -134.8561   -42519.938    15.239377     13.19769    28.552861    5742.6819 
  144500      144.482    369.10797    15.172082   -436.38787   -421.21579   -10746.039     9411.431    -260.9224   -41388.625    15.239379    13.197692    28.552843    5742.6802 
  145000      144.982    403.42749    16.582776   -437.77515   -421.19237   -11406.252     7782.889    486.57833   -42488.222    15.239381    13.197694    28.552826    5742.6785 
  145500      145.482     375.7351    15.444488   -436.61199    -421.1675   -10933.756    6324.7005    1457.2198   -40583.188    15.239384    13.197696    28.552808    5742.6767 
  146000      145.982    405.22187    16.656534   -437.80049   -421.14396   -10996.449    8719.3902   -1014.6442   -40694.094    15.239386    13.197699    28.552791     5742.675 
  146500      146.482    411.77765    16.926008   -438.04594   -421.11993   -11289.334    6445.2595   -1280.9452   -39032.315    15.239388    13.197701    28.552773    5742.6732 
  147000      146.982    386.76853    15.898014   -436.99313   -421.09512   -9553.3768    11733.244    3567.0012   -43960.376    15.239391    13.197703    28.552756    5742.6715 
  147500      147.482    396.45589    16.296211   -437.36684   -421.07063   -11785.363    7596.4913   -1040.7468   -41911.833    15.239393    13.197705    28.552738    5742.6698 
  148000      147.982    390.11209    16.035451   -437.08255    -421.0471   -11234.589    6236.1312   -197.82781   -39742.071    15.239396    13.197707    28.552721     5742.668 
  148500      148.482    372.21882    15.299953   -436.32224   -421.02229   -10909.393    7265.8698    971.46211   -40965.511    15.239398    13.197709    28.552703    5742.6663 
  149000      148.982    386.14159    15.872244   -436.87038   -420.99814    -10993.98    6139.4361     52.87337   -39174.251      15.2394    13.197711    28.552686    5742.6645 
  149500      149.482    369.49074    15.187815   -436.16135   -420.97353   -10669.608    7682.3446    1586.6871   -41277.855    15.239403    13.197713    28.552668    5742.6628 
  150000      149.982    395.26048    16.247074   -437.19648   -420.94941   -12206.898    9165.2313   -3720.9355   -42064.989    15.239405    13.197715    28.552651     5742.661 
  150500      150.482    393.63275    16.180166   -437.10626    -420.9261   -11953.481    9735.6508   -453.34495   -45142.748    15.239407    13.197717    28.552633    5742.6593 
  151000      150.982    377.47578    15.516039   -436.41718   -420.90114   -11250.167    7691.3139   -1558.2306   -39883.585     15.23941    13.197719    28.552616    5742.6576 
  151500      151.482    388.35207    15.963106   -436.84004   -420.87694   -9542.2488    11117.249    -660.0849   -39083.911    15.239412    13.197721    28.552598    5742.6558 
  152000      151.982    416.26679    17.110532   -437.96306   -420.85253   -12305.427     7596.227   -1389.7232   -43122.785    15.239414    13.197723    28.552581    5742.6541 
  152500      152.482    386.39291    15.882575   -436.71007    -420.8275    -11365.16     9149.795    2994.5571   -46239.832    15.239417    13.197725    28.552563    5742.6523 
  153000      152.982    409.97953    16.852096   -437.65465   -420.80255   -11796.641    6867.5747   -1403.1562   -40854.341    15.239419    13.197727    28.552546    5742.6506 
  153500      153.482    391.96056    16.111432   -436.88965   -420.77822   -11755.443    7750.0717   -1155.0403    -41861.36    15.239421    13.197729    28.552528    5742.6488 
  154000      153.982    388.45162    15.967198   -436.72029   -420.75309   -9988.3075    7928.2038   -959.91637    -36933.21    15.239424    13.197731    28.552511    5742.6471 
  154500      154.482      394.992    16.236038   -436.96417   -420.72813   -11236.747    9135.4609   -635.24164   -42210.461    15.239426    13.197733    28.552493    5742.6454 
  155000      154.982    405.21895    16.656414   -437.36026   -420.70385   -11998.987    8026.3956   -710.20251   -43313.153    15.239428    13.197735    28.552476    5742.6436 
  155500      155.482    392.34127    16.127081   -436.80718    -420.6801   -10872.964    8773.2748    1698.9001   -43091.066    15.239431    13.197737    28.552458    5742.6419 
  156000      155.982    394.30855    16.207945   -436.86258   -420.65464   -11301.654    8630.9168    508.34214   -43044.221    15.239433     13.19774    28.552441    5742.6401 
  156500      156.482     405.7884    16.679821   -437.30966   -420.62984   -10989.563    8904.3683    1059.1918    -42932.25    15.239435    13.197742    28.552423    5742.6384 
  157000      156.982    363.79117    14.953536   -435.55839   -420.60486   -10678.946    7536.5138    82.993053   -39656.345    15.239438    13.197744    28.552406    5742.6367 
  157500      157.482     396.7697     16.30911    -436.8898   -420.58069   -11644.153    8134.0471   -2421.7273   -40644.778     15.23944    13.197746    28.552388    5742.6349 
  158000      157.982      399.485    16.420722   -436.97653   -420.55581   -10136.701    10892.701       1002.3   -42305.103    15.239443    13.197748    28.552371    5742.6332 
  158500      158.482    402.19087    16.531945   -437.06274    -420.5308   -9931.5882    9235.4272    188.46092   -39218.653    15.239445     13.19775    28.552353    5742.6314 
  159000      158.982    374.39724    15.389496   -435.89575   -420.50626   -10524.896    8644.8946    184.11751   -40403.701    15.239447    13.197752    28.552336    5742.6297 
  159500      159.482    395.54666    16.258837   -436.73991   -420.48108    -10828.36    6234.0225   -646.68139   -38072.421     15.23945    13.197754    28.552318    5742.6279 
  160000      159.982    396.74773    16.308207   -436.76506   -420.45685   -10412.072    8987.1999   -343.06292   -39880.352    15.239452    13.197756    28.552301    5742.6262 
  160500      160.482    389.61062    16.014838    -436.4463   -420.43146   -10223.663    9488.9147    1483.9812   -41643.885    15.239454    13.197758    28.552283    5742.6245 
  161000      160.982    389.37902    16.005318   -436.41158   -420.40627   -10764.091     9295.986    881.17125   -42469.431    15.239457     13.19776    28.552266    5742.6227 
  161500      161.482     386.3358    15.880227    -436.2621   -420.38188   -10434.686    6469.7397     1554.735   -39328.533    15.239459    13.197762    28.552248     5742.621 
  162000      161.982     407.3558    16.744249    -437.1011   -420.35685   -10888.844    9721.6137   -799.48615    -41588.66    15.239461    13.197764    28.552231    5742.6192 
  162500      162.482    398.09205    16.363465   -436.69521   -420.33174   -10596.879     9380.794   -1035.7592   -40135.671    15.239464    13.197766    28.552213    5742.6175 
  163000      162.982    414.67092    17.044935   -437.35297   -420.30804   -11459.127    7999.7699   -2897.9491   -39479.202    15.239466    13.197768    28.552196    5742.6157 
  163500      163.482    391.37629    16.087415   -436.36877   -420.28136   -10226.099    8862.2243   -134.76718   -39405.754    15.239468     13.19777    28.552178     5742.614 
  164000      163.982      389.959    16.029158   -436.28599   -420.25683   -10010.202    8209.2177    1936.2558   -40176.079    15.239471    13.197772    28.552161    5742.6123 
  164500      164.482    371.89837    15.286781   -435.51814   -420.23136   -9766.0926    9592.1698    1427.6628    -40318.11    15.239473    13.197774    28.552143    5742.6105 
  165000      164.982    389.33363    16.003452   -436.21024   -420.20679   -10870.041    8016.5365   -446.95898     -40179.7    15.239475    13.197776    28.552126    5742.6088 
  165500      165.482    407.64927    16.756311   -436.93833   -420.18202   -9768.8291    8941.9569   -117.81252   -38130.632    15.239478    13.197778    28.552108     5742.607 
  166000      165.982    390.89794    16.067753   -436.22434   -420.15659   -9962.1587    8724.1981    3128.4156    -41739.09     15.23948    13.197781    28.552091    5742.6053 
  166500      166.482    410.54798    16.875462   -437.00699   -420.13152    -10180.62    10362.458    872.23293   -41776.552    15.239482    13.197783    28.552073    5742.6036 
  167000      166.982    417.35022    17.155066   -437.26227   -420.10721   -11951.294    7807.1299   -2165.7765   -41495.236    15.239485    13.197785    28.552056    5742.6018 
  167500      167.482    376.96054     15.49486    -435.5753   -420.08044   -9802.9817    7162.2836    793.06471   -37364.293    15.239487    13.197787    28.552038    5742.6001 
  168000      167.982    400.89191    16.478552   -436.53495    -420.0564   -10270.052    8944.9812    552.55311   -40307.689     15.23949    13.197789    28.552021    5742.5983 
  168500      168.482    410.30237    16.865367   -436.89624   -420.03087   -9770.1679    9533.4822     1293.278   -40137.264    15.239492    13.197791    28.552003    5742.5966 
  169000      168.982     401.6255    16.508706   -436.51448   -420.00577   -10295.137    7606.0451    561.80461    -39053.26    15.239494    13.197793    28.551986    5742.5948 
  169500      169.482    408.18277    16.778241   -436.75856   -419.98032   -10822.905    9337.5529    -1874.402   -39931.867    15.239497    13.197795    28.551968    5742.5931 
  170000      169.982    381.02883    15.662086   -435.61685   -419.95476   -10074.749    9952.2407    78.906842   -40255.396    15.239499    13.197797    28.551951    5742.5914 
  170500      170.482    407.37465    16.745024   -436.67481   -419.92978    -10858.49    9271.3896   -1198.5585   -40648.302    15.239501    13.197799    28.551933    5742.5896 
  171000      170.982    414.40642    17.034062   -436.93861   -419.90455   -10757.682    5117.0711    1479.5878   -38869.704    15.239504    13.197801    28.551916    5742.5879 
  171500      171.482     389.2185     15.99872   -435.87725   -419.87853    -9450.507    9600.5442    1263.3126   -39215.378    15.239506    13.197803    28.551898    5742.5861 
  172000      171.982    398.82193    16.393466   -436.24726    -419.8538    -10169.55    10128.136   -675.98197   -39960.804    15.239508    13.197805    28.551881    5742.5844 
  172500      172.482    403.53332    16.587126   -436.41538   -419.82825   -10127.305    7839.5852     4289.666   -42511.166    15.239511    13.197807    28.551863    5742.5826 
  173000      172.982    393.07353     16.15718   -435.95998    -419.8028   -8854.4177     9474.945     2774.258   -38812.456    15.239513    13.197809    28.551846    5742.5809 
  173500      173.482    395.10538    16.240698   -436.01741   -419.77672   -9912.9615    8365.8548   -519.13713   -37585.602    15.239515    13.197811    28.551828    5742.5792 
  174000      173.982    396.84192    16.312079   -436.06418    -419.7521   -9794.7907     8590.445   -585.07759   -37389.739    15.239518    13.197813    28.551811    5742.5774 
  174500      174.482    395.08848    16.240004   -435.96596   -419.72595   -9923.1232     7298.867    1349.4719   -38417.709     15.23952    13.197815    28.551793    5742.5757 
  175000      174.982    418.63174    17.207743   -436.90821   -419.70047   -10621.844    7083.6266   -14.264087   -38934.893    15.239522    13.197817    28.551776    5742.5739 
  175500      175.482     414.6213    17.042895   -436.71827   -419.67538   -10572.169    7654.4998    1280.3493   -40651.357    15.239525    13.197819    28.551758    5742.5722 
  176000      175.982    418.77764     17.21374   -436.86337   -419.64963   -10691.134    6021.3535     595.2073   -38689.963    15.239527    13.197822    28.551741    5742.5705 
  176500      176.482    405.48195    16.667224   -436.29134   -419.62412   -10286.218    7785.0774    1737.2757   -40381.006    15.239529    13.197824    28.551723    5742.5687 
  177000      176.982    418.32109    17.194974   -436.79374   -419.59876   -11429.376    7407.5644     1314.787   -43010.478    15.239532    13.197826    28.551706     5742.567 
  177500      177.482    402.83871    16.558575   -436.13201   -419.57343    -10266.47    7929.2916    446.49228   -39175.194    15.239534    13.197828    28.551688    5742.5652 
  178000      177.982    394.93882    16.233852   -435.78152   -419.54767   -9369.7374    6317.0979    1270.5917   -35696.902    15.239537     13.19783    28.551671    5742.5635 
  178500      178.482    390.03216    16.032165   -435.55368   -419.52152   -10232.382    9178.2086     1303.459   -41178.815    15.239539    13.197832    28.551653    5742.5617 
  179000      178.982    400.94754    16.480839   -435.97675   -419.49591   -10125.472    8935.8763    1381.5275    -40693.82    15.239541    13.197834    28.551636      5742.56 
  179500      179.482    403.47294    16.584645   -436.05465      -419.47    -9385.111     9973.161    1778.2608   -39906.755    15.239544    13.197836    28.551618    5742.5583 
  180000      179.982    419.15041    17.229063   -436.67393   -419.44486   -10603.813    6318.3642    1816.8106   -39946.614    15.239546    13.197838    28.551601    5742.5565 
  180500      180.482    406.44017    16.706612    -436.1255   -419.41889   -9879.9863    9019.8761   -1624.1137   -37035.721    15.239548     13.19784    28.551583    5742.5548 
  181000      180.982     431.8298    17.750246   -437.14398   -419.39374   -10259.145    8225.5092    950.29319   -39953.237    15.239551    13.197842    28.551566     5742.553 
  181500      181.482    381.27047    15.672018    -435.0388   -419.36678   -9359.3575    9840.0543    441.16194   -38359.289    15.239553    13.197844    28.551548    5742.5513 
  182000      181.982    417.10728    17.145081   -436.48691   -419.34183   -10957.801    8417.1066    253.85148   -41544.361    15.239555    13.197846    28.551531    5742.5495 
  182500      182.482    413.33253     16.98992   -436.30578   -419.31586   -10928.516    9092.1582    370.25531   -42247.963    15.239558    13.197848    28.551513    5742.5478 
  183000      182.982    388.06714    15.951393   -435.24127   -419.28988   -9842.3137    10568.883   -40.990232   -40054.833     15.23956     13.19785    28.551496    5742.5461 
  183500      183.482    385.57673    15.849026   -435.11317   -419.26414     -10347.8    6996.1935    4010.7203   -42050.315    15.239562    13.197852    28.551478    5742.5443 
  184000      183.982     418.5522    17.204474   -436.44287   -419.23839   -10007.456    11321.602   -4175.5188    -37168.45    15.239565    13.197854    28.551461    5742.5426 
  184500      184.482    422.78448     17.37844    -436.5908   -419.21236   -8945.3871    10556.521   -252.66886   -37140.014    15.239567    13.197856    28.551443    5742.5408 
  185000      184.982    388.64516    15.975153   -435.16087   -419.18572   -8050.3504    11200.257    1373.9725   -36725.281    15.239569    13.197858    28.551426    5742.5391 
  185500      185.482    392.21743     16.12199   -435.28184   -419.15985   -10424.555    6667.2628    1759.0627   -39699.992    15.239572     13.19786    28.551408    5742.5373 
  186000      185.982    421.57599    17.328766   -436.46284   -419.13408   -10021.951    8666.0197   -271.24672   -38460.626    15.239574    13.197863    28.551391    5742.5356 
  186500      186.482    406.75815    16.719682   -435.82707   -419.10739   -9695.4973    10280.327    2440.6674   -41807.486    15.239576    13.197865    28.551373    5742.5339 
  187000      186.982    414.95666     17.05668   -436.13882   -419.08214   -9891.5767    7263.4993    3249.6461   -40187.875    15.239579    13.197867    28.551356    5742.5321 
  187500      187.482     388.6994    15.977382   -435.03255   -419.05517   -9467.1685    9670.4286   -289.20654   -37782.728    15.239581    13.197869    28.551338    5742.5304 
  188000      187.982     422.5301    17.367984   -436.39785   -419.02986   -10251.309    10340.249   -379.35303   -40714.824    15.239584    13.197871    28.551321    5742.5286 
  188500      188.482    436.52038    17.943051   -436.94611   -419.00306   -10185.374    9396.4884    2865.4033   -42818.014    15.239586    13.197873    28.551303    5742.5269 
  189000      188.982    411.36655    16.909109   -435.88541    -418.9763   -9663.9219     9746.895    1671.4273   -40410.088    15.239588    13.197875    28.551286    5742.5252 
  189500      189.482    384.61068    15.809317   -434.75888   -418.94956    -9712.868    6895.1853    4794.5493   -40828.339    15.239591    13.197877    28.551268    5742.5234 
  190000      189.982    409.45561    16.830561   -435.75453   -418.92397   -10477.638    9808.6425   -878.52133   -40363.036    15.239593    13.197879    28.551251    5742.5217 
  190500      190.482    397.33103    16.332183   -435.22957   -418.89739   -9546.4038    7664.7788   -1228.8705    -35075.12    15.239595    13.197881    28.551233    5742.5199 
  191000      190.982    414.99441    17.058232   -435.92874    -418.8705   -9921.5768    8838.0532    1442.5575   -40045.341    15.239598    13.197883    28.551216    5742.5182 
  191500      191.482    414.05433     17.01959   -435.86336   -418.84377   -10937.709    9184.9077    -202.3171   -41795.716      15.2396    13.197885    28.551198    5742.5164 
  192000      191.982     438.9129    18.041395   -436.85989    -418.8185   -10690.355    10700.714   -1377.2507   -41394.527    15.239602    13.197887    28.551181    5742.5147 
  192500      192.482    410.28009    16.864451   -435.65508   -418.79063   -9409.3892    10768.376    2022.6752   -41019.219    15.239605    13.197889    28.551163     5742.513 
  193000      192.982    419.97063    17.262778   -436.02747   -418.76469   -9838.3195    7483.1135    1100.8576    -38098.93    15.239607    13.197891    28.551146    5742.5112 
  193500      193.482     384.7496    15.815027    -434.5528   -418.73777   -8230.9171    10691.568    4194.8339   -39579.153    15.239609    13.197893    28.551128    5742.5095 
  194000      193.982     407.1134    16.734285   -435.44676   -418.71248   -9277.0468    10702.463    -328.7709   -38204.833    15.239612    13.197895    28.551111    5742.5077 
  194500      194.482    407.46234    16.748628   -435.43406   -418.68543   -9054.3995    7124.5549    3721.0654   -38008.819    15.239614    13.197897    28.551093     5742.506 
  195000      194.982    393.77956    16.186201   -434.84478   -418.65858   -8165.8807    12099.541    2649.2962   -39246.479    15.239616    13.197899    28.551076    5742.5042 
  195500      195.482    424.40872    17.445204   -436.07791   -418.63271   -10132.035     6748.261     178.9961   -37323.361    15.239619    13.197901    28.551058    5742.5025 
  196000      195.982    440.18337    18.093617   -436.70087   -418.60725   -11094.166    6612.1958    639.60907   -40534.303    15.239621    13.197904    28.551041    5742.5008 
  196500      196.482    407.82687    16.763612   -435.34365   -418.58003   -8935.9048    7995.7381     4414.784   -39218.236    15.239623    13.197906    28.551023     5742.499 
  197000      196.982     402.0291    16.525296   -435.07828   -418.55298   -10907.572    9658.0435    388.10418   -42768.863    15.239626    13.197908    28.551006    5742.4973 
  197500      197.482    408.32348    16.784025    -435.3104   -418.52638     -8367.93    11895.237    2505.2386   -39504.265    15.239628     13.19791    28.550988    5742.4955 
  198000      197.982    400.62876    16.467735   -434.96725   -418.49951   -9100.9627    11005.833    1405.5532   -39714.274    15.239631    13.197912    28.550971    5742.4938 
  198500      198.482    400.94506    16.480737   -434.95382   -418.47308    -10052.48    10197.671     1760.228   -42115.339    15.239633    13.197914    28.550953     5742.492 
  199000      198.982    415.26259    17.069255   -435.51607   -418.44681   -10467.563    7574.6553   -314.18091   -38663.163    15.239635    13.197916    28.550936    5742.4903 
  199500      199.482    443.64231    18.235796   -436.65672   -418.42092   -10052.634    10476.268    1325.9573   -41960.127    15.239638    13.197918    28.550918    5742.4886 
  200000      199.982    433.83488    17.832664   -436.22634   -418.39367   -10629.639    8225.7911    1147.5609   -41262.268     15.23964     13.19792    28.550901    5742.4868 
  200500      200.482    428.29995    17.605152   -435.97208   -418.36693   -10938.718    8613.9303    1390.9731   -42821.058    15.239642    13.197922    28.550883    5742.4851 
  201000      200.982    421.93588    17.343559   -435.68369   -418.34013   -10824.951    7399.9703   -415.56917   -39459.254    15.239645    13.197924    28.550866    5742.4833 
  201500      201.482     395.5578    16.259295   -434.57193   -418.31264   -8267.2112    10113.261    2218.6651    -37133.56    15.239647    13.197926    28.550848    5742.4816 
  202000      201.982     434.5154    17.860637   -436.14764   -418.28701    -10242.76    7329.7367    174.90138   -38232.919    15.239649    13.197928    28.550831    5742.4799 
  202500      202.482    415.19507     17.06648   -435.32622   -418.25974   -9501.5461    12140.147    365.69681   -41010.483    15.239652     13.19793    28.550813    5742.4781 
  203000      202.982    411.70086    16.922851   -435.15613   -418.23328   -9117.9717    10438.745    1574.4609   -39367.121    15.239654    13.197932    28.550796    5742.4764 
  203500      203.482    420.15121      17.2702   -435.47624   -418.20603   -8770.5158    8922.8674    1756.7349    -36991.15    15.239656    13.197934    28.550778    5742.4746 
  204000      203.982    421.70319    17.333994   -435.51338   -418.17938    -8958.051    8890.3225    -486.1776   -35278.298    15.239659    13.197936    28.550761    5742.4729 
  204500      204.482    418.38767    17.197711    -435.3501   -418.15239   -10640.622    8276.1161    406.12554   -40604.108    15.239661    13.197938    28.550743    5742.4711 
  205000      204.982    446.30059    18.345064   -436.47137   -418.12631   -11345.442    9330.6989   -2777.7436   -40589.282    15.239663     13.19794    28.550726    5742.4694 
  205500      205.482    432.00294    17.757363   -435.85618   -418.09882   -9521.4872    8733.9238     790.9043    -38089.29    15.239666    13.197942    28.550708    5742.4677 
  206000      205.982    430.44028     17.69313   -435.76511   -418.07198   -9112.3568    11173.797     1205.112   -39715.979    15.239668    13.197945    28.550691    5742.4659 
  206500      206.482    444.16078    18.257107   -436.30192   -418.04481   -10802.051    5976.0508   -1901.1048   -36481.098     15.23967    13.197947    28.550673    5742.4642 
  207000      206.982    414.03721    17.018886   -435.03698   -418.01809   -9013.2354    9527.1439    3487.9757   -40054.826    15.239673    13.197949    28.550656    5742.4624 
  207500      207.482    436.69012    17.950028   -435.94158   -417.99155   -9762.8444    9757.8242    1997.8974   -41044.255    15.239675    13.197951    28.550638    5742.4607 
  208000      207.982    433.46795    17.817581   -435.78173   -417.96415   -9707.3857    10263.855    2076.4044   -41462.416    15.239678    13.197953    28.550621    5742.4589 
  208500      208.482    430.15997    17.681608   -435.61947   -417.93787   -11166.084    7943.9998   -860.26801   -40581.982     15.23968    13.197955    28.550603    5742.4572 
  209000      208.982    410.29665    16.865132   -434.77479   -417.90966   -9657.4341    9194.9227    763.49959   -38930.725    15.239682    13.197957    28.550586    5742.4555 
  209500      209.482    425.19031    17.477331   -435.36097   -417.88364   -10146.599    6488.2334   -842.50158   -36085.529    15.239685    13.197959    28.550568    5742.4537 
  210000      209.982    424.73393    17.458572   -435.31469   -417.85612   -8714.0238    13084.376   -145.48605   -39080.961    15.239687    13.197961    28.550551     5742.452 
  210500      210.482    432.29256    17.769267   -435.59873   -417.82946   -10401.912    8088.5332    -1136.285   -38157.984    15.239689    13.197963    28.550533    5742.4502 
  211000      210.982     413.4977     16.99671   -434.79905   -417.80234   -9849.8811    10475.075    2894.1801   -42918.898    15.239692    13.197965    28.550516    5742.4485 
  211500      211.482    400.00577    16.442128   -434.21697   -417.77485   -8491.0187    11362.833    2565.4211    -39401.31    15.239694    13.197967    28.550498    5742.4467 
  212000      211.982    420.65944    17.291091   -435.03905   -417.74796   -10083.934    7819.6272   -1000.9241   -37070.506    15.239696    13.197969    28.550481     5742.445 
[...]
  948500      948.482    535.46673    22.010213   -428.82501    -406.8148    -3908.747    12098.507     9505.335   -33330.083    15.243158    13.200989    28.524703    5739.8764 
  949000      948.982    606.09785    24.913486   -431.72598   -406.81249   -7226.9565    10342.117    6428.8061   -38451.793     15.24316    13.200991    28.524686    5739.8747 
  949500      949.482    562.16858    23.107786   -429.91583   -406.80804   -5061.2169    8117.7218    9940.1662   -33241.539    15.243163    13.200993    28.524668    5739.8729 
  950000      949.982    558.45644    22.955199   -429.76113   -406.80593   -4912.2069    10038.967    9646.0124     -34421.6    15.243165    13.200995    28.524651    5739.8712 
  950500      950.482    557.95878    22.934743   -429.73629   -406.80155   -4303.2805    9867.9637    8291.0771   -31068.882    15.243167    13.200997    28.524633    5739.8694 
  951000      950.982    546.23335    22.452772   -429.25018   -406.79741    -4302.545    8269.4598    11236.446   -32413.541     15.24317    13.200999    28.524616    5739.8677 
  951500      951.482    582.93657    23.961448   -430.75468   -406.79323    -4997.487     8006.802    11149.912   -34149.175    15.243172    13.201001    28.524598     5739.866 
  952000      951.982     575.5437    23.657566   -430.44673   -406.78917   -4987.3373    10042.633    10207.814   -35212.459    15.243174    13.201003    28.524581    5739.8642 
  952500      952.482    553.18305    22.738438   -429.52328   -406.78484   -4359.7383    8044.1447    12005.206   -33128.566    15.243177    13.201005    28.524563    5739.8625 
  953000      952.982     580.3033    23.853208     -430.633    -406.7798   -6748.9563    6322.1457    7902.2436   -34471.258    15.243179    13.201007    28.524546    5739.8607 
  953500      953.482    574.65402    23.620996   -430.39571   -406.77472   -5279.5526    8065.2932    10107.964   -34011.915    15.243181    13.201009    28.524528     5739.859 
  954000      953.982    579.74643    23.830318   -430.59961   -406.76929   -4958.6435    11004.157    10370.292   -36250.379    15.243184    13.201011    28.524511    5739.8572 
  954500      954.482    571.58554    23.494867   -430.25916   -406.76429   -4697.2623    8239.1355    11486.891   -33817.814    15.243186    13.201013    28.524493    5739.8555 
  955000      954.982    580.74086    23.871194   -430.63288   -406.76168   -5457.3037    6570.5933    10316.941   -33259.445    15.243188    13.201015    28.524476    5739.8537 
  955500      955.482    542.95917    22.318188   -429.07298   -406.75479   -2845.9915    11995.011     8967.541   -29500.527    15.243191    13.201017    28.524458     5739.852 
  956000      955.982    542.09777     22.28278   -429.03246   -406.74968   -4255.7479    13297.425    7396.3174   -33460.986    15.243193     13.20102    28.524441    5739.8502 
  956500      956.482    563.92398    23.179941   -429.92419   -406.74425   -5411.1468    10270.574    8207.8534   -34711.868    15.243195    13.201022    28.524423    5739.8485 
  957000      956.982      580.267    23.851716   -430.58923   -406.73751   -6013.5324    7064.2097    8297.9807   -33402.788    15.243198    13.201024    28.524406    5739.8468 
  957500      957.482    561.40091    23.076231   -429.80884   -406.73261     -5308.78    7324.0005    9535.5074   -32785.848      15.2432    13.201026    28.524388     5739.845 
  958000      957.982    567.01005    23.306793   -430.03426   -406.72747   -4017.3703    11028.471    9964.2751   -33044.857    15.243203    13.201028    28.524371    5739.8433 
  958500      958.482    566.77796    23.297253   -430.02059   -406.72334   -4932.9157    11029.787    11627.856    -37456.39    15.243205     13.20103    28.524353    5739.8415 
  959000      958.982    607.43313    24.968372   -431.68649   -406.71812   -6709.0318    9664.7199    8632.3524   -38424.168    15.243207    13.201032    28.524336    5739.8398 
  959500      959.482    563.92931     23.18016   -429.89247   -406.71231   -4642.3336    10961.991    11125.244   -36014.236     15.24321    13.201034    28.524318     5739.838 
  960000      959.982    595.66325    24.484575   -431.19185   -406.70728   -5708.2031    10139.663    10708.135   -37972.408    15.243212    13.201036    28.524301    5739.8363 
  960500      960.482    578.82871    23.792596   -430.49527   -406.70268   -5770.8517    9418.2938    8465.1038   -35195.953    15.243214    13.201038    28.524283    5739.8345 
  961000      960.982    568.33844    23.361396    -430.0587    -406.6973   -5087.8729    9377.2793    10814.755   -35455.653    15.243217     13.20104    28.524266    5739.8328 
  961500      961.482    578.13804    23.764206    -430.4553   -406.69109   -5465.0333    6576.0641    10741.439   -33712.603    15.243219    13.201042    28.524248     5739.831 
  962000      961.982    572.79076    23.544407   -430.23073   -406.68632   -5315.4536    6257.7466    9272.4073   -31476.515    15.243221    13.201044    28.524231    5739.8293 
  962500      962.482    571.47465    23.490309   -430.17096   -406.68066   -3869.3265    8411.4636    10124.517    -30143.96    15.243224    13.201046    28.524213    5739.8276 
  963000      962.982    567.15488    23.312746   -429.98563   -406.67289   -3660.8468    9323.7795    16847.001   -37153.321    15.243226    13.201048    28.524196    5739.8258 
  963500      963.482     525.0925    21.583783   -428.25077   -406.66699   -5815.8901    8901.5518    5355.5049   -31704.727    15.243228     13.20105    28.524178    5739.8241 
  964000      963.982    575.40562     23.65189   -430.31417   -406.66228   -3672.0779    6641.6548    12650.944   -30308.833    15.243231    13.201052    28.524161    5739.8223 
  964500      964.482    561.01189     23.06024   -429.71618   -406.65594   -3336.2888    6779.5262    13912.337    -30700.73    15.243233    13.201054    28.524143    5739.8206 
  965000      964.982    592.18027    24.341408   -430.99269   -406.65128   -3292.1176    11088.607      11450.1   -32415.059    15.243235    13.201056    28.524126    5739.8188 
  965500      965.482    582.81623    23.956502   -430.60113   -406.64462   -4652.8417    10109.902     10418.95   -34487.377    15.243238    13.201058    28.524108    5739.8171 
  966000      965.982    545.12191    22.407087   -429.04476   -406.63767   -6481.8967    4823.9518      8386.04   -32655.682     15.24324    13.201061    28.524091    5739.8153 
  966500      966.482    539.50979    22.176402   -428.80716   -406.63076   -3669.7368    8436.0553     10488.77   -29934.035    15.243242    13.201063    28.524073    5739.8136 
  967000      966.982    580.39662    23.857044   -430.48161   -406.62456   -5447.3927    6705.9758     6362.354   -29410.508    15.243245    13.201065    28.524056    5739.8119 
  967500      967.482    565.18011    23.231573   -429.84989   -406.61832   -4197.6594    9795.6286     13126.72   -35515.326    15.243247    13.201067    28.524038    5739.8101 
  968000      967.982    564.20695    23.191572   -429.80419   -406.61262   -4185.7737    11070.492    8851.2362   -32479.049     15.24325    13.201069    28.524021    5739.8084 
  968500      968.482    560.15943      23.0252   -429.63187   -406.60667   -4562.4053    10284.547    9883.6019   -33855.365    15.243252    13.201071    28.524003    5739.8066 
  969000      968.982    571.83953    23.505307   -430.10525   -406.59994   -4366.4032     4890.175    14420.291   -32409.676    15.243254    13.201073    28.523986    5739.8049 
  969500      969.482    568.16322    23.354193   -429.94702   -406.59282   -5392.1057    8016.6803    8266.9786   -32459.976    15.243257    13.201075    28.523968    5739.8031 
  970000      969.982    592.13073    24.339371   -430.92508   -406.58571   -6236.4545    5265.3928    6765.5685   -30740.325    15.243259    13.201077    28.523951    5739.8014 
  970500      970.482    541.15493    22.244025   -428.82178   -406.57776   -4448.1932    8484.1379    11286.658   -33115.375    15.243261    13.201079    28.523933    5739.7996 
  971000      970.982    579.79399    23.832273   -430.40394   -406.57166   -4237.6382    10268.296    8634.0452   -31615.255    15.243264    13.201081    28.523916    5739.7979 
  971500      971.482    555.47937    22.832827   -429.39677   -406.56394   -3894.5127    9653.5317    12335.557   -33672.627    15.243266    13.201083    28.523898    5739.7961 
  972000      971.982     571.3247    23.484145   -430.04161   -406.55746   -3249.5847     12772.56    8910.6002   -31431.915    15.243268    13.201085    28.523881    5739.7944 
  972500      972.482    565.63554    23.250294   -429.80075   -406.55046   -5078.8117    7548.9965    11620.921   -34406.353    15.243271    13.201087    28.523863    5739.7927 
  973000      972.982    604.81853      24.8609   -431.40549   -406.54459   -5367.6526    8801.3443    11859.349   -36763.651    15.243273    13.201089    28.523846    5739.7909 
  973500      973.482    595.75423    24.488315   -431.02647   -406.53816   -5615.5087    7455.4508    13374.193    -37676.17    15.243275    13.201091    28.523828    5739.7892 
  974000      973.982    561.97494    23.099826   -429.63085   -406.53102    -5399.585    7456.8046    9593.0291   -33248.589    15.243278    13.201093    28.523811    5739.7874 
  974500      974.482    605.29744    24.880586   -431.40603   -406.52545   -4461.0136    5825.9085    11849.056   -31058.005     15.24328    13.201095    28.523793    5739.7857 
  975000      974.982    593.17374    24.382244   -430.89935    -406.5171   -5498.1164    6410.3811    11919.115   -34823.845    15.243282    13.201097    28.523776    5739.7839 
  975500      975.482    585.99146    24.087018   -430.59753   -406.51051   -4959.2222    6381.3414     12781.66   -34040.668    15.243285    13.201099    28.523758    5739.7822 
  976000      975.982    560.54943    23.041231   -429.54371   -406.50248   -4637.8866    5648.8103    11535.624   -31098.094    15.243287    13.201102    28.523741    5739.7804 
  976500      976.482    549.99919    22.607566   -429.10344   -406.49588   -4561.5966    9834.0513    10188.643   -33707.484    15.243289    13.201104    28.523723    5739.7787 
  977000      976.982    581.79519    23.914532   -430.40323   -406.48869   -4032.6586    10741.978    8816.6312   -31656.585    15.243292    13.201106    28.523706    5739.7769 
  977500      977.482    574.64917    23.620797   -430.10308   -406.48229   -4356.4492     9120.484    11564.694   -33754.526    15.243294    13.201108    28.523688    5739.7752 
  978000      977.982    586.08796    24.090985   -430.56662   -406.47563   -4362.5398    8518.9546    9268.7538   -30875.328    15.243297     13.20111    28.523671    5739.7735 
  978500      978.482    538.42896    22.131975    -428.5989   -406.46693   -3253.6835    9192.0235    12485.703   -31438.777    15.243299    13.201112    28.523653    5739.7717 
  979000      978.982    571.72036    23.500409   -429.95888   -406.45847   -3939.3436    8975.0994      10685.6   -31478.731    15.243301    13.201114    28.523636      5739.77 
  979500      979.482     573.1699    23.559992   -430.01199     -406.452   -4734.5729    8314.4701    10080.289   -32598.477    15.243304    13.201116    28.523618    5739.7682 
  980000      979.982    596.13463    24.503951   -430.94796   -406.44401   -5460.8915    9995.2069    8612.7721   -34990.654    15.243306    13.201118    28.523601    5739.7665 
  980500      980.482    596.85897    24.533724   -430.96939   -406.43567   -4365.6525    9839.8149    12611.337    -35548.11    15.243308     13.20112    28.523583    5739.7647 
  981000      980.982     558.6086    22.961454   -429.38787   -406.42642   -4991.2949    10048.358    8156.6398   -33178.882    15.243311    13.201122    28.523566     5739.763 
  981500      981.482    576.93982    23.714953    -430.1349   -406.41994    -5155.232    9850.0368    10447.676   -35763.409    15.243313    13.201124    28.523548    5739.7612 
  982000      981.982     566.6417    23.291652   -429.70252   -406.41087   -5087.0573    5744.3078    14790.137   -35795.617    15.243315    13.201126    28.523531    5739.7595 
  982500      982.482    562.58678    23.124975   -429.52762   -406.40265   -4189.1005    9953.9901    9105.4155   -31626.707    15.243318    13.201128    28.523513    5739.7577 
  983000      982.982    577.88234    23.753695   -430.14875   -406.39506   -5163.1925    8001.2288    5237.5227   -28728.329     15.24332     13.20113    28.523496     5739.756 
  983500      983.482    567.84913    23.341283   -429.72779   -406.38651   -2751.6117    13565.351    11442.148   -33262.334    15.243322    13.201132    28.523478    5739.7543 
  984000      983.982    572.59218    23.536245   -429.91507   -406.37883   -4847.7762    7794.9642    9006.4939   -31344.787    15.243325    13.201134    28.523461    5739.7525 
  984500      984.482    570.45762    23.448504   -429.82007   -406.37157   -6054.8265    8173.1025    10417.728    -36755.31    15.243327    13.201136    28.523443    5739.7508 
  985000      984.982    588.45876    24.188436   -430.55049   -406.36206   -5841.9435    5727.3224    9229.0844   -32482.237    15.243329    13.201138    28.523426     5739.749 
  985500      985.482    544.07165    22.363916   -428.71662    -406.3527   -4364.3594     7199.669    12488.536   -32781.283    15.243332     13.20114    28.523408    5739.7473 
  986000      985.982    556.96693    22.893973    -429.2381   -406.34413   -5379.7064     10455.08    7844.6924   -34438.892    15.243334    13.201143    28.523391    5739.7455 
  986500      986.482     590.9818    24.292145   -430.62777   -406.33563   -4833.2926    10173.469    10494.647   -35167.994    15.243336    13.201145    28.523373    5739.7438 
  987000      986.982     576.4971    23.696756   -430.02488   -406.32813   -3621.8974    10815.268    10184.873   -31865.834    15.243339    13.201147    28.523356     5739.742 
  987500      987.482    600.71319    24.692151   -431.01287   -406.32072    -7030.366    7082.9877    10036.681   -38210.766    15.243341    13.201149    28.523338    5739.7403 
  988000      987.982    591.52894    24.314635   -430.62606   -406.31142   -5603.0209    8724.4179    8248.9014   -33782.382    15.243344    13.201151    28.523321    5739.7385 
  988500      988.482      572.043    23.513671   -429.81497    -406.3013   -2738.4215    9198.1706    9576.6071   -26990.042    15.243346    13.201153    28.523303    5739.7368 
  989000      988.982    584.42255    24.022529   -430.31496   -406.29243   -5009.7502    9956.3452    10761.868   -35747.464    15.243348    13.201155    28.523286    5739.7351 
  989500      989.482    534.09837    21.953967   -428.23616   -406.28219   -4330.9547    10563.529    13652.793   -37209.186    15.243351    13.201157    28.523268    5739.7333 
  990000      989.982    572.69074    23.540296   -429.81336   -406.27307   -4356.9221     7560.919    9657.0022   -30288.688    15.243353    13.201159    28.523251    5739.7316 
  990500      990.482    574.12274    23.599158   -429.86351   -406.26435   -4784.5033     8864.489    10519.179   -33737.177    15.243355    13.201161    28.523233    5739.7298 
  991000      990.982    603.64564    24.812689    -431.0689   -406.25621   -2644.3876    11240.934    9858.8543   -29032.952    15.243358    13.201163    28.523216    5739.7281 
  991500      991.482     561.1287    23.065041   -429.30991   -406.24487   -3697.7137    10495.391    12807.381   -34395.913     15.24336    13.201165    28.523198    5739.7263 
  992000      991.982     549.3667    22.581568    -428.8169   -406.23533   -4494.3899    6720.6892    12486.209   -32690.067    15.243362    13.201167    28.523181    5739.7246 
  992500      992.482    584.15619     24.01158   -430.23731   -406.22573   -5830.0492    8229.5492    7843.1092   -33562.806    15.243365    13.201169    28.523163    5739.7228 
  993000      992.982    578.17128    23.765572    -429.9825   -406.21693   -5631.2249    11301.434    7332.2518   -35527.361    15.243367    13.201171    28.523146    5739.7211 
  993500      993.482     568.8202    23.381199   -429.58857   -406.20738   -3405.3468    14234.832    9070.6133   -33521.486    15.243369    13.201173    28.523128    5739.7194 
  994000      993.982    570.80574    23.462814    -429.6605   -406.19769    -4722.829    11618.285    8286.7192   -34073.491    15.243372    13.201175    28.523111    5739.7176 
  994500      994.482     556.5301    22.876017   -429.06507   -406.18905   -4168.6934    10491.834    10381.799   -33379.714    15.243374    13.201177    28.523093    5739.7159 
  995000      994.982    586.07286    24.090364     -430.272   -406.18163   -4838.6432    11675.891    8232.8561   -34424.677    15.243376    13.201179    28.523076    5739.7141 
  995500      995.482    594.81961    24.449897   -430.62079   -406.17089   -3529.9004    8501.5512    13630.331   -32721.583    15.243379    13.201181    28.523058    5739.7124 
  996000      995.982    579.64851    23.826293   -429.98856   -406.16227   -4669.9448    9135.3166    7935.5834   -31080.734    15.243381    13.201184    28.523041    5739.7106 
  996500      996.482    548.29537    22.537531   -428.69005   -406.15252   -2317.1054    12049.868    14446.511   -33447.695    15.243383    13.201186    28.523023    5739.7089 
  997000      996.982     565.8802    23.260351   -429.40394   -406.14359   -4737.0032    9007.6472    7397.9802   -30616.637    15.243386    13.201188    28.523006    5739.7071 
  997500      997.482    566.63007    23.291174     -429.426   -406.13483   -4983.0045    8596.9454    8735.2787   -32281.238    15.243388     13.20119    28.522988    5739.7054 
  998000      997.982    592.31234    24.346836    -430.4727   -406.12587   -4232.7464    11009.004    7822.9199   -31530.164    15.243391    13.201192    28.522971    5739.7036 
  998500      998.482    614.37773    25.253828   -431.37058   -406.11675   -5292.7429    9035.5149     12564.67   -37478.414    15.243393    13.201194    28.522953    5739.7019 
  999000      998.982    580.75046    23.871588    -429.9782   -406.10661   -4593.4371     13023.73    5188.2325   -31992.273    15.243395    13.201196    28.522936    5739.7002 
  999500      999.482    563.17341    23.149089   -429.24653   -406.09744   -4462.8471    8552.7876     12183.42   -34124.749    15.243398    13.201198    28.522918    5739.6984 
 1000000      999.982    587.12359    24.133554   -430.22177   -406.08822   -3645.6254    10411.262    12805.383   -34153.521      15.2434      13.2012    28.522901    5739.6967 
 1000018         1000    601.50991      24.7249   -430.81288   -406.08798   -3986.2341    10002.548    13497.147   -35458.397      15.2434      13.2012      28.5229    5739.6966 
Loop time of 890.249 on 28 procs for 1000000 steps with 319 atoms

Performance: 97.051 ns/day, 0.247 hours/ns, 1123.281 timesteps/s
87.1% CPU use with 28 MPI tasks x no OpenMP threads

MPI task timing breakdown:
Section |  min time  |  avg time  |  max time  |%varavg| %total
---------------------------------------------------------------
Pair    | 736.59     | 772.35     | 815.65     |  65.9 | 86.76
Neigh   | 0.032345   | 0.047559   | 0.066565   |   3.9 |  0.01
Comm    | 63.663     | 104.35     | 140.35     | 168.2 | 11.72
Output  | 0.10073    | 0.10272    | 0.12501    |   1.4 |  0.01
Modify  | 4.9532     | 8.2788     | 13.439     |  88.9 |  0.93
Other   |            | 5.127      |            |       |  0.58

Nlocal:    11.3929 ave 16 max 7 min
Histogram: 4 2 1 2 5 4 3 3 2 2
Nghost:    649.929 ave 706 max 595 min
Histogram: 3 5 0 3 4 2 2 4 1 4
Neighs:    692.393 ave 956 max 386 min
Histogram: 4 2 0 3 3 4 3 2 1 6
FullNghs:  1384.79 ave 2023 max 821 min
Histogram: 4 2 2 2 4 4 3 3 2 2

Total # of neighbors = 38774
Ave neighs/atom = 121.549
Neighbor list builds = 699
Dangerous builds = 0

write_restart   POSCAR_1x1x1.rest

#unfix    1
#undump   1
Total wall time: 0:14:50
