LAMMPS (7 Dec 2015)
#----------- Initialize Simulation ------------ restart01
#processors	2 2 2
units		metal
boundary	p p p     ## periodic boundary condition  on x y z axis ##
atom_style atomic
#atom_modify map array sort 0 0.0

read_data	POSCAR_1x1x1.lammps
  triclinic box = (0 0 0) to (15.6478 13.5514 25.5488) with tilt (-7.8238 0 0)
  2 by 2 by 7 MPI processor grid
  reading atoms ...
  319 atoms

#----------- Define Potential -----------------
pair_style meam
pair_coeff * * MgAlZn.library.meam Mg Al Zn MgAlZn.parameter.meam Mg Al Zn 	#1=Mg 2=Al 3=Zn	#atoms/mass

#----------- Neighbor List --------------------
neighbor 2.0 bin
neigh_modify delay 10 check yes

#--------------  Run a simulation (minimization) ---------------------------------------
minimize       1.0e-4   1.0e-6   100   1000          #結構優化的條件
WARNING: Resetting reneighboring criteria during minimization (../min.cpp:168)
Neighbor list info ...
  2 neighbor list requests
  update every 1 steps, delay 0 steps, check yes
  max neighbors/atom: 2000, page size: 100000
  master list distance cutoff = 8
  ghost atom cutoff = 8
  binsize = 4 -> bins = 6 4 7
Memory usage per processor = 8.65419 Mbytes
Step Temp E_pair E_mol TotEng Press 
       0            0   -436.22487            0   -436.22487    11372.742 
      13            0   -460.45701            0   -460.45701   -7318.4133 
Loop time of 0.0220638 on 28 procs for 13 steps with 319 atoms

89.3% CPU use with 28 MPI tasks x no OpenMP threads

Minimization stats:
  Stopping criterion = energy tolerance
  Energy initial, next-to-last, final = 
        -436.224870604     -460.419815681     -460.457014621
  Force two-norm initial, final = 21.9517 0.653499
  Force max component initial, final = 3.0964 0.0876454
  Final line search alpha, max atom move = 0.364566 0.0319525
  Iterations, force evaluations = 13 21

MPI task timing breakdown:
Section |  min time  |  avg time  |  max time  |%varavg| %total
---------------------------------------------------------------
Pair    | 0.016878   | 0.01807    | 0.019942   |   0.5 | 81.90
Neigh   | 0          | 0          | 0          |   0.0 |  0.00
Comm    | 0.0011954  | 0.0030444  | 0.0041802  |   1.2 | 13.80
Output  | 0          | 0          | 0          |   0.0 |  0.00
Modify  | 0          | 0          | 0          |   0.0 |  0.00
Other   |            | 0.0009495  |            |       |  4.30

Nlocal:    11.3929 ave 17 max 6 min
Histogram: 3 2 2 2 3 8 2 1 4 1
Nghost:    675 ave 712 max 648 min
Histogram: 2 1 5 7 4 3 3 1 0 2
Neighs:    725.107 ave 1055 max 377 min
Histogram: 2 2 3 2 2 8 2 2 3 2
FullNghs:  1450.21 ave 2170 max 744 min
Histogram: 2 1 4 2 3 8 2 1 4 1

Total # of neighbors = 40606
Ave neighs/atom = 127.292
Neighbor list builds = 0
Dangerous builds = 0
velocity all  create 600.0 4928459 #rot yes dist gaussian

#--------------  Run a simulation (Relaxation)  ----------------------------------------
fix  1  all  nvt   temp  600.0  600.0  100				#damping constant
#fix  2  all  npt   temp  393.0  393.0  50 iso 0.0 0.0 1000.0
fix  2  all deform 1 x final 0 15.6525 y final 0 13.5555 z final 0 25.5138 xy final -7.82615 units lattice
#fix  3  all  npt   temp  393.0  393.0  50 z 0.0 0.0 1000.0

#variable b equal 1
#fix 2 all efield  0.0  0.0  v_b
#compute pot all pe/atom


#----------- Output --------------------------
thermo	 500
timestep  0.001		#1.0 fs
thermo_style	custom step time temp ke pe etotal press pxx pyy pzz lx ly lz vol

dump 1 all custom 10000 dump.eq id type x y z
dump_modify 1 sort  id

run        1000000	#1000 ps
Neighbor list info ...
  2 neighbor list requests
  update every 1 steps, delay 10 steps, check yes
  max neighbors/atom: 2000, page size: 100000
  master list distance cutoff = 8
  ghost atom cutoff = 8
  binsize = 4 -> bins = 6 4 7
Memory usage per processor = 7.56089 Mbytes
Step Time Temp KinEng PotEng TotEng Press Pxx Pyy Pzz Lx Ly Lz Volume 
      13            0          600    24.662836   -460.45701   -435.79418   -2455.9745   -14003.534   -11571.196    18206.806      15.6478      13.5514      25.5488    5417.6127 
     500        0.487    332.78963    13.679227   -449.46852   -435.78929    5041.8957   -8074.1307   -7203.0793    30402.897    15.647802    13.551402    25.548783    5417.6107 
    1000        0.987    306.88053     12.61424   -448.40255   -435.78831    3936.2985   -11525.735   -6871.1282    30205.759    15.647805    13.551404    25.548765    5417.6086 
    1500        1.487    312.92533     12.86271   -448.65026   -435.78755     4405.749   -8445.8868   -6967.5013    28630.635    15.647807    13.551406    25.548748    5417.6066 
    2000        1.987     322.5729    13.259271   -449.04581   -435.78654    6142.2229   -8020.7925   -3461.0204    29908.482    15.647809    13.551408     25.54873    5417.6045 
    2500        2.487    310.22889    12.751874   -448.53633   -435.78446    4598.9539   -7348.1024   -8457.6557     29602.62    15.647812     13.55141    25.548713    5417.6024 
    3000        2.987    315.84949    12.982907   -448.76506   -435.78215    5035.3496   -9068.4893   -9135.6884    33310.227    15.647814    13.551412    25.548695    5417.6003 
    3500        3.487    318.64126    13.097662   -448.87826    -435.7806    4366.8635   -8054.8028   -7708.3792    28863.773    15.647816    13.551414    25.548678    5417.5983 
    4000        3.987    297.51611    12.229318   -448.00657   -435.77725    4430.1115   -9352.4334   -10221.553    32864.321    15.647819    13.551416     25.54866    5417.5962 
    4500        4.487    319.83839     13.14687   -448.92211   -435.77524    4751.7584   -7092.1378    -8649.335    29996.748    15.647821    13.551418    25.548643    5417.5941 
    5000        4.987    333.97062    13.727771   -449.50088   -435.77311    5256.6627   -9881.8504   -7280.6751    32932.514    15.647823     13.55142    25.548625     5417.592 
    5500        5.487    309.75484    12.732388    -448.5015   -435.76911    3380.4059   -13486.114   -8460.4042    32087.735    15.647826    13.551422    25.548608    5417.5899 
    6000        5.987    311.47409    12.803057   -448.56871   -435.76565    4604.0911   -8803.9905   -3198.1043    25814.368    15.647828    13.551425     25.54859    5417.5879 
    6500        6.487    344.78926    14.172468   -449.93525   -435.76278    4213.6846   -9538.0837   -4438.5157    26617.653     15.64783    13.551427    25.548573    5417.5858 
    7000        6.987    307.57112    12.642627   -448.40049   -435.75787    3811.0573   -10204.551   -8384.1489    30021.872    15.647833    13.551429    25.548555    5417.5837 
    7500        7.487    332.08861    13.650411     -449.404   -435.75359    4771.3847   -8688.2281   -3947.2913    26949.673    15.647835    13.551431    25.548538    5417.5816 
    8000        7.987    327.80224    13.474221   -449.22284   -435.74862    4594.9267   -10008.055   -7075.4019    30868.237    15.647838    13.551433     25.54852    5417.5796 
    8500        8.487    310.44995     12.76096   -448.50447   -435.74351    3826.7327   -7261.9257   -9620.8362     28362.96     15.64784    13.551435    25.548503    5417.5775 
    9000        8.987    331.45999    13.624572   -449.36267    -435.7381    4714.8032   -9312.1436   -5480.9412    28937.494    15.647842    13.551437    25.548485    5417.5754 
    9500        9.487    314.05481    12.909137   -448.64204    -435.7329    5607.2875   -9372.9731   -6345.6319    32540.467    15.647845    13.551439    25.548468    5417.5733 
   10000        9.987     314.7228    12.936594   -448.66276   -435.72616    5729.7644   -7459.5592   -6307.2292    30956.082    15.647847    13.551441     25.54845    5417.5712 
   10500       10.487    306.98352    12.618474     -448.338   -435.71953    5850.1845   -5625.7976   -6834.8412    30011.192    15.647849    13.551443    25.548433    5417.5692 
   11000       10.987    338.39887    13.909793   -449.62315   -435.71336    4575.5929   -7501.2312   -9400.5547    30628.565    15.647852    13.551445    25.548415    5417.5671 
   11500       11.487    308.49674    12.680674   -448.38685   -435.70618    6196.7247   -7179.3818   -7181.9157    32951.472    15.647854    13.551447    25.548398     5417.565 
   12000       11.987    329.97467    13.563518   -449.26233   -435.69881    5886.7265   -6896.8551   -5342.2025    29899.237    15.647856    13.551449     25.54838    5417.5629 
   12500       12.487    300.96573    12.371114   -448.06168   -435.69057    5557.4398   -8773.5721   -4296.4169    29742.308    15.647859    13.551451    25.548363    5417.5609 
   13000       12.987    326.95301    13.439314   -449.12185   -435.68253    6100.0184   -6435.4458   -6411.6212    31147.122    15.647861    13.551453    25.548345    5417.5588 
   13500       13.487     328.8908    13.518966   -449.19348   -435.67451    4916.6403    -8217.781   -6859.3143    29827.016    15.647863    13.551455    25.548328    5417.5567 
   14000       13.987    302.73534    12.443853   -448.10894   -435.66508     6636.625   -7465.8456   -5606.7633    32982.484    15.647866    13.551457     25.54831    5417.5546 
   14500       14.487     309.5223    12.722829   -448.37947   -435.65664    5405.4112    -7392.297   -5204.9663    28813.497    15.647868    13.551459    25.548293    5417.5525 
   15000       14.987    331.19227    13.613568   -449.26211   -435.64854    4165.5105   -11256.989   -5309.0943    29062.615     15.64787    13.551461    25.548275    5417.5505 
   15500       15.487    320.69112    13.181921   -448.82079   -435.63887    3179.3732   -9089.5427    -7700.586    26328.248    15.647873    13.551463    25.548258    5417.5484 
   16000       15.987    321.21805     13.20358   -448.83307   -435.62949    4777.6288    -6443.185   -8028.5227    28804.594    15.647875    13.551466     25.54824    5417.5463 
   16500       16.487     293.7103    12.072882   -447.69163   -435.61874    5807.9233   -9694.9027   -2233.5276      29352.2    15.647877    13.551468    25.548223    5417.5442 
   17000       16.987    326.56048    13.423179   -449.03235   -435.60917    5364.6694   -8091.3517    -4969.062    29154.422     15.64788     13.55147    25.548205    5417.5422 
   17500       17.487    321.27792    13.206041   -448.80472   -435.59868    5588.3257   -8925.4404   -7321.0677    33011.485    15.647882    13.551472    25.548188    5417.5401 
   18000       17.987    330.55396     13.58733    -449.1756   -435.58827    3918.4255   -9583.8842   -5906.6162    27245.777    15.647885    13.551474     25.54817     5417.538 
   18500       18.487    306.43231    12.595816   -448.17182     -435.576    5667.3486   -7138.4138   -4309.9579    28450.418    15.647887    13.551476    25.548153    5417.5359 
   19000       18.987    322.85901    13.271031    -448.8362   -435.56517     4210.544   -10884.221   -4987.9364    28503.789    15.647889    13.551478    25.548135    5417.5338 
   19500       19.487    314.88688    12.943339   -448.49631   -435.55297    4920.6175   -10648.048   -5819.9978    31229.898    15.647892     13.55148    25.548118    5417.5318 
   20000       19.987    312.07765    12.827866   -448.36854   -435.54067    5185.5077   -9245.8231   -6998.9266    31801.273    15.647894    13.551482      25.5481    5417.5297 
   20500       20.487    330.67454    13.592286   -449.12124   -435.52896    5274.2324   -9805.8768   -4682.3353    30310.909    15.647896    13.551484    25.548083    5417.5276 
   21000       20.987    322.19765    13.243846   -448.75952   -435.51567    5348.6863   -7838.4048   -7560.4804    31444.944    15.647899    13.551486    25.548065    5417.5255 
   21500       21.487    338.48482    13.913326   -449.41662    -435.5033    3634.6853   -10513.199   -5306.5293    26723.784    15.647901    13.551488    25.548048    5417.5235 
   22000       21.987    318.91997    13.109118   -448.59846   -435.48935    6213.5094   -6664.8417   -4899.2455    30204.615    15.647903     13.55149     25.54803    5417.5214 
   22500       22.487    323.44861    13.295267   -448.77149   -435.47622    4438.6228   -10096.009   -5452.8467    28864.724    15.647906    13.551492    25.548013    5417.5193 
   23000       22.987    320.22757    13.162867   -448.62489   -435.46203    5056.7642   -7584.9046   -4615.7908    27370.988    15.647908    13.551494    25.547995    5417.5172 
   23500       23.487    328.61381    13.507581   -448.95547   -435.44789    4330.9298   -8311.4916   -5936.0969    27240.378     15.64791    13.551496    25.547978    5417.5151 
   24000       23.987    326.98532    13.440642   -448.87446   -435.43381    5514.8332   -10573.277   -7105.4087    34223.185    15.647913    13.551498     25.54796    5417.5131 
   24500       24.487    334.45228    13.747569   -449.16689   -435.41932      5723.83   -7703.5747    -6543.388    31418.453    15.647915      13.5515    25.547943     5417.511 
   25000       24.987    334.60302    13.753766   -449.15768   -435.40392    4451.3136   -7040.2548   -10097.557    30491.752    15.647917    13.551502    25.547925    5417.5089 
   25500       25.487    334.07348    13.731999   -449.12133   -435.38933    4314.8595   -8754.9329   -6672.1648    28371.676     15.64792    13.551504    25.547908    5417.5068 
   26000       25.987    319.38344    13.128169   -448.50159   -435.37342    4936.7072   -9765.6414   -8195.2811    32771.044    15.647922    13.551507     25.54789    5417.5048 
   26500       26.487    321.88149     13.23085   -448.58882   -435.35797    4926.4321    -8834.991   -7409.6272    31023.914    15.647924    13.551509    25.547873    5417.5027 
   27000       26.987    307.96238    12.658709   -448.00092   -435.34221    6260.5457   -6314.5752   -5558.8078     30655.02    15.647927    13.551511    25.547855    5417.5006 
   27500       27.487    332.72727    13.676663   -449.00278   -435.32612    3946.4412   -9943.5966   -7548.4281    29331.348    15.647929    13.551513    25.547838    5417.4985 
   28000       27.987    328.68242    13.510401   -448.82042   -435.31002    6412.0875   -6560.2446   -7406.1558    33202.663    15.647932    13.551515     25.54782    5417.4964 
   28500       28.487    316.83163    13.023277   -448.31652   -435.29324    6094.9805   -7542.2999   -7073.7802    32901.022    15.647934    13.551517    25.547803    5417.4944 
   29000       28.987    317.30792    13.042855   -448.31916   -435.27631    5129.0024   -10904.827   -6114.6808    32406.515    15.647936    13.551519    25.547785    5417.4923 
   29500       29.487    317.03897      13.0318   -448.29146   -435.25966    4700.2873   -7511.6123   -7535.1287    29147.603    15.647939    13.551521    25.547768    5417.4902 
   30000       29.987    321.41664    13.211743   -448.45372   -435.24198    5147.0773   -5652.7619    -7562.721    28656.715    15.647941    13.551523     25.54775    5417.4881 
   30500       30.487    324.75236    13.348857   -448.57377   -435.22491    4919.7214   -7087.5792   -9127.6138    30974.357    15.647943    13.551525    25.547733    5417.4861 
   31000       30.987    331.00206    13.605749   -448.81303   -435.20729    5144.8497   -6989.5916   -6644.0326    29068.173    15.647946    13.551527    25.547715     5417.484 
   31500       31.487    314.56902    12.930274   -448.11945   -435.18917    6828.1671    -6878.933   -6496.6475    33860.082    15.647948    13.551529    25.547698    5417.4819 
   32000       31.987     309.4845    12.721276   -447.89266   -435.17139    5572.2736    -9877.823   -8487.8584    35082.502     15.64795    13.551531     25.54768    5417.4798 
   32500       32.487    334.11427    13.733676   -448.88749   -435.15381    4750.8282   -9726.7199   -7115.5208    31094.725    15.647953    13.551533    25.547663    5417.4777 
   33000       32.987     322.8717    13.271553   -448.40716   -435.13561    5158.9386    -8656.621   -7772.0302    31905.467    15.647955    13.551535    25.547645    5417.4757 
   33500       33.487    316.80792    13.022303    -448.1393     -435.117    4469.4856   -8286.1822   -6558.3212     28252.96    15.647957    13.551537    25.547628    5417.4736 
   34000       33.987    315.54333    12.970322   -448.06909   -435.09877     5451.475    -6890.821   -6432.5768    29677.823     15.64796    13.551539     25.54761    5417.4715 
   34500       34.487     315.2779    12.959412   -448.03932    -435.0799    4684.6508   -8762.2538   -4496.5414    27312.748    15.647962    13.551541    25.547593    5417.4694 
   35000       34.987    309.11277    12.705996   -447.76688   -435.06089    7136.1785   -6435.1748    -4850.922    32694.632    15.647964    13.551543    25.547575    5417.4674 
   35500       35.487    321.82133    13.228378   -448.27124   -435.04286    5921.7976   -5268.1852   -7760.9237    30794.502    15.647967    13.551545    25.547558    5417.4653 
   36000       35.987    333.83613    13.722243   -448.74581   -435.02356    5612.9081   -5220.3541   -5307.4864    27366.565    15.647969    13.551548     25.54754    5417.4632 
   36500       36.487    323.04693    13.278756   -448.28329   -435.00453     4461.261   -10680.125   -7331.2961    31395.204    15.647971     13.55155    25.547523    5417.4611 
   37000       36.987    320.51505    13.174683   -448.15963   -434.98495    5412.2347   -9071.4956   -8576.6752    33884.875    15.647974    13.551552    25.547505     5417.459 
   37500       37.487    314.57964     12.93071   -447.89707   -434.96636     4610.083   -10881.479   -8478.3179    33190.046    15.647976    13.551554    25.547488     5417.457 
   38000       37.987    325.90928    13.396412     -448.344   -434.94759    5467.6224   -6034.6913   -6171.9154    28609.474    15.647979    13.551556     25.54747    5417.4549 
   38500       38.487    346.10094    14.226384   -449.15487   -434.92848    4101.7246   -8137.9732   -7505.7183    27948.865    15.647981    13.551558    25.547453    5417.4528 
   39000       38.987    325.52677    13.380689   -448.28943   -434.90874    5634.5124   -10083.435   -6777.1159    33764.088    15.647983     13.55156    25.547435    5417.4507 
   39500       39.487    329.81397    13.556913   -448.44621   -434.88929    6129.3829   -6861.9819   -6915.7598     32165.89    15.647986    13.551562    25.547418    5417.4487 
   40000       39.987    346.00899    14.222605   -449.09298   -434.87037    4548.8385   -8400.3617   -6395.0007    28441.878    15.647988    13.551564      25.5474    5417.4466 
   40500       40.487    336.58787    13.835352   -448.68547   -434.85012    4858.9661    -10962.44   -4494.4113     30033.75     15.64799    13.551566    25.547383    5417.4445 
   41000       40.987    324.93848    13.356507   -448.18712   -434.83061    5412.0055   -7229.1794   -4397.3403    27862.536    15.647993    13.551568    25.547365    5417.4424 
   41500       41.487    315.90375    12.985137   -447.79657   -434.81144    5430.9906   -8864.2956    -6805.784    31963.052    15.647995     13.55157    25.547348    5417.4403 
   42000       41.987    341.11599     14.02148   -448.81326   -434.79178    4394.7262   -8303.3647   -5373.0218    26860.565    15.647997    13.551572     25.54733    5417.4383 
   42500       42.487    328.61328    13.507559   -448.28036    -434.7728    5157.5726   -9468.2464    -5402.256     30343.22       15.648    13.551574    25.547313    5417.4362 
   43000       42.987    329.45241    13.542051   -448.29549   -434.75344    5774.7963   -10821.345   -4255.0332    32400.767    15.648002    13.551576    25.547295    5417.4341 
   43500       43.487    338.03589    13.894873   -448.62868    -434.7338    4900.4579   -9025.1375   -7199.9275    30926.439    15.648004    13.551578    25.547278     5417.432 
   44000       43.987    317.94151    13.068899   -447.78416   -434.71527    5062.8551   -9415.3468   -6071.5898    30675.502    15.648007     13.55158     25.54726      5417.43 
   44500       44.487    331.96095    13.645164   -448.34171   -434.69655    4761.1752   -5080.5304   -8438.8683    27802.924    15.648009    13.551582    25.547243    5417.4279 
   45000       44.987    324.61682    13.343285   -448.02001   -434.67673    5458.6611    -5494.025   -5755.4011    27625.409    15.648011    13.551584    25.547225    5417.4258 
   45500       45.487    347.24502    14.273411   -448.93131    -434.6579    4646.3262   -7878.8928   -7144.5765    28962.448    15.648014    13.551586    25.547208    5417.4237 
   46000       45.987    347.46401    14.282413   -448.92147   -434.63906    5001.3597   -5308.4015   -8053.2103    28365.691    15.648016    13.551589     25.54719    5417.4216 
   46500       46.487    332.65846    13.673835   -448.29408   -434.62025    5294.4188   -9116.0849   -2816.2631    27815.605    15.648018    13.551591    25.547173    5417.4196 
   47000       46.987    346.76096    14.253514   -448.85547   -434.60195    4280.4829   -7865.2177   -9304.8162    30011.483    15.648021    13.551593    25.547155    5417.4175 
   47500       47.487    321.82913    13.228698    -447.8109   -434.58221    6022.9791   -4793.3712   -3843.5089    26705.817    15.648023    13.551595    25.547138    5417.4154 
   48000       47.987    343.86601    14.134518    -448.6991   -434.56458    5011.9311    -8271.759   -7638.9229    30946.475    15.648026    13.551597     25.54712    5417.4133 
   48500       48.487    351.69678      14.4564   -449.00269   -434.54629    5117.5772   -7079.3816   -9426.3631    31858.476    15.648028    13.551599    25.547103    5417.4113 
   49000       48.987    340.87246    14.011469   -448.53893   -434.52746     5621.627   -7319.0404   -8206.5086     32390.43     15.64803    13.551601    25.547085    5417.4092 
   49500       49.487     320.3416    13.167554   -447.67686   -434.50931    5406.0993   -6685.7504   -6583.3515      29487.4    15.648033    13.551603    25.547068    5417.4071 
   50000       49.987     330.9308     13.60282   -448.09347   -434.49065    4593.7517   -8084.3824   -6443.2745    28308.912    15.648035    13.551605     25.54705     5417.405 
   50500       50.487     346.6702    14.249784   -448.72322   -434.47343    5060.9334   -9334.0891    -5771.384    30288.273    15.648037    13.551607    25.547033    5417.4029 
   51000       50.987    330.32067    13.577741   -448.03328   -434.45554    6387.2642   -9041.1165   -5867.7044    34070.613     15.64804    13.551609    25.547015    5417.4009 
   51500       51.487    322.76179    13.267035   -447.70406   -434.43702    5767.0277   -9248.7468   -5882.6219    32432.452    15.648042    13.551611    25.546998    5417.3988 
   52000       51.987     331.2012    13.613934   -448.03371   -434.41977    3482.7094    -7576.749   -7646.3674    25671.245    15.648044    13.551613     25.54698    5417.3967 
   52500       52.487    331.46359     13.62472    -448.0264   -434.40168    5042.0036   -4011.4995   -8683.4054    27820.916    15.648047    13.551615    25.546963    5417.3946 
   53000       52.987    344.50034    14.160592   -448.54536   -434.38477     5681.746   -5991.4705   -7139.6551    30176.364    15.648049    13.551617    25.546945    5417.3925 
   53500       53.487    317.76212    13.061525   -447.42806   -434.36653    5674.1063   -8163.7638   -7508.2543    32694.337    15.648051    13.551619    25.546928    5417.3905 
   54000       53.987    341.02659    14.017805   -448.36674   -434.34894      4294.12   -7480.0602   -6316.6895     26679.11    15.648054    13.551621     25.54691    5417.3884 
   54500       54.487    340.76159    14.006912   -448.33873   -434.33181    5728.5939   -8100.6791    -6443.338    31729.799    15.648056    13.551623    25.546893    5417.3863 
   55000       54.987    332.28051    13.658299   -447.97301   -434.31471    5743.5577   -9213.3424    -4109.298    30553.314    15.648058    13.551625    25.546875    5417.3842 
   55500       55.487    334.22438    13.738202   -448.03543   -434.29723    5219.0277   -7450.8691   -6851.7986    29959.751    15.648061    13.551627    25.546858    5417.3822 
   56000       55.987    320.96743    13.193278   -447.47353   -434.28025    5379.4546   -8712.6491   -6753.0206    31604.033    15.648063     13.55163     25.54684    5417.3801 
   56500       56.487    335.04119    13.771776   -448.03561   -434.26383    5609.1999   -11248.917   -4288.2577    32364.774    15.648065    13.551632    25.546823     5417.378 
   57000       56.987    334.09488    13.732879    -447.9799   -434.24702    4943.2611   -8246.1012   -6671.7601    29747.645    15.648068    13.551634    25.546805    5417.3759 
   57500       57.487    342.43141     14.07555   -448.30543   -434.22988     5220.654   -8543.4687   -4885.1386    29090.569     15.64807    13.551636    25.546788    5417.3738 
   58000       57.987    334.00136    13.729035   -447.94261   -434.21357    5592.9793   -5566.8277   -7427.2349    29773.001    15.648073    13.551638     25.54677    5417.3718 
   58500       58.487    325.96718    13.398792   -447.59501   -434.19622    6120.0571   -7626.4752   -2987.9312    28974.578    15.648075     13.55164    25.546753    5417.3697 
   59000       58.987    353.16675    14.516823   -448.69725   -434.18043    4646.2074    -8459.387   -6989.2666    29387.276    15.648077    13.551642    25.546735    5417.3676 
   59500       59.487    329.94333     13.56223   -447.72556   -434.16333    5371.4586   -7047.5534   -7970.0069    31131.936     15.64808    13.551644    25.546718    5417.3655 
   60000       59.987    340.78559    14.007898   -448.15507   -434.14717    5490.7275   -8507.6111   -5060.4392    30040.233    15.648082    13.551646      25.5467    5417.3635 
   60500       60.487    337.46273    13.871313   -448.00191    -434.1306    5197.4777   -5144.3572   -7535.2189    28272.009    15.648084    13.551648    25.546683    5417.3614 
   61000       60.987    343.32476     14.11227   -448.22641   -434.11414    6053.3533   -7017.3891   -8891.9869    34069.436    15.648087     13.55165    25.546665    5417.3593 
   61500       61.487      322.716    13.265153   -447.36299   -434.09784    4491.4432   -9077.6672   -7461.1367    30013.134    15.648089    13.551652    25.546648    5417.3572 
   62000       61.987     346.8919    14.258897   -448.34114   -434.08224     4857.074   -5963.4516   -7906.8958    28441.569    15.648091    13.551654     25.54663    5417.3551 
   62500       62.487    338.27271    13.904607   -447.97136   -434.06676    5229.5623   -8474.7056   -5302.4459    29465.839    15.648094    13.551656    25.546613    5417.3531 
   63000       62.987    320.80512    13.186607   -447.23661      -434.05    5482.9344   -8327.3315    -4562.011    29338.146    15.648096    13.551658    25.546595     5417.351 
   63500       63.487    334.46644    13.748151   -447.78182   -434.03367    7029.3907    -6010.765   -4614.4921    31713.429    15.648098     13.55166    25.546578    5417.3489 
   64000       63.987    336.84641     13.84598   -447.86327   -434.01729    5722.6193   -7114.7359   -8241.5934    32524.187    15.648101    13.551662     25.54656    5417.3468 
   64500       64.487    334.75844    13.760154    -447.7616   -434.00145    6379.7449   -8108.1846   -5890.8645    33138.284    15.648103    13.551664    25.546543    5417.3448 
   65000       64.987    341.89244    14.053395   -448.03924   -433.98584    5575.2403    -9122.915   -5189.3868    31038.023    15.648105    13.551666    25.546525    5417.3427 
   65500       65.487    339.19522    13.942527   -447.91234   -433.96982    4974.7177   -5063.9354   -9462.3072    29450.396    15.648108    13.551668    25.546508    5417.3406 
   66000       65.987    363.19978    14.929227   -448.88307   -433.95385    5752.6365   -6139.4328   -7358.3717    30755.714     15.64811    13.551671     25.54649    5417.3385 
   66500       66.487    346.62506    14.247928   -448.18521   -433.93728    4613.4598    -8912.591   -6069.2549    28822.225    15.648112    13.551673    25.546473    5417.3364 
   67000       66.987    342.87496    14.093782   -448.01581   -433.92203    5525.2492   -6825.2243    -10096.93    33497.902    15.648115    13.551675    25.546455    5417.3344 
   67500       67.487    350.58158     14.41056   -448.31637   -433.90581    5126.3501   -8319.1182   -7194.7155    30892.884    15.648117    13.551677    25.546438    5417.3323 
   68000       67.987    340.81845    14.009249   -447.89935    -433.8901    4718.3402   -8412.2357   -11367.321    33934.577     15.64812    13.551679     25.54642    5417.3302 
   68500       68.487     325.9893    13.399701   -447.27385   -433.87414    6614.6808   -7230.7694   -5172.8164    32247.628    15.648122    13.551681    25.546403    5417.3281 
   69000       68.987    341.11117    14.021281   -447.88032   -433.85904    4913.3643   -9327.2996   -5503.2999    29570.692    15.648124    13.551683    25.546385    5417.3261 
   69500       69.487    351.14087    14.433549   -448.27722   -433.84367    5822.6548   -8725.6974   -2561.6435    28755.305    15.648127    13.551685    25.546368     5417.324 
   70000       69.987    353.25127    14.520297   -448.34698   -433.82668    4213.8196   -8693.2431   -6145.0981      27479.8    15.648129    13.551687     25.54635    5417.3219 
   70500       70.487    359.69501    14.785165   -448.59565   -433.81048    5627.7775   -6698.1441    -7634.135    31215.612    15.648131    13.551689    25.546333    5417.3198 
   71000       70.987    359.66189    14.783804    -448.5785    -433.7947    5617.5118    -7593.432   -5968.0934    30414.061    15.648134    13.551691    25.546315    5417.3177 
   71500       71.487     345.4333    14.198941   -447.97751   -433.77857    6182.0263   -7595.6665    -5234.761    31376.506    15.648136    13.551693    25.546298    5417.3157 
   72000       71.987    352.93413    14.507261   -448.27016    -433.7629    5472.9896   -6583.8997   -6699.3653    29702.234    15.648138    13.551695     25.54628    5417.3136 
   72500       72.487    352.81918    14.502536   -448.24886   -433.74632    4981.7855   -9906.7766   -4750.1336    29602.267    15.648141    13.551697    25.546263    5417.3115 
   73000       72.987    350.80919    14.419916   -448.15038   -433.73047     6272.703   -9394.9047   -4755.1033    32968.117    15.648143    13.551699    25.546245    5417.3094 
   73500       73.487    334.01152    13.729452   -447.44377   -433.71432    6401.5479   -6112.3601   -6464.8738    31781.878    15.648145    13.551701    25.546228    5417.3074 
   74000       73.987    343.81625    14.132473   -447.83039   -433.69791    6415.2982   -7583.0374   -8298.6532    35127.585    15.648148    13.551703     25.54621    5417.3053 
   74500       74.487    360.70629    14.826733   -448.50802   -433.68129    6323.8166   -10403.233    -5052.703    34427.386     15.64815    13.551705    25.546193    5417.3032 
   75000       74.987    346.63248    14.248233   -447.91321   -433.66497    5449.1633   -7795.8764   -6212.9242     30356.29    15.648152    13.551707    25.546175    5417.3011 
   75500       75.487     355.1237    14.597263   -448.24713   -433.64987    4748.3209   -8510.9193   -8001.1433    30757.025    15.648155    13.551709    25.546158     5417.299 
   76000       75.987    351.18563    14.435389   -448.06831   -433.63292    5613.3115   -8961.4299   -5537.6567    31339.021    15.648157    13.551712     25.54614     5417.297 
   76500       76.487    334.13031    13.734335   -447.35045   -433.61612    3780.0042   -7702.4015   -8667.0278    27709.442    15.648159    13.551714    25.546123    5417.2949 
   77000       76.987    345.72398    14.210889   -447.81083   -433.59994     5957.064   -9433.4755   -4198.9647    31503.632    15.648162    13.551716    25.546105    5417.2928 
   77500       77.487    344.58204    14.163951   -447.74737   -433.58342    4613.4549   -7210.8399   -9686.6712    30737.876    15.648164    13.551718    25.546088    5417.2907 
   78000       77.987    349.23369    14.355155   -447.92215   -433.56699    7062.7806   -8920.8091   -3408.3661    33517.517    15.648167     13.55172     25.54607    5417.2887 
   78500       78.487    342.59971    14.082467   -447.63269   -433.55022    5793.3936   -6981.9187   -6925.6428    31287.742    15.648169    13.551722    25.546053    5417.2866 
   79000       78.987    345.19784    14.189263   -447.72307   -433.53381    6038.1297   -9377.3198   -5113.5155    32605.224    15.648171    13.551724    25.546035    5417.2845 
   79500       79.487    334.19662    13.737061   -447.25353   -433.51647    6165.8057   -8837.9055   -7539.8894    34875.212    15.648174    13.551726    25.546018    5417.2824 
   80000       79.987    346.16817    14.229148   -447.73004   -433.50089    6178.5887   -6178.0702   -6409.5616    31123.398    15.648176    13.551728       25.546    5417.2803 
   80500       80.487    353.15509    14.516343   -448.00006   -433.48372    5280.8286   -7094.7994     -8295.94    31233.225    15.648178     13.55173    25.545983    5417.2783 
   81000       80.987    352.00262    14.468971   -447.93587   -433.46689    7425.3414   -8762.4918   -2137.0799    33175.596    15.648181    13.551732    25.545965    5417.2762 
   81500       81.487    347.83797    14.297784   -447.74764   -433.44986    5979.8163   -5979.0181   -6824.7531     30743.22    15.648183    13.551734    25.545948    5417.2741 
   82000       81.987     345.4837    14.201013   -447.63417   -433.43316     6597.555   -5925.6304   -6972.2022    32690.498    15.648185    13.551736     25.54593     5417.272 
   82500       82.487    340.83657    14.009994     -447.425     -433.415    5159.7506   -8282.1899   -7078.1691    30839.611    15.648188    13.551738    25.545913    5417.2699 
   83000       82.987    348.98979     14.34513   -447.74373    -433.3986     6262.826   -8465.4148   -6698.1291    33952.022     15.64819     13.55174    25.545895    5417.2679 
   83500       83.487    340.04283    13.977367   -447.35825   -433.38089    6292.4838   -8754.3238   -4735.4455    32367.221    15.648192    13.551742    25.545878    5417.2658 
   84000       83.987    352.79636    14.501598   -447.86583   -433.36423    5793.7435   -7990.1061   -4916.9911    30288.328    15.648195    13.551744     25.54586    5417.2637 
   84500       84.487    355.81387    14.625632   -447.97214   -433.34651    5403.7555   -9075.0995   -6663.2163    31949.582    15.648197    13.551746    25.545843    5417.2616 
   85000       84.987    355.95224    14.631319    -447.9607   -433.32938    5887.7882   -7783.3012   -5007.3774    30454.043    15.648199    13.551748    25.545825    5417.2596 
   85500       85.487    351.21058    14.436415   -447.74743   -433.31102     5783.807   -6653.0006   -6788.7241    30793.146    15.648202     13.55175    25.545808    5417.2575 
   86000       85.987    323.57833    13.300598   -446.59332   -433.29272    6043.6526   -9261.3224   -7126.8604    34519.141    15.648204    13.551753     25.54579    5417.2554 
   86500       86.487    339.31053    13.947266   -447.22255   -433.27528    6036.6264   -7873.5262   -6944.4345     32927.84    15.648206    13.551755    25.545773    5417.2533 
   87000       86.987     357.2525    14.684766   -447.94258   -433.25781    4637.1088   -7112.8137   -8037.6837    29061.824    15.648209    13.551757    25.545755    5417.2512 
   87500       87.487    381.74636     15.69158   -448.93181   -433.24023    6021.1334   -10376.671   -2025.0549    30465.126    15.648211    13.551759    25.545738    5417.2492 
   88000       87.987    353.67493    14.537711    -447.7587   -433.22099    5793.7772   -7334.0479    -6581.944    31297.324    15.648214    13.551761     25.54572    5417.2471 
   88500       88.487    347.28769    14.275166   -447.47848   -433.20332    6175.5567   -9612.1991   -4626.6532    32765.522    15.648216    13.551763    25.545703     5417.245 
   89000       88.987    349.72989    14.375551   -447.56061   -433.18506    4913.6374   -6412.2556   -8735.7129    29888.881    15.648218    13.551765    25.545685    5417.2429 
   89500       89.487    346.50608    14.243038   -447.41003     -433.167    5619.8543   -8407.0568    -7630.246    32896.866    15.648221    13.551767    25.545668    5417.2409 
   90000       89.987    356.78378    14.665499   -447.81398   -433.14848    5004.6614    -9945.252   -6294.5202    31253.757    15.648223    13.551769     25.54565    5417.2388 
   90500       90.487    357.32059    14.687565   -447.81711   -433.12954    6310.0979   -8698.8007   -4030.7807    31659.875    15.648225    13.551771    25.545633    5417.2367 
   91000       90.987    367.59766    15.110001   -448.22074   -433.11074    5021.8945    -6842.093   -5842.6257    27750.402    15.648228    13.551773    25.545615    5417.2346 
   91500       91.487     342.4412    14.075952   -447.16714   -433.09119     6250.601   -8482.3989   -5250.3507    32484.553     15.64823    13.551775    25.545598    5417.2325 
   92000       91.987    358.40705    14.732224   -447.80592    -433.0737    5532.9493   -5864.1825   -7589.5538    30052.584    15.648232    13.551777     25.54558    5417.2305 
   92500       92.487    357.05332    14.676579    -447.7316   -433.05502    6567.7742   -8411.2451   -2629.6356    30744.203    15.648235    13.551779    25.545563    5417.2284 
   93000       92.987    345.86734    14.216782   -447.25284   -433.03606    6035.9646   -6038.1276   -4774.3616    28920.383    15.648237    13.551781    25.545545    5417.2263 
   93500       93.487    351.73062    14.457791   -447.47416   -433.01637    5847.7658   -6843.5405   -7774.7133    32161.551    15.648239    13.551783    25.545528    5417.2242 
   94000       93.987    343.45656    14.117688    -447.1152   -432.99751     5364.955   -10504.751   -4573.4057    31173.022    15.648242    13.551785     25.54551    5417.2222 
   94500       94.487    344.00829    14.140366   -447.11785   -432.97749    5575.5203   -11601.758   -6852.7092    35181.028    15.648244    13.551787    25.545493    5417.2201 
   95000       94.987    345.88069    14.217331    -447.1764   -432.95907    5895.7555   -6236.9576   -6235.6984    30159.922    15.648246    13.551789    25.545475     5417.218 
   95500       95.487    353.18626    14.517624   -447.45686   -432.93924    5710.8212   -7760.5813   -3651.6597    28544.705    15.648249    13.551791    25.545458    5417.2159 
   96000       95.987    356.02176    14.634177   -447.55517   -432.92099    5906.0238   -9500.7699   -2650.7887     29869.63    15.648251    13.551794     25.54544    5417.2138 
   96500       96.487    366.23808    15.054116    -447.9549   -432.90078    4476.7161   -7433.8395   -4675.0545    25539.042    15.648253    13.551796    25.545423    5417.2118 
   97000       96.987    355.27027    14.603287   -447.48487   -432.88158     6396.859   -6973.9193   -5054.8705    31219.367    15.648256    13.551798    25.545405    5417.2097 
   97500       97.487    351.77152    14.459472   -447.32014   -432.86067    6451.1909   -8055.3648   -6100.4037    33509.341    15.648258      13.5518    25.545388    5417.2076 
   98000       97.987     349.7472    14.376263   -447.21718   -432.84092    7284.0786    -2537.025    -8617.196    33006.457    15.648261    13.551802     25.54537    5417.2055 
   98500       98.487     352.4589    14.487727   -447.30844   -432.82071    6006.5157   -5551.3594   -4740.2191    28311.126    15.648263    13.551804    25.545353    5417.2035 
   99000       98.987    333.60817    13.712873   -446.51278   -432.79991    7109.6213   -6580.0851   -6060.5859    33969.535    15.648265    13.551806    25.545335    5417.2014 
   99500       99.487    353.48038    14.529714   -447.31013   -432.78042    6818.6031   -8580.1734   -2970.8286    32006.811    15.648268    13.551808    25.545318    5417.1993 
  100000       99.987    351.17435    14.434925   -447.19459   -432.75967     6125.914   -7087.1437    -5594.761    31059.647     15.64827     13.55181      25.5453    5417.1972 
  100500      100.487    364.76463     14.99355   -447.73349   -432.73994    6686.4814   -5026.2011   -8352.1934    33437.839    15.648272    13.551812    25.545283    5417.1951 
  101000      100.987     333.7624    13.719212   -446.43783   -432.71862    6882.9007   -5013.8548   -6273.7198    31936.277    15.648275    13.551814    25.545265    5417.1931 
  101500      101.487    355.08674    14.595743   -447.29449   -432.69875    6423.2655   -5439.8514   -5074.2573    29783.905    15.648277    13.551816    25.545248     5417.191 
  102000      101.987    349.72686    14.375427   -447.05398   -432.67855    6330.1495   -10197.313   -4581.2597    33769.021    15.648279    13.551818     25.54523    5417.1889 
  102500      102.487     370.2404     15.21863   -447.87654   -432.65791    5998.7522   -5081.0833   -9171.8388    32249.179    15.648282     13.55182    25.545213    5417.1868 
  103000      102.987    355.34853    14.606504   -447.24362   -432.63711    6563.8253   -7543.2581   -4929.6672    32164.401    15.648284    13.551822    25.545195    5417.1847 
  103500      103.487    366.50681    15.065162   -447.68173   -432.61657    6061.7094   -8173.4822   -5924.3095     32282.92    15.648286    13.551824    25.545178    5417.1827 
  104000      103.987    374.00721    15.373464   -447.96983   -432.59636    6631.4501   -7393.0964   -5361.8827    32649.329    15.648289    13.551826     25.54516    5417.1806 
  104500      104.487    345.31496    14.194077   -446.76808     -432.574     6577.791     -6254.19   -5559.3818    31546.945    15.648291    13.551828    25.545143    5417.1785 
  105000      104.987    369.74049    15.198082   -447.75154   -432.55346    5283.7034   -7150.4104   -7349.1551    30350.676    15.648293     13.55183    25.545125    5417.1764 
  105500      105.487    360.93454    14.836115   -447.36872   -432.53261    5633.2425   -8381.9823    -6002.987    31284.697    15.648296    13.551832    25.545108    5417.1744 
  106000      105.987    351.50333    14.448448   -446.96051   -432.51206    5511.5138   -9064.3589   -7140.0528    32738.953    15.648298    13.551835     25.54509    5417.1723 
  106500      106.487    375.05911    15.416702   -447.90755   -432.49084    5570.6754   -9790.4748   -4030.5817    30533.083      15.6483    13.551837    25.545073    5417.1702 
  107000      106.987    356.38649    14.649169   -447.11931   -432.47014    6539.2054   -10363.472   -7295.0197    37276.108    15.648303    13.551839    25.545055    5417.1681 
  107500      107.487     351.7316    14.457831   -446.90645   -432.44862    6411.2551   -10002.937    -6017.517    35254.219    15.648305    13.551841    25.545038     5417.166 
  108000      107.987    362.47889    14.899595   -447.32666   -432.42706    6420.5199   -5329.0271   -5709.3383    30299.925    15.648308    13.551843     25.54502     5417.164 
  108500      108.487     368.8854    15.162933    -447.5684   -432.40547    5764.2297   -7298.9611   -7260.6089    31852.259     15.64831    13.551845    25.545003    5417.1619 
  109000      108.987    352.21197    14.477577   -446.86047   -432.38289    6570.2343   -6398.8641   -5631.1897    31740.757    15.648312    13.551847    25.544985    5417.1598 
  109500      109.487     333.6898    13.716228   -446.07708   -432.36085    7730.2301   -7407.5848   -4537.5281    35135.803    15.648315    13.551849    25.544968    5417.1577 
  110000      109.987    380.52264    15.641279   -447.98212   -432.34084    5190.0757   -5378.4313   -7254.8251    28203.484    15.648317    13.551851     25.54495    5417.1557 
  110500      110.487    372.70327    15.319866   -447.63822   -432.31835    6731.3799   -5462.3553   -8904.0381    34560.533    15.648319    13.551853    25.544933    5417.1536 
  111000      110.987    334.73496    13.759189   -446.05482   -432.29563    6708.1893    -7162.455   -5496.6641    32783.687    15.648322    13.551855    25.544915    5417.1515 
  111500      111.487    367.44853    15.103871   -447.37872   -432.27485    6349.9179   -8066.4341   -3412.7212    30528.909    15.648324    13.551857    25.544898    5417.1494 
  112000      111.987    371.15286    15.256136   -447.50897   -432.25283    6803.5168   -7514.5347   -4756.1748     32681.26    15.648326    13.551859     25.54488    5417.1473 
  112500      112.487    360.90189    14.834773   -447.06624   -432.23147     7089.873   -7298.4457    -6663.279    35231.344    15.648329    13.551861    25.544863    5417.1453 
  113000      112.987    351.64985    14.454471   -446.66395   -432.20948    6279.2146   -6722.1525    -8234.719    33794.515    15.648331    13.551863    25.544845    5417.1432 
  113500      113.487    354.65406    14.577958   -446.76558   -432.18762     6308.943   -8281.3667   -6852.0585    34060.254    15.648333    13.551865    25.544828    5417.1411 
  114000      113.987    349.32754    14.359013   -446.52488   -432.16587    7182.6274    -6884.748   -6268.3767    34701.007    15.648336    13.551867     25.54481     5417.139 
  114500      114.487    347.21591    14.272215   -446.41527   -432.14306    7025.9637   -9649.8661   -4380.6416    35108.399    15.648338    13.551869    25.544793     5417.137 
  115000      114.987    359.65549     14.78354   -446.90502   -432.12148     4834.071   -10033.098   -8950.2242    33485.535     15.64834    13.551871    25.544775    5417.1349 
  115500      115.487    387.30069    15.919889   -448.01989       -432.1    7918.9157   -6282.3907   -4443.3165    34482.454    15.648343    13.551873    25.544758    5417.1328 
  116000      115.987    352.30483    14.481394   -446.55869    -432.0773    6904.4104    -7216.817   -8348.6699    36278.718    15.648345    13.551876     25.54474    5417.1307 
  116500      116.487    344.04661    14.141942   -446.19685   -432.05491    6911.7303   -7130.9665   -6821.6788    34687.836    15.648347    13.551878    25.544723    5417.1286 
  117000      116.987    367.35775     15.10014   -447.13266   -432.03252    5557.3126   -9620.8003   -3364.0374    29656.775     15.64835     13.55188    25.544705    5417.1266 
  117500      117.487    374.13658    15.378782   -447.39004   -432.01126    6542.3245   -8506.2197    -7133.953    35267.146    15.648352    13.551882    25.544688    5417.1245 
  118000      117.987     364.5299    14.983902   -446.97241   -431.98851     6752.865   -5373.8432   -7962.0692    33594.507    15.648355    13.551884     25.54467    5417.1224 
  118500      118.487    372.58599    15.315045   -447.28041   -431.96536    5246.5198   -6366.7423   -6495.3824    28601.684    15.648357    13.551886    25.544653    5417.1203 
  119000      118.987    364.99986    15.003219   -446.94589   -431.94267    5841.4023   -8599.6433   -5658.1433    31781.993    15.648359    13.551888    25.544635    5417.1182 
  119500      119.487    356.71796    14.662794    -446.5831   -431.92031    7242.8169   -6730.0545   -8215.4412    36673.947    15.648362     13.55189    25.544618    5417.1162 
  120000      119.987    368.89026    15.163133   -447.06092   -431.89778    6791.3366    -8575.707    -5785.932    34735.649    15.648364    13.551892      25.5446    5417.1141 
  120500      120.487    377.36911    15.511654   -447.38727   -431.87561    6621.9058   -8801.6143   -5939.7783     34607.11    15.648366    13.551894    25.544583     5417.112 
  121000      120.987    362.74396    14.910491   -446.76227   -431.85178    7352.5024   -10526.728   -4749.1845     37333.42    15.648369    13.551896    25.544565    5417.1099 
  121500      121.487    364.70384    14.991051   -446.81954   -431.82849    7541.2498   -7246.2766   -6930.2339     36800.26    15.648371    13.551898    25.544548    5417.1079 
  122000      121.987    367.47703    15.105043   -446.91049   -431.80545    6169.9799    -5325.966   -7290.9226    31126.828    15.648373      13.5519     25.54453    5417.1058 
  122500      122.487    376.49299    15.475641   -447.25892   -431.78328    6672.7563   -6254.3109   -6929.2421    33201.822    15.648376    13.551902    25.544513    5417.1037 
  123000      122.987    377.37549    15.511916   -447.27264   -431.76072    5683.5162   -7766.2647   -5268.9605    30085.774    15.648378    13.551904    25.544495    5417.1016 
  123500      123.487      357.304    14.686883   -446.42392   -431.73704    7076.0354   -6786.0029    -3281.046    31295.155     15.64838    13.551906    25.544478    5417.0995 
  124000      123.987    378.61729     15.56296   -447.27778   -431.71482    6672.6949   -6633.3592   -6069.5469    32720.991    15.648383    13.551908     25.54446    5417.0975 
  124500      124.487    362.69602     14.90852   -446.59967   -431.69115    6780.0023   -7558.4928   -4510.0252    32408.525    15.648385     13.55191    25.544443    5417.0954 
  125000      124.987    379.93904     15.61729   -447.28556   -431.66827    6318.7887   -5465.9547   -7672.9569    32095.278    15.648387    13.551912    25.544425    5417.0933 
  125500      125.487    403.91827     16.60295   -448.24895     -431.646    6060.9979   -8226.1197   -5272.8844    31681.998     15.64839    13.551914    25.544408    5417.0912 
  126000      125.987     346.5914    14.246545   -445.86794    -431.6214    6837.9994   -6429.3561   -4142.1499    31085.504    15.648392    13.551917     25.54439    5417.0892 
  126500      126.487     382.5727    15.725546   -447.32495    -431.5994    7132.0225   -7493.5155   -4688.3132    33577.896    15.648394    13.551919    25.544373    5417.0871 
  127000      126.987    369.95594    15.206938    -446.7829   -431.57596    6495.7969   -8753.9339   -5416.2109    33657.535    15.648397    13.551921    25.544355     5417.085 
  127500      127.487    368.32342    15.139833   -446.69295   -431.55312    6930.7608   -6987.7615   -5847.6974    33627.741    15.648399    13.551923    25.544338    5417.0829 
  128000      127.987    381.44626    15.679244   -447.20842   -431.52918    6087.5305   -7181.0637   -5450.5276    30894.183    15.648402    13.551925     25.54432    5417.0808 
  128500      128.487    373.91142    15.369526    -446.8755   -431.50598    6268.9903   -4354.5072   -6168.0626    29329.541    15.648404    13.551927    25.544303    5417.0788 
  129000      128.987     379.3964    15.594985    -447.0783   -431.48331    6473.4895   -4325.6742   -6358.1352    30104.278    15.648406    13.551929    25.544285    5417.0767 
  129500      129.487    353.23639    14.519685   -445.97835   -431.45866    6484.9222   -6218.7629   -5962.1519    31635.681    15.648409    13.551931    25.544268    5417.0746 
  130000      129.987    368.41446    15.143576   -446.57929   -431.43572    7840.8444     -5644.94   -3771.6822    32939.155    15.648411    13.551933     25.54425    5417.0725 
  130500      130.487     387.5448    15.929923   -447.34309   -431.41317    6450.5807   -5085.1487   -6108.7502    30545.641    15.648413    13.551935    25.544233    5417.0705 
  131000      130.987    364.24233    14.972081   -446.36129    -431.3892    6796.8811    -8055.433   -4573.5787    33019.655    15.648416    13.551937    25.544215    5417.0684 
  131500      131.487    361.82248    14.872614   -446.23842    -431.3658    6517.9111   -5141.7181   -6565.8435    31261.295    15.648418    13.551939    25.544198    5417.0663 
  132000      131.987    367.98674    15.125994   -446.46898   -431.34299    6808.6963   -3581.7858   -7616.2411    31624.116     15.64842    13.551941     25.54418    5417.0642 
  132500      132.487    372.96558    15.330648   -446.65081   -431.32016    8327.5978   -6697.2103   -4133.2994    35813.303    15.648423    13.551943    25.544163    5417.0621 
  133000      132.987    383.30072    15.755471   -447.05193   -431.29646    5048.3084   -10618.249   -6561.2866    32324.461    15.648425    13.551945    25.544145    5417.0601 
  133500      133.487    372.33738    15.304826   -446.57812   -431.27329    6957.3011   -6033.2259    -5479.087    32384.216    15.648427    13.551947    25.544128     5417.058 
  134000      133.987    371.16464    15.256621   -446.50626   -431.24964    7118.1431   -5798.5138   -9368.6804    36521.624     15.64843    13.551949     25.54411    5417.0559 
  134500      134.487    370.26046    15.219455   -446.44558   -431.22613    7336.3688   -9416.1032   -160.15657    31585.366    15.648432    13.551951    25.544093    5417.0538 
  135000      134.987    367.24147     15.09536   -446.29745   -431.20209    7200.4843   -7258.9703   -4940.2184    33800.642    15.648434    13.551953    25.544075    5417.0517 
  135500      135.487    379.67902    15.606602   -446.78516   -431.17856    6189.0649   -5715.4549   -6582.2777    30864.927    15.648437    13.551955    25.544058    5417.0497 
  136000      135.987    372.00317    15.291088   -446.44603   -431.15495    6193.7606   -9730.8881   -4344.7245    32656.894    15.648439    13.551958     25.54404    5417.0476 
  136500      136.487    378.01525    15.538213   -446.66922   -431.13101    7139.2463   -6128.3884   -2618.9657    30165.093    15.648441     13.55196    25.544023    5417.0455 
  137000      136.987    384.61166    15.809357   -446.91691   -431.10755    7413.6141   -4613.7131   -6168.6012    33023.157    15.648444    13.551962    25.544005    5417.0434 
  137500      137.487    375.33984    15.428241   -446.51196   -431.08371    7194.5736   -5546.1913   -6771.1754    33901.087    15.648446    13.551964    25.543988    5417.0414 
  138000      137.987    372.07794    15.294162   -446.35336    -431.0592    6174.8176    -7220.859   -5947.4151    31692.727    15.648449    13.551966     25.54397    5417.0393 
  138500      138.487    369.72439     15.19742   -446.23203   -431.03461     6531.684   -9032.4012   -4946.8568     33574.31    15.648451    13.551968    25.543953    5417.0372 
  139000      138.987    375.94644    15.453175    -446.4633   -431.01013    6496.6385   -7011.4884   -5948.0368    32449.441    15.648453     13.55197    25.543935    5417.0351 
  139500      139.487    357.86339    14.709877   -445.69616   -430.98628    6332.0878     -8021.47   -6403.5043    33421.238    15.648456    13.551972    25.543918     5417.033 
  140000      139.987    367.93198    15.123743   -446.08789   -430.96415    7308.8125   -9116.4065   -4837.5371    35880.381    15.648458    13.551974      25.5439     5417.031 
  140500      140.487    380.35629    15.634441   -446.57454    -430.9401    7235.1914   -5724.9873   -5680.9148    33111.476     15.64846    13.551976    25.543883    5417.0289 
  141000      140.987    392.26125    16.123791    -447.0408   -430.91701     6388.203   -6562.0435   -7591.9726    33318.625    15.648463    13.551978    25.543865    5417.0268 
  141500      141.487    383.70762    15.772197   -446.66469   -430.89249    7491.6742   -6304.0558   -5006.2477    33785.326    15.648465     13.55198    25.543848    5417.0247 
  142000      141.987    359.52431    14.778148   -445.64609   -430.86794    8086.4094   -5095.4018   -2922.0745    32276.705    15.648467    13.551982     25.54383    5417.0227 
  142500      142.487     384.3607    15.799041   -446.64368   -430.84463    6049.5507   -5187.1808   -5467.2977     28803.13     15.64847    13.551984    25.543813    5417.0206 
  143000      142.987    382.95391    15.741216   -446.56247   -430.82126    7727.6885     -4139.97   -5304.1039    32627.139    15.648472    13.551986    25.543795    5417.0185 
  143500      143.487    396.27172     16.28864   -447.08595   -430.79731    7108.4273   -6276.0399    -4953.598     32554.92    15.648474    13.551988    25.543778    5417.0164 
  144000      143.987    373.70674    15.361113   -446.13354   -430.77243    6937.8674   -5455.1437   -5385.7442     31654.49    15.648477     13.55199     25.54376    5417.0143 
  144500      144.487    381.97436    15.700951    -446.4488   -430.74785     7370.325   -6668.0854   -3580.5152    32359.576    15.648479    13.551992    25.543743    5417.0123 
  145000      144.987    396.50891     16.29839   -447.02282   -430.72443    6353.7326   -10224.391    433.51456    28852.075    15.648481    13.551994    25.543725    5417.0102 
  145500      145.487     365.0694    15.006078   -445.70544   -430.69936    7969.5185   -7265.2606    -5457.057    36630.873    15.648484    13.551996    25.543708    5417.0081 
  146000      145.987    367.94341    15.124213   -445.79964   -430.67543    6284.8548   -7964.4218    -5296.079    32115.065    15.648486    13.551999     25.54369     5417.006 
  146500      146.487    388.69342    15.977136   -446.62799   -430.65086    5761.4437   -8337.8086   -5549.6413    31171.781    15.648488    13.552001    25.543673    5417.0039 
  147000      146.987    405.67883    16.675317    -447.3025   -430.62719    7269.3986   -6749.1043    -7547.141    36104.441    15.648491    13.552003    25.543655    5417.0019 
  147500      147.487    375.76261    15.445619   -446.04753   -430.60191     6511.672   -7156.8104   -6000.8717    32692.698    15.648493    13.552005    25.543638    5416.9998 
  148000      147.987    401.93044    16.521241    -447.0991   -430.57786    7565.0717   -6006.7725   -7293.3207    35995.308    15.648496    13.552007     25.54362    5416.9977 
  148500      148.487    397.88561    16.354979   -446.90845   -430.55347    6977.3282   -7398.0464    -3940.529     32270.56    15.648498    13.552009    25.543603    5416.9956 
  149000      148.987    382.92399    15.739986   -446.26928   -430.52929    7474.4089   -6510.0296   -4001.8903    32935.147      15.6485    13.552011    25.543585    5416.9936 
  149500      149.487    381.27222     15.67209   -446.17684   -430.50475    7733.4422   -3875.3411   -5076.6677    32152.335    15.648503    13.552013    25.543568    5416.9915 
  150000      149.987    375.60106    15.438979   -445.91967   -430.48069    7948.0147   -6927.3692   -3636.7371     34408.15    15.648505    13.552015     25.54355    5416.9894 
  150500      150.487    400.55477    16.464694   -446.92141   -430.45671    7431.0172   -5482.3567   -5927.2319     33702.64    15.648507    13.552017    25.543533    5416.9873 
  151000      150.987     397.1675    16.325461   -446.75807   -430.43261      6302.43   -7843.5313   -4177.5563    30928.378     15.64851    13.552019    25.543515    5416.9852 
  151500      151.487    397.73309     16.34871   -446.75635   -430.40764    7982.2826   -7375.4005   -2379.2542    33701.503    15.648512    13.552021    25.543498    5416.9832 
  152000      151.987    397.87431    16.354515   -446.73678   -430.38226    7252.9976   -6872.1626   -3556.0006    32187.156    15.648514    13.552023     25.54348    5416.9811 
  152500      152.487    390.47285    16.050279   -446.40809   -430.35781    7618.5889   -8787.9217    -5159.107    36802.795    15.648517    13.552025    25.543463     5416.979 
  153000      152.987    364.50355    14.982819   -445.31628   -430.33346     8531.577   -7012.0194    -5513.693    38120.443    15.648519    13.552027    25.543445    5416.9769 
  153500      153.487    373.82446    15.365952    -445.6747   -430.30875    7623.6893    -5445.397   -5314.6702    33631.135    15.648521    13.552029    25.543428    5416.9749 
  154000      153.987    398.85313    16.394748   -446.67871   -430.28397    6693.6692    -6599.945   -6107.1101    32788.063    15.648524    13.552031     25.54341    5416.9728 
  154500      154.487    414.43544    17.035255   -447.29479   -430.25954     6342.635   -6421.2592   -6472.2702    31921.434    15.648526    13.552033    25.543393    5416.9707 
  155000      154.987    401.30512    16.495537   -446.73018   -430.23464    7145.5892   -6775.8468   -3839.1226    32051.737    15.648528    13.552035    25.543375    5416.9686 
  155500      155.487     386.5436    15.888769   -446.09784   -430.20907     6750.026   -7934.0301   -6596.1189    34780.227    15.648531    13.552037    25.543358    5416.9665 
  156000      155.987    371.01256     15.25037   -445.43487    -430.1845    5961.1415   -8361.0517   -5121.6508    31366.127    15.648533     13.55204     25.54334    5416.9645 
  156500      156.487    387.28357    15.919185   -446.07855   -430.15936    7725.6745   -5473.7785   -5502.2132    34153.015    15.648535    13.552042    25.543323    5416.9624 
  157000      156.987     392.2356    16.122737   -446.25757   -430.13484    6952.7531    -5005.193   -3996.0005    29859.453    15.648538    13.552044    25.543305    5416.9603 
  157500      157.487    390.58665    16.054957   -446.16533   -430.11037    6079.7549   -8236.2642   -6918.6789    33394.208     15.64854    13.552046    25.543288    5416.9582 
  158000      157.987    387.53088    15.929351   -446.01471   -430.08536    5814.2055   -9710.7396   -5264.8677    32418.224    15.648543    13.552048     25.54327    5416.9561 
  158500      158.487    382.10654    15.706385   -445.76694   -430.06056    6524.3326   -4770.2745   -5785.9026    30129.175    15.648545     13.55205    25.543253    5416.9541 
  159000      158.987    385.57346    15.848892   -445.88451   -430.03561    5664.1024   -5847.3549   -8523.5675     31363.23    15.648547    13.552052    25.543235     5416.952 
  159500      159.487    382.70552    15.731006    -445.7421   -430.01109    8738.7031   -6590.0656   -2563.7745    35369.949     15.64855    13.552054    25.543218    5416.9499 
  160000      159.987    376.80256    15.488366   -445.47491   -429.98654    9137.8214   -5501.0753   -5430.7136    38345.253    15.648552    13.552056      25.5432    5416.9478 
  160500      160.487    393.22035    16.163215   -446.12454   -429.96133    7494.5502    -5599.487   -2373.8551    30456.993    15.648554    13.552058    25.543183    5416.9458 
  161000      160.987    400.53397    16.463839   -446.39998   -429.93615    6420.1379   -4421.2698   -8840.4113    32522.095    15.648557     13.55206    25.543165    5416.9437 
  161500      161.487    369.49811    15.188119   -445.09829   -429.91017    6967.7179   -10009.887   -4610.6367    35523.678    15.648559    13.552062    25.543148    5416.9416 
  162000      161.987    387.99813    15.948557   -445.83371   -429.88515    7587.2207   -5472.4927   -2925.9335    31160.088    15.648561    13.552064     25.54313    5416.9395 
  162500      162.487    398.99695     16.40066   -446.26203   -429.86137    5441.6452   -6688.7494   -6862.2615    29875.947    15.648564    13.552066    25.543113    5416.9374 
  163000      162.987    378.82816    15.571628    -445.4066   -429.83497    7935.4978   -6084.5782   -4209.6573    34100.729    15.648566    13.552068    25.543095    5416.9354 
  163500      163.487    399.00862     16.40114   -446.21009   -429.80895    7670.7877    -4267.558   -3844.9566    31124.878    15.648568     13.55207    25.543078    5416.9333 
  164000      163.987    379.81506    15.612194    -445.3976   -429.78541    7817.5109   -6335.8857   -4936.4781    34724.896    15.648571    13.552072     25.54306    5416.9312 
  164500      164.487    382.59495    15.726461   -445.48772   -429.76126    7869.6972   -6563.9628   -4895.2105    35068.265    15.648573    13.552074    25.543043    5416.9291 
  165000      164.987    401.56043    16.506032   -446.24231   -429.73628    5953.5157   -8270.0699    -3890.927    30021.544    15.648575    13.552076    25.543025     5416.927 
  165500      165.487     388.3838     15.96441   -445.67608   -429.71167     7732.071   -3831.1769   -6948.4669    33975.857    15.648578    13.552078    25.543008     5416.925 
  166000      165.987    399.66417    16.428086   -446.11407   -429.68598    7608.5718   -9179.2156   -2138.2056    34143.137     15.64858    13.552081     25.54299    5416.9229 
  166500      166.487    409.39351    16.828008   -446.48874   -429.66073    8843.8633   -7102.9673   -5670.4759    39305.033    15.648582    13.552083    25.542973    5416.9208 
  167000      166.987    375.18798    15.421999   -445.05636   -429.63436    8115.4725    -5790.383   -3090.4814    33227.282    15.648585    13.552085    25.542955    5416.9187 
  167500      167.487     399.2833    16.412431   -446.02248   -429.61005    8997.7055    -3821.916   -6498.0381    37313.071    15.648587    13.552087    25.542938    5416.9167 
  168000      167.987    392.19843    16.121209   -445.70482   -429.58361    8414.9318   -7434.9925   -4408.5756    37088.364     15.64859    13.552089     25.54292    5416.9146 
  168500      168.487    360.40143    14.814202   -444.37222   -429.55802    8276.7953   -6900.3915   -6441.3929     38172.17    15.648592    13.552091    25.542903    5416.9125 
  169000      168.987    396.81385    16.310924   -445.84569   -429.53477    8122.4878   -6459.6487    -2191.182    33018.294    15.648594    13.552093    25.542885    5416.9104 
  169500      169.487    389.43922    16.007792   -445.51619    -429.5084    7796.2455   -5421.6864   -1251.0398    30061.463    15.648597    13.552095    25.542868    5416.9083 
  170000      169.987     362.4365    14.897853   -444.38106   -429.48321    7367.0311   -7745.7811   -3728.7952     33575.67    15.648599    13.552097     25.54285    5416.9063 
  170500      170.487     374.9469     15.41209   -444.86946   -429.45737     6843.002    -6007.021   -2326.0813    28862.108    15.648601    13.552099    25.542833    5416.9042 
  171000      170.987    421.18719    17.312784   -446.74452   -429.43173    5986.1132    -7073.278   -5215.5418    30247.159    15.648604    13.552101    25.542815    5416.9021 
  171500      171.487    395.72327    16.266096   -445.67276   -429.40666    6661.5231    -7668.735   -1371.1221    29024.426    15.648606    13.552103    25.542798       5416.9 
  172000      171.987    394.99218    16.236045   -445.61681   -429.38076    7764.5442    -6318.418   -3730.0682    33342.119    15.648608    13.552105     25.54278     5416.898 
  172500      172.487    404.66451    16.633624   -445.98926   -429.35563    8383.9781   -5815.7856   -833.68493    31801.405    15.648611    13.552107    25.542763    5416.8959 
  173000      172.987    375.02591    15.415337   -444.74477   -429.32943    7320.8918   -7370.4622   -4939.1808    34272.318    15.648613    13.552109    25.542745    5416.8938 
  173500      173.487    397.82803    16.352612   -445.65748   -429.30487    7836.7442   -3898.3321   -6863.6982    34272.263    15.648615    13.552111    25.542728    5416.8917 
  174000      173.987    394.94576    16.234137   -445.51271   -429.27857    8268.1225   -5184.5817   -5755.8117    35744.761    15.648618    13.552113     25.54271    5416.8896 
  174500      174.487     416.1712    17.106603   -446.36131    -429.2547    8655.0371    -2258.898   -3943.2876    32167.297     15.64862    13.552115    25.542693    5416.8876 
  175000      174.987    378.63577    15.563719   -444.79119   -429.22747    7881.8903   -2788.9591   -6242.9287    32677.559    15.648622    13.552117    25.542675    5416.8855 
  175500      175.487    391.80335    16.104969   -445.30634   -429.20137     8867.591   -5861.8803   -3821.5201    36286.173    15.648625    13.552119    25.542658    5416.8834 
  176000      175.987    388.34924    15.962989   -445.13813   -429.17514    7046.6686   -6882.1001   -6115.5915    34137.698    15.648627    13.552122     25.54264    5416.8813 
  176500      176.487    399.23244     16.41034    -445.5603   -429.14996    8410.1026   -8116.1901   -3125.0467    36471.545    15.648629    13.552124    25.542623    5416.8792 
  177000      176.987     380.8633    15.655282   -444.78035   -429.12507    8400.7196   -5091.4183   -6565.0042    36858.582    15.648632    13.552126    25.542605    5416.8772 
  177500      177.487    391.14348    16.077846   -445.17588   -429.09803    8758.0988   -6872.0554   -1802.4095    34948.761    15.648634    13.552128    25.542588    5416.8751 
  178000      177.987    409.00469    16.812026   -445.88507   -429.07304    8240.4572   -5673.3983   -3215.1592    33609.929    15.648637     13.55213     25.54257     5416.873 
  178500      178.487    373.70506    15.361044   -444.40808   -429.04704    7605.3098   -5582.0295   -3296.9614     31694.92    15.648639    13.552132    25.542553    5416.8709 
  179000      178.987    379.16563    15.585499   -444.60669   -429.02119    8194.2354   -5976.4903   -3468.5383    34027.735    15.648641    13.552134    25.542535    5416.8689 
  179500      179.487    397.03423    16.319983    -445.3156   -428.99561    8170.5758   -4433.5146   -4898.3441    33843.586    15.648644    13.552136    25.542518    5416.8668 
  180000      179.987    395.50406    16.257086   -445.22716   -428.97007     7528.756    -6802.282   -2656.9883    32045.538    15.648646    13.552138      25.5425    5416.8647 
  180500      180.487    394.93136    16.233545   -445.17723   -428.94369    6750.7044   -4894.4066   -5358.9018    30505.422    15.648648     13.55214    25.542483    5416.8626 
  181000      180.987    392.57103    16.136525    -445.0546   -428.91807    8177.4192   -5751.8804   -5821.1584    36105.296    15.648651    13.552142    25.542465    5416.8605 
  181500      181.487    419.45776    17.241697   -446.13388   -428.89219    7217.0436   -5922.2012   -6862.6902    34436.022    15.648653    13.552144    25.542448    5416.8585 
  182000      181.987    389.72769     16.01965   -444.88445    -428.8648    7813.8544   -3811.8705   -2254.2635    29507.697    15.648655    13.552146     25.54243    5416.8564 
  182500      182.487    416.78889    17.131993    -445.9716    -428.8396    8287.1885    -4371.532   -4440.7053    33673.803    15.648658    13.552148    25.542413    5416.8543 
  183000      182.987    389.11337    15.994399   -444.80678   -428.81238    8191.1187   -6147.8344   -3443.7761    34164.967     15.64866     13.55215    25.542395    5416.8522 
  183500      183.487    406.78209    16.720666   -445.50694   -428.78627    6953.3468   -7116.1543   -6092.8329    34069.028    15.648662    13.552152    25.542378    5416.8501 
  184000      183.987    437.19439    17.970756   -446.73198   -428.76122    7131.8265   -7742.7535   -1259.7576    30397.991    15.648665    13.552154     25.54236    5416.8481 
  184500      184.487    397.47844    16.338242   -445.07187   -428.73363    8568.9608   -6747.8834   -2353.4296    34808.195    15.648667    13.552156    25.542343     5416.846 
  185000      184.987    406.95778    16.727888   -445.43554   -428.70765    9373.1857   -6214.5275   -1929.6834    36263.768    15.648669    13.552158    25.542325    5416.8439 
  185500      185.487    407.14121    16.735428    -445.4166   -428.68117    7368.9561   -7772.5843   -2312.2915    32191.744    15.648672     13.55216    25.542308    5416.8418 
  186000      185.987    384.62467    15.809892   -444.46388   -428.65399    9411.9208   -1549.1093   -4674.9106    34459.782    15.648674    13.552163     25.54229    5416.8398 
  186500      186.487    423.36394    17.402259   -446.03034   -428.62809    6671.1315   -6938.0561   -7006.7774    33958.228    15.648676    13.552165    25.542273    5416.8377 
  187000      186.987    414.09692     17.02134   -445.62383   -428.60249    7635.4023   -5198.7005   -2409.9485    30514.856    15.648679    13.552167    25.542255    5416.8356 
  187500      187.487    405.75482    16.678441   -445.25358   -428.57514    7251.1506   -7478.8724   -3019.0388    32251.363    15.648681    13.552169    25.542238    5416.8335 
  188000      187.987    427.21333    17.560487   -446.11088   -428.55039    6778.2934   -7190.5892   -3615.2871    31140.756    15.648684    13.552171     25.54222    5416.8314 
  188500      188.487    415.56607     17.08173   -445.60465   -428.52292    9112.9945   -4041.4045   -3148.9923     34529.38    15.648686    13.552173    25.542203    5416.8294 
  189000      188.987    393.91197    16.191644   -444.68715   -428.49551    7302.1937   -7403.4607   -4109.0986     33419.14    15.648688    13.552175    25.542185    5416.8273 
  189500      189.487    408.83842    16.805191   -445.27531   -428.47012    8677.0014   -6539.9537   -694.02817    33264.986    15.648691    13.552177    25.542168    5416.8252 
  190000      189.987    423.28374    17.398962   -445.84263   -428.44367    8220.0469   -5347.8225   -7948.0589    37956.022    15.648693    13.552179     25.54215    5416.8231 
  190500      190.487    411.68219    16.922084   -445.33939   -428.41731    7988.1914    -3159.812   -6432.1505    33556.537    15.648695    13.552181    25.542133    5416.8211 
  191000      190.987     414.7655    17.048822   -445.43954   -428.39072    8201.8532   -7124.2373   -3967.5193    35697.316    15.648698    13.552183    25.542115     5416.819 
  191500      191.487    419.77444    17.254713   -445.61926   -428.36455    8696.9725   -6333.8569   -3951.0377    36375.812      15.6487    13.552185    25.542098    5416.8169 
  192000      191.987    392.01082    16.113497   -444.45114   -428.33764    9234.5549   -4544.0501   -2962.6216    35210.336    15.648702    13.552187     25.54208    5416.8148 
  192500      192.487    398.05559    16.361966   -444.67342   -428.31145    8480.7708   -3961.6975   -5384.4591    34788.469    15.648705    13.552189    25.542063    5416.8127 
  193000      192.987    409.81381    16.845285   -445.12986   -428.28457    9626.1827   -7795.1576   -2841.5884    39515.294    15.648707    13.552191    25.542045    5416.8107 
  193500      193.487    381.13162    15.666311   -443.92397   -428.25766    8744.6175   -5567.0463   -2025.5091    33826.408    15.648709    13.552193    25.542028    5416.8086 
  194000      193.987    405.64527    16.673938   -444.90512   -428.23119    9304.2202   -4527.3936   -5782.4137    38222.468    15.648712    13.552195     25.54201    5416.8065 
  194500      194.487    394.62628    16.221005    -444.4247    -428.2037    8925.5064   -5000.0972   -3715.2038     35491.82    15.648714    13.552197    25.541993    5416.8044 
  195000      194.987    377.90574    15.533712   -443.70992   -428.17621    7870.8338   -3994.0988   -1462.1426    29068.743    15.648716    13.552199    25.541975    5416.8023 
  195500      195.487    405.71857    16.676951   -444.82862   -428.15167    8949.5738   -4032.0526   -4490.7419    35371.516    15.648719    13.552201    25.541958    5416.8003 
  196000      195.987    426.10763    17.515037   -445.64025   -428.12522    8509.8114   -4579.6573   -4414.6644    34523.756    15.648721    13.552204     25.54194    5416.7982 
  196500      196.487     407.9702    16.769503   -444.86821   -428.09871    9095.6532    -7890.736   -2178.4694    37356.165    15.648723    13.552206    25.541923    5416.7961 
  197000      196.987     419.9926    17.263681   -445.33425   -428.07057    8341.4821   -6797.2842   -4214.1209    36035.852    15.648726    13.552208    25.541905     5416.794 
  197500      197.487    430.36936    17.690215   -445.73466   -428.04444    7610.5657   -6648.5988   -2577.3754    32057.671    15.648728     13.55221    25.541888     5416.792 
  198000      197.987    374.47422     15.39266   -443.40791   -428.01525     8489.091    -7704.457   -3913.1619    37084.892    15.648731    13.552212     25.54187    5416.7899 
  198500      198.487    428.52169    17.614267   -445.60505   -427.99078     8440.312   -7583.0939    -1493.943    34397.973    15.648733    13.552214    25.541853    5416.7878 
  199000      198.987    426.53417     17.53257   -445.49646   -427.96389    7968.7199   -5575.4498   -5221.4398    34703.049    15.648735    13.552216    25.541835    5416.7857 
  199500      199.487    422.86308    17.381671    -445.3181   -427.93643    8488.2207   -7123.7487   -2564.2347    35152.646    15.648738    13.552218    25.541818    5416.7836 
  200000      199.987    425.26401    17.480361   -445.39158   -427.91122    8066.6231   -6266.8194    -2636.032    33102.721     15.64874     13.55222      25.5418    5416.7816 
  200500      200.487    416.62961    17.125446   -445.01021   -427.88476    5973.2825   -8713.2727   -4476.3157    31109.436    15.648742    13.552222    25.541783    5416.7795 
  201000      200.987    394.34349    16.209381    -444.0666   -427.85722    9197.8763   -5360.3713   -3682.0995      36636.1    15.648745    13.552224    25.541765    5416.7774 
  201500      201.487    425.47109    17.488873   -445.31911   -427.83023    6877.1287   -3094.8801   -8008.6742     31734.94    15.648747    13.552226    25.541748    5416.7753 
  202000      201.987    434.08413    17.842909   -445.64679   -427.80389    7961.0814   -6947.6011    -8258.841    39089.686    15.648749    13.552228     25.54173    5416.7732 
  202500      202.487    422.11532    17.350935   -445.12815   -427.77722    8301.3616   -8542.4038   -3765.2831    37211.772    15.648752     13.55223    25.541713    5416.7712 
  203000      202.987    410.15389    16.859263   -444.61055   -427.75128    9160.3211   -3269.9835   -3941.7955    34692.742    15.648754    13.552232    25.541695    5416.7691 
  203500      203.487    416.87989    17.135734   -444.85927   -427.72354     8804.889   -6035.5661   -3226.8687    35677.102    15.648756    13.552234    25.541678     5416.767 
  204000      203.987    422.56723     17.36951   -445.06626   -427.69675    8316.4785   -3406.9045   -3920.5806    32276.921    15.648759    13.552236     25.54166    5416.7649 
  204500      204.487    413.11895    16.981141   -444.65036   -427.66922     6496.135    -8501.367   -4610.3383     32600.11    15.648761    13.552238    25.541643    5416.7629 
  205000      204.987    405.17079    16.654434   -444.29623    -427.6418    7420.6435   -7763.4886   -4471.5845    34497.004    15.648763     13.55224    25.541625    5416.7608 
  205500      205.487    400.14457    16.447833    -444.0623   -427.61446    8532.3437   -8366.0636   -1623.0954     35586.19    15.648766    13.552242    25.541608    5416.7587 
  206000      205.987    394.36524    16.210275    -443.7982   -427.58792    10193.239   -4497.7855   -2426.2313    37503.733    15.648768    13.552245     25.54159    5416.7566 
  206500      206.487    424.68312    17.456483   -445.01802   -427.56154    7924.5406   -5654.0108   -4664.2467    34091.879     15.64877    13.552247    25.541573    5416.7545 
  207000      206.987    426.38953    17.526625   -445.06121   -427.53458    7079.5849   -5494.4896   -4713.9679    31447.212    15.648773    13.552249    25.541555    5416.7525 
  207500      207.487    431.39441    17.732349   -445.23916   -427.50682    7481.5802   -3311.0363   -4606.0542    30361.831    15.648775    13.552251    25.541538    5416.7504 
  208000      207.987    405.61107    16.672532   -444.15236   -427.47983    8180.7443   -4016.5479   -6312.4574    34871.238    15.648778    13.552253     25.54152    5416.7483 
  208500      208.487    424.82209    17.462196   -444.91464   -427.45244    8811.0643   -5412.3553   -3450.3453    35295.893     15.64878    13.552255    25.541503    5416.7462 
  209000      208.987    427.54657    17.574185   -444.99922   -427.42503    9475.3913   -6893.7757   -303.06777    35623.017    15.648782    13.552257    25.541485    5416.7441 
  209500      209.487    421.11869    17.309968   -444.70756    -427.3976    8467.5719   -5381.5016   -4376.9531     35161.17    15.648785    13.552259    25.541468    5416.7421 
  210000      209.987    433.36204    17.813228   -445.18361   -427.37038    8776.0909   -10070.828   -1955.6195     38354.72    15.648787    13.552261     25.54145      5416.74 
  210500      210.487    421.42652    17.322622   -444.66516   -427.34254    8226.9763   -5420.2454   -4677.5033    34778.678    15.648789    13.552263    25.541433    5416.7379 
  211000      210.987    443.50876    18.230306   -445.54499   -427.31468    7402.0493   -5712.3498   -3243.2622     31161.76    15.648792    13.552265    25.541415    5416.7358 
  211500      211.487    404.23389    16.615923   -443.90402   -427.28809    8505.5392   -6512.6871   -5265.3467    37294.651    15.648794    13.552267    25.541398    5416.7338 
  212000      211.987    436.36441     17.93664    -445.1971   -427.26046    7346.8912   -3310.5386   -6304.0599    31655.272    15.648796    13.552269     25.54138    5416.7317 
[...]
  948500      948.487    565.97244    23.264142   -438.44014     -415.176    14067.767    -359.1671   -3352.3764    45914.846    15.652258    13.555289    25.515603    5413.6678 
  949000      948.987     552.2903    22.701742    -437.8762   -415.17446    13688.427   -998.13776     95.43327    41967.985     15.65226    13.555291    25.515585    5413.6657 
  949500      949.487    570.91162    23.467166   -438.64176   -415.17459    14333.824   -1622.5796    1772.3193    42851.733    15.652263    13.555293    25.515568    5413.6637 
  950000      949.987    607.00447    24.950753   -440.12607   -415.17532    13509.246   -1674.7797    3561.1103    38641.406    15.652265    13.555295     25.51555    5413.6616 
  950500      950.487    609.90995    25.070181   -440.24859    -415.1784    13151.377   -2021.8526     2457.268    39018.715    15.652267    13.555297    25.515533    5413.6595 
  951000      950.987    534.93777     21.98847   -437.16324   -415.17476    15426.016   -3407.9136    4962.4961    44723.467     15.65227    13.555299    25.515515    5413.6574 
  951500      951.487    600.29879    24.675117    -439.8485   -415.17338    13818.646   -2158.8687   -272.04976    43886.857    15.652272    13.555301    25.515498    5413.6553 
  952000      951.987    569.43858    23.406617   -438.58256   -415.17594    16725.092   -304.36415    5738.3302    44741.311    15.652274    13.555303     25.51548    5413.6533 
  952500      952.487    558.82226    22.970236   -438.14632   -415.17608    14411.659   -2524.6614    4186.1747    41573.465    15.652277    13.555305    25.515463    5413.6512 
  953000      952.987    587.84544    24.163226   -439.34157   -415.17835    13688.936   -1825.5227    -1220.861    44113.192    15.652279    13.555307    25.515445    5413.6491 
  953500      953.487    589.63932    24.236963   -439.41443   -415.17747    13943.834   -1604.6378   -512.15334    43948.292    15.652281    13.555309    25.515428     5413.647 
  954000      953.987    570.40931    23.446518   -438.62548   -415.17896    12743.825   -1791.6695   -860.75117    40883.895    15.652284    13.555311     25.51541    5413.6449 
  954500      954.487    536.92242    22.070049   -437.24647   -415.17642    12824.959     -4468.63   -1245.6537     44189.16    15.652286    13.555313    25.515393    5413.6429 
  955000      954.987    526.92154    21.658965   -436.83721   -415.17825    13497.082   -4365.7874   -1209.1578    46066.191    15.652288    13.555315    25.515375    5413.6408 
  955500      955.487    559.97666    23.017687   -438.19563   -415.17794    12705.012   -2624.3954    -35.60956    40775.042    15.652291    13.555317    25.515358    5413.6387 
  956000      955.987    606.09139    24.913221   -440.09238   -415.17916    13048.872    1010.3204   -1950.0655    40086.362    15.652293     13.55532     25.51534    5413.6366 
  956500      956.487    553.58745    22.755061   -437.93294   -415.17788    14219.962    1253.2505   -3828.7208    45235.358    15.652295    13.555322    25.515323    5413.6345 
  957000      956.987    570.42641    23.447221   -438.62421   -415.17699    14695.432   -623.56656      550.373     44159.49    15.652298    13.555324    25.515305    5413.6324 
  957500      957.487    556.88746    22.890706   -438.06746   -415.17675    14177.508    245.71389     98.60154    42188.208      15.6523    13.555326    25.515288    5413.6304 
  958000      957.987    549.28921    22.578383   -437.75334   -415.17496    14619.322     1905.801    -2210.594     44162.76    15.652303    13.555328     25.51527    5413.6283 
  958500      958.487    562.96562    23.140548   -438.31413   -415.17358     13924.81    2244.4624   -257.02675    39786.995    15.652305     13.55533    25.515253    5413.6262 
  959000      958.987    571.05751    23.473162   -438.64855   -415.17539    13889.179    1171.6249   -39.397613    40535.309    15.652307    13.555332    25.515235    5413.6241 
  959500      959.487    586.12129    24.092355   -439.26666    -415.1743    13606.769    129.14091    2221.1151    38470.051     15.65231    13.555334    25.515218     5413.622 
  960000      959.987    589.00928    24.211065   -439.38639   -415.17533    15100.171   -1327.8286    1137.0481    45491.292    15.652312    13.555336      25.5152      5413.62 
  960500      960.487    555.51363    22.834236   -438.00898   -415.17474    12893.449    1825.5573   -1547.2513    38402.042    15.652314    13.555338    25.515183    5413.6179 
  961000      960.987    587.29487    24.140595   -439.31528   -415.17468    12732.647   -908.77218    1861.4724    37245.241    15.652317     13.55534    25.515165    5413.6158 
  961500      961.487    580.40324    23.857316   -439.03351   -415.17619    15007.539   -1462.1271   -127.91039    46612.655    15.652319    13.555342    25.515148    5413.6137 
  962000      961.987    552.56392    22.712989   -437.88666   -415.17368    14785.332   -2293.8221     265.2907    46384.526    15.652321    13.555344     25.51513    5413.6116 
  962500      962.487    560.59018    23.042906   -438.21737   -415.17447    15229.244    2482.1921    950.61743    42254.922    15.652324    13.555346    25.515113    5413.6095 
  963000      962.987    576.65604    23.703289   -438.87699    -415.1737    12470.079   -3281.6888    629.12602    40062.799    15.652326    13.555348    25.515095    5413.6075 
  963500      963.487     579.7315    23.829705   -439.00081    -415.1711    14831.024    1417.6077    3291.5237    39783.939    15.652328     13.55535    25.515078    5413.6054 
  964000      963.987    564.60588     23.20797   -438.37919   -415.17122    14641.434   -2119.7158    1521.8889    44522.129    15.652331    13.555352     25.51506    5413.6033 
  964500      964.487    577.19161    23.725303   -438.89323   -415.16792    14685.466   -453.14296    1.7254679    44507.815    15.652333    13.555354    25.515043    5413.6012 
  965000      964.987    554.72036    22.801628   -437.96597   -415.16434    14169.272    905.75896    519.66894    41082.387    15.652335    13.555356    25.515025    5413.5991 
  965500      965.487    571.54941    23.493382   -438.65436   -415.16098     14694.06    1034.4172   -66.872077    43114.636    15.652338    13.555358    25.515008    5413.5971 
  966000      965.987    594.71689    24.445675   -439.60571   -415.16004    14877.608    -3704.862    2316.8285    46020.859     15.65234    13.555361     25.51499     5413.595 
  966500      966.487      542.684    22.306877   -437.46507   -415.15819    16285.245   -335.61295    2726.6653    46464.683    15.652342    13.555363    25.514973    5413.5929 
  967000      966.987    588.02478    24.170598   -439.32936   -415.15876    13822.537   -2107.6239    237.41489    43337.819    15.652345    13.555365    25.514955    5413.5908 
  967500      967.487    580.12952    23.846065   -439.00124   -415.15517    14376.146    -1105.801    2907.8569    41326.382    15.652347    13.555367    25.514938    5413.5887 
  968000      967.987    554.58525    22.796075   -437.95002   -415.15395    14493.933    96.605058   -2017.5194    45402.714     15.65235    13.555369     25.51492    5413.5867 
  968500      968.487    536.22507    22.041385   -437.19197   -415.15058    15775.482   -874.95012    3669.2016    44532.195    15.652352    13.555371    25.514903    5413.5846 
  969000      968.987    563.36818    23.157095   -438.30485   -415.14776    15012.383    1249.6758    1990.7289    41796.744    15.652354    13.555373    25.514885    5413.5825 
  969500      969.487    576.67011    23.703867   -438.84895   -415.14508    14563.788   -2422.6295    1032.5756    45081.418    15.652357    13.555375    25.514868    5413.5804 
  970000      969.987     600.5592    24.685822   -439.82947   -415.14365    14854.016   -2759.2852    5091.4019     42229.93    15.652359    13.555377     25.51485    5413.5783 
  970500      970.487    563.89553    23.178771   -438.32268   -415.14391    15268.531   -186.16633    629.57958    45362.178    15.652361    13.555379    25.514833    5413.5762 
  971000      970.987    560.37893    23.034223   -438.17328   -415.13906    14476.633    2851.9013   -954.32145    41532.319    15.652364    13.555381    25.514815    5413.5742 
  971500      971.487    576.14308    23.682203   -438.82059   -415.13839    13928.784   -776.15883    2285.7255    40276.786    15.652366    13.555383    25.514798    5413.5721 
  972000      971.987    547.34641    22.498524   -437.63425   -415.13572    12795.856   -1287.9014    342.23748    39333.232    15.652368    13.555385     25.51478      5413.57 
  972500      972.487     608.8451    25.026411   -440.16092   -415.13451    14037.264   -803.29893    1445.3202     41469.77    15.652371    13.555387    25.514763    5413.5679 
  973000      972.987    562.76605    23.132344   -438.26179   -415.12945     14607.22    58.891618    3141.6575    40621.112    15.652373    13.555389    25.514745    5413.5658 
  973500      973.487    544.30466    22.373494    -437.4981    -415.1246     14341.68   -688.48904   -2004.4697    45717.997    15.652375    13.555391    25.514728    5413.5638 
  974000      973.987    555.54131    22.835374   -437.95988    -415.1245    14640.785    465.48326    1392.2578    42064.614    15.652378    13.555393     25.51471    5413.5617 
  974500      974.487    587.62283    24.154076   -439.27603   -415.12195    13792.402   -2134.9032     1286.954    42225.156     15.65238    13.555395    25.514693    5413.5596 
  975000      974.987    584.64334    24.031604   -439.15101    -415.1194    12228.786   -2335.4585   -619.49487    39641.312    15.652382    13.555397    25.514675    5413.5575 
  975500      975.487    578.78497    23.790798   -438.90697   -415.11617    15110.527   -4073.5536    1475.9486    47929.187    15.652385    13.555399    25.514658    5413.5554 
  976000      975.987    576.50603    23.697123   -438.81259   -415.11547    13451.766   -721.10076    -1800.408    42876.807    15.652387    13.555402     25.51464    5413.5533 
  976500      976.487     547.6372    22.510477   -437.62205   -415.11157    16092.859   -4295.9381    3385.8339    49188.681    15.652389    13.555404    25.514623    5413.5513 
  977000      976.987    572.88042    23.548093   -438.65712   -415.10903    15114.484   -52.505675    1292.5309    44103.427    15.652392    13.555406    25.514605    5413.5492 
  977500      977.487    589.85263    24.245731   -439.35149   -415.10575    15550.782   -1245.8607    2270.8198    45627.386    15.652394    13.555408    25.514588    5413.5471 
  978000      977.987    559.26912    22.988604   -438.09107   -415.10247     13913.22   -3749.2436    688.30113    44800.603    15.652397     13.55541     25.51457     5413.545 
  978500      978.487    542.94645    22.317665   -437.41709   -415.09943    13979.861    307.97149   -1892.2564    43523.869    15.652399    13.555412    25.514553    5413.5429 
  979000      978.987    557.22837     22.90472   -438.00097   -415.09625    14397.435    2327.4599    -2221.645    43086.491    15.652401    13.555414    25.514535    5413.5409 
  979500      979.487    582.17623    23.930195   -439.02698   -415.09679    15736.496   -1798.4681    1119.7906    47888.165    15.652404    13.555416    25.514518    5413.5388 
  980000      979.987    519.84686    21.368163   -436.45931   -415.09115    16449.479    1288.3502   -1657.2009    49717.287    15.652406    13.555418      25.5145    5413.5367 
  980500      980.487     592.1599    24.340571   -439.42995   -415.08938    13328.775   -2023.1392    2183.4589    39826.004    15.652408     13.55542    25.514483    5413.5346 
  981000      980.987    595.30108    24.469688   -439.55624   -415.08655    12419.928    -2384.819     275.5274    39369.075    15.652411    13.555422    25.514465    5413.5325 
  981500      981.487    580.80946    23.874014   -438.95604   -415.08203    13657.418    -311.5005    698.24964    40585.503    15.652413    13.555424    25.514448    5413.5304 
  982000      981.987    588.24265    24.179553   -439.25848   -415.07892     13181.43   -1898.5581   -1151.1117    42593.959    15.652415    13.555426     25.51443    5413.5284 
  982500      982.487    577.55508    23.740243   -438.81577   -415.07553    13660.473   -32.906689    3440.1149    37574.209    15.652418    13.555428    25.514413    5413.5263 
  983000      982.987    562.07956    23.104126   -438.17646   -415.07233    12845.981   -5014.2086    808.95829    42743.193     15.65242     13.55543    25.514395    5413.5242 
  983500      983.487    573.01489     23.55362   -438.62113   -415.06751    12661.979    -3791.826    2173.8901    39603.872    15.652422    13.555432    25.514378    5413.5221 
  984000      983.987      561.647    23.086346   -438.14929   -415.06295    14231.421    901.27133   -378.01114    42171.003    15.652425    13.555434     25.51436      5413.52 
  984500      984.487    584.73822    24.035504   -439.09657   -415.06107    14245.898   -3902.8056    2790.7505    43849.749    15.652427    13.555436    25.514343     5413.518 
  985000      984.987    587.49355    24.148762   -439.20631   -415.05755    13119.849   -3353.1311   -680.39719    43393.076    15.652429    13.555438    25.514325    5413.5159 
  985500      985.487    573.04882    23.555015   -438.60881    -415.0538     13382.05    -5624.051    5330.4423     40439.76    15.652432     13.55544    25.514308    5413.5138 
  986000      985.987    601.82924    24.738026    -439.7894   -415.05137    14963.063   -1727.1553    2408.3443    44208.001    15.652434    13.555443     25.51429    5413.5117 
  986500      986.487    608.47343    25.011134   -440.05933   -415.04819    12247.478   -1674.5478    605.50724    37811.474    15.652436    13.555445    25.514273    5413.5096 
  987000      986.987    579.55082    23.822278   -438.86456   -415.04228    15018.592      1030.04    1745.0401    42280.696    15.652439    13.555447    25.514255    5413.5076 
  987500      987.487    583.15595    23.970466    -439.0089   -415.03844    14030.226   -1909.1664   -742.32091    44742.166    15.652441    13.555449    25.514238    5413.5055 
  988000      987.987    565.64609    23.250728   -438.28366   -415.03293    14210.982    1041.5135    1667.5797    39923.852    15.652444    13.555451     25.51422    5413.5034 
  988500      988.487    562.43411      23.1187   -438.14714   -415.02844      14809.1   -3267.1495    1899.7357    45794.714    15.652446    13.555453    25.514203    5413.5013 
  989000      988.987     568.0255    23.348533   -438.37272   -415.02419    12741.507   -1904.2749   -114.79509    40243.591    15.652448    13.555455    25.514185    5413.4992 
  989500      989.487    565.13479    23.229711   -438.24795   -415.01824    15490.833     -551.104   -864.36097    47887.963    15.652451    13.555457    25.514168    5413.4971 
  990000      989.987    579.44115     23.81777   -438.83631   -415.01854    13054.601   -2916.7513     2499.815    39580.738    15.652453    13.555459     25.51415    5413.4951 
  990500      990.487    574.74048     23.62455   -438.63686   -415.01231    14778.886    1824.9749   -2119.2563    44630.939    15.652455    13.555461    25.514133     5413.493 
  991000      990.987    534.97776    21.990114   -436.99762    -415.0075     14723.76   -2183.6049    971.54747    45383.338    15.652458    13.555463    25.514115    5413.4909 
  991500      991.487    586.27288    24.098586   -439.10267   -415.00408    13947.705   -916.14754   -1878.0988    44637.361     15.65246    13.555465    25.514098    5413.4888 
  992000      991.987     578.5577    23.781456   -438.77884   -414.99739    14044.055    310.42918   -1807.5935     43629.33    15.652462    13.555467     25.51408    5413.4867 
  992500      992.487    552.03004    22.691044   -437.68359   -414.99254    15389.209   -278.90631    4391.6079    42054.925    15.652465    13.555469    25.514063    5413.4847 
  993000      992.987    551.43129    22.666432   -437.65097   -414.98454    14139.832   -5655.2357    480.62217    47594.109    15.652467    13.555471    25.514045    5413.4826 
  993500      993.487    561.17309    23.066866   -438.04819   -414.98132     13508.99   -2633.2617    2868.1376    40292.095    15.652469    13.555473    25.514028    5413.4805 
  994000      993.987    536.54687    22.054612   -437.03011   -414.97549    13763.427   -5389.3787    1323.9906    45355.668    15.652472    13.555475     25.51401    5413.4784 
  994500      994.487    547.16015    22.490868   -437.46247    -414.9716    13744.715   -2048.6657   -1509.6118    44792.422    15.652474    13.555477    25.513993    5413.4763 
  995000      994.987    573.02522    23.554045   -438.52318   -414.96913    12861.561   -346.44837   -1764.6833    40695.815    15.652476    13.555479    25.513975    5413.4742 
  995500      995.487    568.09273    23.351296   -438.31548   -414.96419    14397.701    647.43911   -141.31884    42686.983    15.652479    13.555481    25.513958    5413.4722 
  996000      995.987    538.40874    22.131144    -437.0886   -414.95745    14833.152   -3897.3099    1416.5183    46980.248    15.652481    13.555484     25.51394    5413.4701 
  996500      996.487    567.24259    23.316351   -438.26903   -414.95267    15585.707    3164.2045   -1418.6363    45011.553    15.652483    13.555486    25.513923     5413.468 
  997000      996.987    562.71788    23.130364   -438.07885   -414.94848    14118.485   -277.90907   -4254.9626    46888.328    15.652486    13.555488    25.513905    5413.4659 
  997500      997.487    550.33644    22.621429   -437.56551   -414.94409     16284.15    750.43651    1822.6499    46279.364    15.652488     13.55549    25.513888    5413.4638 
  998000      997.987    572.68437    23.540034    -438.4782   -414.93817    13846.277   -965.14294   -48.790771    42552.765    15.652491    13.555492     25.51387    5413.4618 
  998500      998.487    598.22031    24.589682   -439.52213   -414.93244    14534.084    203.28002   -2230.5292    45629.501    15.652493    13.555494    25.513853    5413.4597 
  999000      998.987    559.43643    22.995481   -437.92115   -414.92567    16192.357   -1773.0402    1860.8329    48489.277    15.652495    13.555496    25.513835    5413.4576 
  999500      999.487    576.28638    23.688094   -438.60915   -414.92105    14564.988   -2747.6399    -2242.733    48685.337    15.652498    13.555498    25.513818    5413.4555 
 1000000      999.987    567.83987    23.340902   -438.25627   -414.91536    14416.494    2824.2225    -1666.464    42091.722      15.6525      13.5555      25.5138    5413.4534 
 1000013         1000     598.3384    24.594536      -439.51   -414.91546    13926.556    1895.5219   -1375.6633     41259.81      15.6525      13.5555      25.5138    5413.4534 
Loop time of 963.331 on 28 procs for 1000000 steps with 319 atoms

Performance: 89.689 ns/day, 0.268 hours/ns, 1038.065 timesteps/s
87.3% CPU use with 28 MPI tasks x no OpenMP threads

MPI task timing breakdown:
Section |  min time  |  avg time  |  max time  |%varavg| %total
---------------------------------------------------------------
Pair    | 757.11     | 821.41     | 892.22     |  98.8 | 85.27
Neigh   | 0.023623   | 0.039404   | 0.053639   |   4.0 |  0.00
Comm    | 60.844     | 130.59     | 192.92     | 242.7 | 13.56
Output  | 0.099893   | 0.10191    | 0.12218    |   1.2 |  0.01
Modify  | 4.7238     | 6.1314     | 7.9348     |  33.9 |  0.64
Other   |            | 5.052      |            |       |  0.52

Nlocal:    11.3929 ave 17 max 7 min
Histogram: 2 2 3 5 1 5 6 0 2 2
Nghost:    676.25 ave 732 max 647 min
Histogram: 4 6 4 5 5 0 1 0 1 2
Neighs:    726.679 ave 1030 max 428 min
Histogram: 2 2 3 4 2 2 7 2 2 2
FullNghs:  1453.36 ave 2154 max 904 min
Histogram: 3 4 3 3 0 8 3 0 2 2

Total # of neighbors = 40694
Ave neighs/atom = 127.567
Neighbor list builds = 575
Dangerous builds = 0

write_restart   POSCAR_1x1x1.rest

#unfix    1
#undump   1
Total wall time: 0:16:03
