LAMMPS (7 Dec 2015)
#----------- Initialize Simulation ------------ restart01
#processors	2 2 2
units		metal
boundary	p p p     ## periodic boundary condition  on x y z axis ##
atom_style atomic
#atom_modify map array sort 0 0.0

read_data	POSCAR_1x1x1.lammps
  triclinic box = (0 0 0) to (15.5859 13.4978 26.0037) with tilt (-7.79285 0 0)
  2 by 2 by 7 MPI processor grid
  reading atoms ...
  319 atoms

#----------- Define Potential -----------------
pair_style meam
pair_coeff * * MgAlZn.library.meam Mg Al Zn MgAlZn.parameter.meam Mg Al Zn 	#1=Mg 2=Al 3=Zn	#atoms/mass

#----------- Neighbor List --------------------
neighbor 2.0 bin
neigh_modify delay 10 check yes

#--------------  Run a simulation (minimization) ---------------------------------------
minimize       1.0e-4   1.0e-6   100   1000          #結構優化的條件
WARNING: Resetting reneighboring criteria during minimization (../min.cpp:168)
Neighbor list info ...
  2 neighbor list requests
  update every 1 steps, delay 0 steps, check yes
  max neighbors/atom: 2000, page size: 100000
  master list distance cutoff = 8
  ghost atom cutoff = 8
  binsize = 4 -> bins = 6 4 7
Memory usage per processor = 8.65076 Mbytes
Step Temp E_pair E_mol TotEng Press 
       0            0   -437.24097            0   -437.24097    8855.0143 
      13            0   -459.70606            0   -459.70606   -9311.3383 
Loop time of 0.0225415 on 28 procs for 13 steps with 319 atoms

88.0% CPU use with 28 MPI tasks x no OpenMP threads

Minimization stats:
  Stopping criterion = energy tolerance
  Energy initial, next-to-last, final = 
        -437.240973021     -459.677750641     -459.706063937
  Force two-norm initial, final = 22.2434 0.569113
  Force max component initial, final = 2.70281 0.142011
  Final line search alpha, max atom move = 0.393899 0.0559381
  Iterations, force evaluations = 13 23

MPI task timing breakdown:
Section |  min time  |  avg time  |  max time  |%varavg| %total
---------------------------------------------------------------
Pair    | 0.017804   | 0.019185   | 0.020263   |   0.4 | 85.11
Neigh   | 0          | 0          | 0          |   0.0 |  0.00
Comm    | 0.0013821  | 0.0024309  | 0.0037648  |   1.1 | 10.78
Output  | 0          | 0          | 0          |   0.0 |  0.00
Modify  | 0          | 0          | 0          |   0.0 |  0.00
Other   |            | 0.0009252  |            |       |  4.10

Nlocal:    11.3929 ave 16 max 6 min
Histogram: 1 1 3 2 2 6 2 5 2 4
Nghost:    657.607 ave 670 max 642 min
Histogram: 2 1 2 1 5 3 6 2 4 2
Neighs:    724.107 ave 1031 max 361 min
Histogram: 1 2 2 3 6 1 4 4 3 2
FullNghs:  1448.21 ave 2052 max 754 min
Histogram: 2 3 2 2 5 2 1 6 3 2

Total # of neighbors = 40550
Ave neighs/atom = 127.116
Neighbor list builds = 0
Dangerous builds = 0
velocity all  create 600.0 4928459 #rot yes dist gaussian

#--------------  Run a simulation (Relaxation)  ----------------------------------------
fix  1  all  nvt   temp  600.0  600.0  100				#damping constant
#fix  2  all  npt   temp  393.0  393.0  50 iso 0.0 0.0 1000.0
fix  2  all deform 1 x final 0 15.5907 y final 0 13.5019 z final 0 25.9687 xy final -7.79525 units lattice
#fix  3  all  npt   temp  393.0  393.0  50 z 0.0 0.0 1000.0

#variable b equal 1
#fix 2 all efield  0.0  0.0  v_b
#compute pot all pe/atom


#----------- Output --------------------------
thermo	 500
timestep  0.001		#1.0 fs
thermo_style	custom step time temp ke pe etotal press pxx pyy pzz lx ly lz vol

dump 1 all custom 10000 dump.eq id type x y z
dump_modify 1 sort  id

run        1000000	#1000 ps
Neighbor list info ...
  2 neighbor list requests
  update every 1 steps, delay 10 steps, check yes
  max neighbors/atom: 2000, page size: 100000
  master list distance cutoff = 8
  ghost atom cutoff = 8
  binsize = 4 -> bins = 6 4 7
Memory usage per processor = 7.55959 Mbytes
Step Time Temp KinEng PotEng TotEng Press Pxx Pyy Pzz Lx Ly Lz Volume 
      13            0          600    24.662836   -459.70606   -435.04323   -4495.9415    -14383.78   -10344.563    11240.519      15.5859      13.4978      26.0037    5470.5378 
     500        0.487    321.52312     13.21612    -448.2549   -435.03878    1066.3027   -13257.064   -6044.4025    22500.374    15.585902    13.497802    26.003683    5470.5358 
    1000        0.987    325.48898    13.379135    -448.4174   -435.03826    1766.6488   -10688.387   -6526.5107    22514.844    15.585905    13.497804    26.003665    5470.5338 
    1500        1.487    304.89494    12.532623   -447.57007   -435.03745    3384.6137   -7153.1713   -8420.4321    25727.444    15.585907    13.497806    26.003648    5470.5318 
    2000        1.987    300.86712    12.367061     -447.403   -435.03594    2569.3613   -8869.9642    -5237.049    21815.097     15.58591    13.497808     26.00363    5470.5298 
    2500        2.487    301.58476    12.396559   -447.43121   -435.03465    2992.7942   -10528.271   -6102.9749    25609.628    15.585912     13.49781    26.003613    5470.5278 
    3000        2.987    309.45365    12.720007   -447.75231   -435.03231    2951.5188     -9630.05   -5431.6945    23916.301    15.585914    13.497812    26.003595    5470.5258 
    3500        3.487    324.42629    13.335454   -448.36644   -435.03099    2090.7631   -10402.541   -9181.6619    25856.493    15.585917    13.497814    26.003578    5470.5238 
    4000        3.987    320.82085    13.187253   -448.21551   -435.02826    1755.5299   -11247.297   -7325.4582    23839.345    15.585919    13.497816     26.00356    5470.5218 
    4500        4.487    315.60672    12.972928   -447.99858   -435.02566    2754.0518    -10280.77   -7928.0084    26470.934    15.585922    13.497818    26.003543    5470.5198 
    5000        4.987    300.83187    12.365611   -447.38773   -435.02212    1802.6587   -10520.147   -7538.8479    23466.971    15.585924     13.49782    26.003525    5470.5177 
    5500        5.487    321.51228    13.215674   -448.23449   -435.01882    2562.2962   -9600.5641   -7270.8441    24558.297    15.585926    13.497822    26.003508    5470.5157 
    6000        5.987    325.11688     13.36384   -448.38013   -435.01629    2256.0168   -10511.579   -5945.9328    23225.562    15.585929    13.497825     26.00349    5470.5137 
    6500        6.487    296.47477    12.186514    -447.1976   -435.01108    3150.7682   -10760.387   -3437.9216    23650.613    15.585931    13.497827    26.003473    5470.5117 
    7000        6.987    292.38378    12.018355   -447.02539   -435.00703    3605.4668   -7373.1047   -6944.2438    25133.749    15.585934    13.497829    26.003455    5470.5097 
    7500        7.487    300.97061    12.371315   -447.37389   -435.00258    3102.6197   -8567.8853   -6427.8714    24303.616    15.585936    13.497831    26.003438    5470.5077 
    8000        7.987    304.40148    12.512339   -447.50998   -434.99764    2798.7539   -9394.1437   -5724.4394    23514.845    15.585938    13.497833     26.00342    5470.5057 
    8500        8.487    325.34138    13.373068   -448.36688   -434.99381    2864.8294   -9023.9914    -5490.009    23108.489    15.585941    13.497835    26.003403    5470.5037 
    9000        8.987    325.50893    13.379956   -448.36788   -434.98793    1776.0628   -8664.8417   -5834.0836    19827.114    15.585943    13.497837    26.003385    5470.5017 
    9500        9.487    315.17023    12.954986   -447.93645   -434.98146    2387.8707    -9190.961   -7604.4016    23958.975    15.585946    13.497839    26.003368    5470.4997 
   10000        9.987    314.67861    12.934778   -447.91056   -434.97579     2618.569   -9812.0134   -5726.2725    23393.993    15.585948    13.497841     26.00335    5470.4977 
   10500       10.487    293.61917    12.069135   -447.03788   -434.96875    2995.6635   -10768.872   -3481.6488    23237.511     15.58595    13.497843    26.003333    5470.4957 
   11000       10.987    289.12177    11.884271   -446.84683   -434.96256    3134.5698   -9944.2165   -6951.6078    26299.534    15.585953    13.497845    26.003315    5470.4936 
   11500       11.487    301.77506    12.404381   -447.35967   -434.95529     2399.647   -7890.0573   -5911.2383    21000.237    15.585955    13.497847    26.003298    5470.4916 
   12000       11.987    319.24683    13.122553   -448.07073   -434.94817    2837.0985   -7449.6584   -8751.8539    24712.808    15.585958    13.497849     26.00328    5470.4896 
   12500       12.487     309.9519    12.740488   -447.68131   -434.94082      3095.21   -8511.6745   -4912.2615    22709.566     15.58596    13.497851    26.003263    5470.4876 
   13000       12.987    317.95889    13.069613   -448.00232   -434.93271    2348.1887   -11737.981   -5156.4879    23939.035    15.585962    13.497853    26.003245    5470.4856 
   13500       13.487    299.82736    12.324321   -447.24883   -434.92451    2993.4591   -8121.4605   -6972.4637    24074.301    15.585965    13.497855    26.003228    5470.4836 
   14000       13.987    298.52776    12.270902   -447.18642   -434.91552    3254.5018   -10344.251   -2821.6441      22929.4    15.585967    13.497857     26.00321    5470.4816 
   14500       14.487    302.01804    12.414369   -447.32108   -434.90671    728.17461   -11428.337   -5291.4378    18904.298     15.58597    13.497859    26.003193    5470.4796 
   15000       14.987     294.9827    12.125183   -447.02292   -434.89774    2869.0598   -12214.805   -2128.4612    22950.445    15.585972    13.497861    26.003175    5470.4776 
   15500       15.487    313.99269    12.906584   -447.79574   -434.88916    2430.8885   -10130.054   -2508.4124    19931.132    15.585974    13.497863    26.003158    5470.4756 
   16000       15.987    321.43372    13.212445   -448.09205    -434.8796    3023.9094    -8070.165    -5548.562    22690.455    15.585977    13.497866     26.00314    5470.4736 
   16500       16.487    313.88174    12.902023   -447.77155   -434.86953    2734.4219   -9244.0988   -8048.9854     25496.35    15.585979    13.497868    26.003123    5470.4716 
   17000       16.987    318.97721    13.111471   -447.97109   -434.85962    2040.2264   -10711.966   -6950.9468    23783.592    15.585982     13.49787    26.003105    5470.4695 
   17500       17.487    312.33779    12.838559   -447.68703   -434.84847    1718.4841   -9175.7384   -6476.1512    20807.342    15.585984    13.497872    26.003088    5470.4675 
   18000       17.987    307.35182    12.633612   -447.47145   -434.83784    2750.1358    -9671.917   -8388.5156     26310.84    15.585986    13.497874     26.00307    5470.4655 
   18500       18.487    293.09584    12.047624   -446.87371   -434.82609    4055.4707   -7399.3599   -5344.1354    24909.907    15.585989    13.497876    26.003053    5470.4635 
   19000       18.987    301.32955    12.386069   -447.20063   -434.81456    3089.1689   -11409.331    -6210.169    26887.006    15.585991    13.497878    26.003035    5470.4615 
   19500       19.487    316.80796    13.022304   -447.82561    -434.8033    1329.0409   -11737.239   -4456.4598    20180.821    15.585994     13.49788    26.003018    5470.4595 
   20000       19.987    316.34466     13.00326   -447.79453   -434.79127    2049.7131   -11803.339    -5604.239    23556.718    15.585996    13.497882       26.003    5470.4575 
   20500       20.487    302.40412    12.430238   -447.20868   -434.77844    3567.6425   -9569.0056   -6598.1807    26870.114    15.585998    13.497884    26.002983    5470.4555 
   21000       20.987    314.87764    12.942959   -447.70875    -434.7658    1802.9285   -9422.6264   -5553.5387    20384.951    15.586001    13.497886    26.002965    5470.4535 
   21500       21.487    332.51451    13.667918   -448.42127   -434.75335    1284.8158    -11814.62   -7130.8671    22799.934    15.586003    13.497888    26.002948    5470.4515 
   22000       21.987    304.21979    12.504871   -447.24435   -434.73948    3964.0465   -9577.1381   -1484.2619     22953.54    15.586006     13.49789     26.00293    5470.4495 
   22500       22.487    332.82484    13.680674   -448.40626   -434.72558    3117.2613   -11032.217   -5849.7624    26233.763    15.586008    13.497892    26.002913    5470.4475 
   23000       22.987    310.43422    12.760313   -447.47271   -434.71239    2535.7649   -9537.2711   -5542.4622    22687.028     15.58601    13.497894    26.002895    5470.4454 
   23500       23.487    322.87799    13.271811    -447.9697   -434.69789    3466.6614   -8750.5265   -7405.3903    26555.901    15.586013    13.497896    26.002878    5470.4434 
   24000       23.987    326.74377    13.430713    -448.1143   -434.68358    2264.8462   -9038.2518   -4890.6718    20723.462    15.586015    13.497898     26.00286    5470.4414 
   24500       24.487    306.47941    12.597752   -447.26647   -434.66872    1396.7861      -8556.2   -6844.6762    19591.234    15.586018      13.4979    26.002843    5470.4394 
   25000       24.987    319.48899    13.132507   -447.78643   -434.65393    1244.7345   -11254.447   -6099.3981    21088.049     15.58602    13.497902    26.002825    5470.4374 
   25500       25.487    311.63146    12.809526   -447.44855   -434.63903    3285.8464   -8252.7938   -6104.6099    24214.943    15.586022    13.497904    26.002808    5470.4354 
   26000       25.987    325.17046    13.366043   -447.98987   -434.62382    2205.3948   -9661.3348   -4725.3589    21002.878    15.586025    13.497907     26.00279    5470.4334 
   26500       26.487    316.83136    13.023266   -447.63117   -434.60791    1878.7004   -9513.3926   -5994.2909    21143.785    15.586027    13.497909    26.002773    5470.4314 
   27000       26.987    328.62149    13.507896   -448.10018   -434.59228    1771.4379   -9889.7072   -7112.7586     22316.78     15.58603    13.497911    26.002755    5470.4294 
   27500       27.487    328.31465    13.495284   -448.07103   -434.57574    2857.2892   -9137.9798   -3469.5093    21179.357    15.586032    13.497913    26.002738    5470.4274 
   28000       27.987    288.10855    11.842623    -446.4013   -434.55867    3836.3923    -7988.329   -4588.0443     24085.55    15.586034    13.497915     26.00272    5470.4254 
   28500       28.487    313.47972    12.885498   -447.42821   -434.54272    3348.3413   -6240.0377   -5542.0586     21827.12    15.586037    13.497917    26.002703    5470.4233 
   29000       28.987    319.27427    13.123681   -447.64976   -434.52608    1822.6451   -9853.0772   -5794.6417    21115.654    15.586039    13.497919    26.002685    5470.4213 
   29500       29.487    307.05356    12.621352   -447.13024   -434.50889    2357.6479   -10129.765   -6246.9588    23449.668    15.586042    13.497921    26.002668    5470.4193 
   30000       29.987    311.24322    12.793567   -447.28534   -434.49177    2334.3038   -8736.6892   -6076.1507    21815.751    15.586044    13.497923     26.00265    5470.4173 
   30500       30.487    320.68547    13.181689   -447.65642   -434.47473    2780.8254   -8552.8386   -5481.4533    22376.768    15.586046    13.497925    26.002633    5470.4153 
   31000       30.987    314.64025    12.933201    -447.3902     -434.457    2498.8782   -9558.0969   -5008.1035    22062.835    15.586049    13.497927    26.002615    5470.4133 
   31500       31.487    323.28615    13.288588   -447.72819    -434.4396     2638.064   -7541.9836   -4677.3621    20133.538    15.586051    13.497929    26.002598    5470.4113 
   32000       31.987    319.23119    13.121911   -447.54397   -434.42206    2344.2048   -9125.6678   -4875.9424    21034.225    15.586054    13.497931     26.00258    5470.4093 
   32500       32.487    310.90621    12.779714   -447.18321    -434.4035    4196.3714   -6066.0053   -5282.5442    23937.664    15.586056    13.497933    26.002563    5470.4073 
   33000       32.987    307.02564    12.620205     -447.006   -434.38579    2857.7898   -11304.023   -5004.1328    24881.525    15.586058    13.497935    26.002545    5470.4053 
   33500       33.487    322.30848    13.248402   -447.61612   -434.36772    2915.8057   -8698.5491   -3598.9533     21044.92    15.586061    13.497937    26.002528    5470.4033 
   34000       33.987    314.20714    12.915398   -447.26452   -434.34912    2940.3003   -10728.701   -3778.4726    23328.074    15.586063    13.497939     26.00251    5470.4013 
   34500       34.487    305.93071    12.575198    -446.9053    -434.3301    2555.1914   -11392.815   -3644.7097    22703.099    15.586066    13.497941    26.002493    5470.3992 
   35000       34.987    318.05128    13.073411   -447.38537   -434.31196    3026.4516   -8334.3426   -6233.2062    23646.904    15.586068    13.497943    26.002475    5470.3972 
   35500       35.487    316.54963    13.011686   -447.30536   -434.29367    2635.7057   -9596.0634    -4478.116    21981.297     15.58607    13.497945    26.002458    5470.3952 
   36000       35.987    316.14507    12.995057   -447.26922   -434.27416    2913.2076   -7649.5951   -7233.5477    23622.765    15.586073    13.497948     26.00244    5470.3932 
   36500       36.487    327.91638    13.478913   -447.73478   -434.25586    1983.7857   -11061.558   -5734.5813    22747.496    15.586075     13.49795    26.002423    5470.3912 
   37000       36.987    329.30907    13.536159   -447.77271   -434.23655    3085.9942   -8389.2313   -6389.4193    24036.633    15.586078    13.497952    26.002405    5470.3892 
   37500       37.487    329.37457    13.538851   -447.75652   -434.21767    3041.9989   -9583.0548   -6365.7807    25074.832     15.58608    13.497954    26.002388    5470.3872 
   38000       37.987    316.47604    13.008661   -447.20688   -434.19822    4099.6132   -8859.6784   -7227.7019     28386.22    15.586082    13.497956     26.00237    5470.3852 
   38500       38.487     305.1585    12.543457   -446.72242   -434.17896    2896.7529   -8681.9665   -5757.0567    23129.282    15.586085    13.497958    26.002353    5470.3832 
   39000       38.987    316.64075    13.015431   -447.17601   -434.16058    3542.4135   -8093.5224    -4456.413    23177.176    15.586087     13.49796    26.002335    5470.3812 
   39500       39.487    310.89678    12.779327   -446.92079   -434.14146    2895.5289   -10161.758    -4193.859    23042.204     15.58609    13.497962    26.002318    5470.3792 
   40000       39.987    318.84462    13.106021   -447.22808   -434.12206    2338.0164   -8841.7248   -7660.0917    23515.866    15.586092    13.497964      26.0023    5470.3772 
   40500       40.487    321.41174    13.211541   -447.31427   -434.10273    2490.5889   -10637.816   -4006.4084    22115.991    15.586094    13.497966    26.002283    5470.3751 
   41000       40.987    324.18578    13.325568   -447.40872   -434.08316    3312.9172   -7812.8913   -5839.9949    23591.638    15.586097    13.497968    26.002265    5470.3731 
   41500       41.487    321.98379    13.235055   -447.29908   -434.06403    3692.0271   -7006.8004   -4589.9134    22672.795    15.586099     13.49797    26.002248    5470.3711 
   42000       41.987    332.20675    13.655268   -447.70033   -434.04506    1979.8395   -10339.288   -4007.3387    20286.145    15.586102    13.497972     26.00223    5470.3691 
   42500       42.487    329.41742    13.540613   -447.56659   -434.02597    1235.0772   -13385.718   -4908.4192    21999.369    15.586104    13.497974    26.002213    5470.3671 
   43000       42.987     331.7442    13.636255   -447.64319   -434.00693    3110.4543   -10307.373   -2914.4136    22553.149    15.586106    13.497976    26.002195    5470.3651 
   43500       43.487    298.72908    12.279177   -446.26687   -433.98769    4375.6785   -8152.3666    -4687.929    25967.331    15.586109    13.497978    26.002178    5470.3631 
   44000       43.987    332.04372    13.648566   -447.61784   -433.96927     1975.562   -10259.448   -7620.8031    23806.937    15.586111     13.49798     26.00216    5470.3611 
   44500       44.487    327.46082    13.460188   -447.41053   -433.95034    2612.0303   -9294.6535   -4407.7154     21538.46    15.586114    13.497982    26.002143    5470.3591 
   45000       44.987    324.56731     13.34125   -447.27238   -433.93113    2969.0774   -8168.8729   -6035.1508    23111.256    15.586116    13.497984    26.002125    5470.3571 
   45500       45.487    319.50716    13.133254   -447.04582   -433.91256    3363.6248   -6522.2787   -6300.3212    22913.474    15.586118    13.497986    26.002108    5470.3551 
   46000       45.987    333.11315    13.692525    -447.5866   -433.89408     3415.691   -9994.7186   -5296.0322    25537.824    15.586121    13.497989     26.00209    5470.3531 
   46500       46.487    331.31468    13.618599   -447.49449   -433.87589    1916.9373   -9542.5231    -5682.006    20975.341    15.586123    13.497991    26.002073     5470.351 
   47000       46.987    329.57548     13.54711   -447.40411     -433.857    2740.4313   -8596.5479   -7345.8919    24163.734    15.586126    13.497993    26.002055     5470.349 
   47500       47.487    327.61022    13.466328   -447.30486   -433.83853    2803.0726    -6560.646   -8806.6222    23776.486    15.586128    13.497995    26.002038     5470.347 
   48000       47.987    328.24712    13.492508   -447.31296   -433.82045    2860.7416   -8671.9451   -7163.2781    24417.448     15.58613    13.497997     26.00202     5470.345 
   48500       48.487    332.61328    13.671978   -447.47457   -433.80259    1633.7787   -10661.984   -5885.2887    21448.609    15.586133    13.497999    26.002003     5470.343 
   49000       48.987    326.16501    13.406923   -447.19123    -433.7843     3034.339   -8593.5096   -5926.1994    23622.726    15.586135    13.498001    26.001985     5470.341 
   49500       49.487    332.57577    13.670436   -447.43658   -433.76615    2889.6354   -9394.1225   -6466.1421    24529.171    15.586138    13.498003    26.001968     5470.339 
   50000       49.987    329.55835    13.546406   -447.29493   -433.74853    2484.0977   -8797.9343   -4339.9747    20590.202     15.58614    13.498005     26.00195     5470.337 
   50500       50.487    323.45574     13.29556    -447.0266   -433.73104    3408.7602   -8828.0939   -6499.9212    25554.296    15.586142    13.498007    26.001933     5470.335 
   51000       50.987    332.51339    13.667872   -447.38102   -433.71315    2444.0466   -10290.267   -6153.3769    23775.784    15.586145    13.498009    26.001915     5470.333 
   51500       51.487    329.01859    13.524219   -447.21971   -433.69549    2803.7356   -10019.971   -3817.8356    22249.013    15.586147    13.498011    26.001898     5470.331 
   52000       51.987    338.32475    13.906746    -447.5845   -433.67775    2211.0549   -10002.701   -6024.7117    22660.578     15.58615    13.498013     26.00188    5470.3289 
   52500       52.487    325.90317     13.39616   -447.05574   -433.65958    1844.8261   -10770.802   -5972.7423    22278.023    15.586152    13.498015    26.001863    5470.3269 
   53000       52.987    310.78907      12.7749   -446.41693   -433.64203    3959.4355   -10772.439    -4374.895    27025.641    15.586154    13.498017    26.001845    5470.3249 
   53500       53.487    315.02763    12.949124    -446.5739   -433.62478     3424.204   -8707.8468   -6283.7874    25264.246    15.586157    13.498019    26.001828    5470.3229 
   54000       53.987    333.49934    13.708399   -447.31594   -433.60754    3107.4618   -9813.5781   -6878.2092    26014.173    15.586159    13.498021     26.00181    5470.3209 
   54500       54.487    335.24429    13.780125     -447.371   -433.59088    1696.1429   -9310.7826   -7555.5637    21954.775    15.586162    13.498023    26.001793    5470.3189 
   55000       54.987    346.03214    14.223556   -447.79742   -433.57386    3296.8702   -9133.5125   -3721.2377    22745.361    15.586164    13.498025    26.001775    5470.3169 
   55500       55.487    315.67835    12.975872     -446.532   -433.55613    4421.1956   -6873.5485   -4904.6218    25041.757    15.586166    13.498027    26.001758    5470.3149 
   56000       55.987     323.6146     13.30209   -446.84198   -433.53989    3431.5674    -10373.21   -7283.9194    27951.831    15.586169     13.49803     26.00174    5470.3129 
   56500       56.487    335.06077    13.772581   -447.29541   -433.52283     3684.076    -8013.224   -5456.4249    24521.877    15.586171    13.498032    26.001723    5470.3109 
   57000       56.987    332.22063    13.655838   -447.16248   -433.50664    2580.8191    -8777.434   -5332.4864    21852.378    15.586174    13.498034    26.001705    5470.3089 
   57500       57.487    323.86921    13.312555    -446.8026   -433.49004    1969.6966   -9714.4767   -6063.7187    21687.285    15.586176    13.498036    26.001688    5470.3069 
   58000       57.987      321.085    13.198111   -446.67136   -433.47325    2578.5998   -8855.1052   -4854.5423    21445.447    15.586178    13.498038     26.00167    5470.3048 
   58500       58.487    346.46715    14.241437   -447.69855   -433.45711    1079.5621   -10886.675   -4945.1866    19070.548    15.586181     13.49804    26.001653    5470.3028 
   59000       58.987    339.85195    13.969521   -447.41103   -433.44151    3725.7198   -11572.008   -4810.4281    27559.596    15.586183    13.498042    26.001635    5470.3008 
   59500       59.487    341.74524    14.047345   -447.47227   -433.42492    2739.2023   -7920.2403   -5851.8137    21989.661    15.586186    13.498044    26.001618    5470.2988 
   60000       59.987    345.25309    14.191534   -447.60017   -433.40864    3011.2451   -8102.9019   -4326.3663    21463.004    15.586188    13.498046      26.0016    5470.2968 
   60500       60.487    314.14326    12.912773   -446.30482   -433.39204    3367.7942   -11607.547   -2799.7007     24510.63     15.58619    13.498048    26.001583    5470.2948 
   61000       60.987    319.76954    13.144039   -446.51986   -433.37582    3036.4795   -9929.3524   -3518.1444    22556.935    15.586193     13.49805    26.001565    5470.2928 
   61500       61.487     345.1426    14.186992   -447.54756   -433.36057    2224.1866   -10699.574    -4321.797    21693.931    15.586195    13.498052    26.001548    5470.2908 
   62000       61.987    323.21525    13.285674   -446.62902   -433.34335    2515.1096   -12162.739   -4641.8562    24349.924    15.586198    13.498054     26.00153    5470.2888 
   62500       62.487    341.16942    14.023675   -447.35116   -433.32749    3095.0181   -9164.9687   -4457.8804    22907.903      15.5862    13.498056    26.001513    5470.2868 
   63000       62.987    348.90327    14.341573   -447.65397   -433.31239      2709.16     -9737.27   -6421.9138    24286.664    15.586202    13.498058    26.001495    5470.2848 
   63500       63.487    340.65093    14.002363   -447.29846    -433.2961    2885.1787   -6644.0396   -5300.9365    20600.512    15.586205     13.49806    26.001478    5470.2828 
   64000       63.987    331.22966    13.615104    -446.8948   -433.27969    3439.6194   -7522.3631   -4259.6114    22100.833    15.586207    13.498062     26.00146    5470.2807 
   64500       64.487    334.57696    13.752694   -447.01703   -433.26434     2541.044   -8975.3913   -8544.5052    25143.028     15.58621    13.498064    26.001443    5470.2787 
   65000       64.987     313.6299    12.891671   -446.13944   -433.24777     3503.959   -10265.729   -3293.0267    24070.632    15.586212    13.498066    26.001425    5470.2767 
   65500       65.487    336.86242    13.846637   -447.07866   -433.23202    3547.9478   -10798.475   -8136.9397    29579.258    15.586214    13.498068    26.001408    5470.2747 
   66000       65.987    323.24708    13.286983   -446.50318    -433.2162    3020.3774   -8963.3399   -4336.7478     22361.22    15.586217    13.498071     26.00139    5470.2727 
   66500       66.487    322.91227     13.27322   -446.47371   -433.20049    2240.3729   -11047.591   -6788.6107    24557.321    15.586219    13.498073    26.001373    5470.2707 
   67000       66.987    340.13062    13.980976   -447.16692   -433.18594    2728.1076   -10554.241   -5092.4496    23831.014    15.586222    13.498075    26.001355    5470.2687 
   67500       67.487    307.88506    12.655531   -445.82444   -433.16891    4537.1391   -7669.5339   -1862.5468    23143.498    15.586224    13.498077    26.001338    5470.2667 
   68000       67.987    331.87622    13.641681   -446.79564   -433.15396    4820.3923   -8797.0889   -4378.8722    27637.138    15.586226    13.498079     26.00132    5470.2647 
   68500       68.487    347.35571    14.277961   -447.41618   -433.13821    2929.9392   -9008.9652   -6510.0026    24308.785    15.586229    13.498081    26.001303    5470.2627 
   69000       68.987    326.40409    13.416751   -446.53855    -433.1218    3065.7584   -9790.3119   -3055.5695    22043.157    15.586231    13.498083    26.001285    5470.2607 
   69500       69.487     323.5595    13.299825   -446.40609   -433.10626    4703.9701   -9523.9825   -3530.5165    27166.409    15.586234    13.498085    26.001268    5470.2586 
   70000       69.987    335.05312    13.772267   -446.86272   -433.09046    4199.9001   -7905.4397   -5084.6362    25589.776    15.586236    13.498087     26.00125    5470.2566 
   70500       70.487    339.72648    13.964364   -447.03868   -433.07432    2589.9696   -9334.3103    -3569.322    20673.541    15.586238    13.498089    26.001233    5470.2546 
   71000       70.987    368.33003    15.140105   -448.19863   -433.05853    2130.4391   -9778.3517   -7144.8608     23314.53    15.586241    13.498091    26.001215    5470.2526 
   71500       71.487    334.40485     13.74562   -446.78764   -433.04202    3011.8416   -10876.923   -5909.9019    25822.349    15.586243    13.498093    26.001198    5470.2506 
   72000       71.987    329.84716    13.558277   -446.58524   -433.02696    3186.3887   -9383.9725   -4197.5478    23140.687    15.586246    13.498095     26.00118    5470.2486 
   72500       72.487    356.77982    14.665337   -447.67606   -433.01073    3152.8156   -9730.9814     -5468.01    24657.438    15.586248    13.498097    26.001163    5470.2466 
   73000       72.987    336.98698    13.851758   -446.84674   -432.99498    3037.7328   -10182.994   -5711.4995    25007.692     15.58625    13.498099    26.001145    5470.2446 
   73500       73.487    340.35582    13.990233   -446.96844   -432.97821    2372.0297   -9776.8094   -3458.2747    20351.173    15.586253    13.498101    26.001128    5470.2426 
   74000       73.987     323.7488    13.307606   -446.26984   -432.96224    4558.3839   -7286.0214   -3422.4796    24383.653    15.586255    13.498103     26.00111    5470.2406 
   74500       74.487    314.63923    12.933159   -445.87937   -432.94621    3954.7465   -7944.7336   -9456.6123    29265.585    15.586258    13.498105    26.001093    5470.2386 
   75000       74.987     339.4459    13.952831   -446.88309   -432.93026    3798.2244   -10799.729   -4984.7854    27179.188     15.58626    13.498107    26.001075    5470.2366 
   75500       75.487    334.24995    13.739253   -446.65357   -432.91432    3441.4816   -6617.0879   -4461.0696    21402.602    15.586262    13.498109    26.001058    5470.2345 
   76000       75.987    353.99802    14.550992   -447.45026   -432.89927    3567.4908   -7880.8091   -5330.3992    23913.681    15.586265    13.498112     26.00104    5470.2325 
   76500       76.487    349.32887    14.359068   -447.24163   -432.88256    4094.6948   -8570.2516   -3621.2453    24475.581    15.586267    13.498114    26.001023    5470.2305 
   77000       76.987    326.01665    13.400825   -446.26644   -432.86561    3802.1232   -6990.5814   -5317.9911    23714.942     15.58627    13.498116    26.001005    5470.2285 
   77500       77.487    332.69561    13.675362   -446.52502   -432.84966    3765.3798   -7600.4744   -2268.9597    21165.573    15.586272    13.498118    26.000988    5470.2265 
   78000       77.987    327.62969    13.467129   -446.29889   -432.83176    2754.0774       -12980   -5058.1826    26300.415    15.586274     13.49812     26.00097    5470.2245 
   78500       78.487    332.68875     13.67508   -446.49052   -432.81543    3713.8628   -6469.9971   -5834.2906    23445.876    15.586277    13.498122    26.000953    5470.2225 
   79000       78.987    334.59848    13.753579   -446.55295   -432.79937    4304.1806   -10336.598   -1983.9206    25233.061    15.586279    13.498124    26.000935    5470.2205 
   79500       79.487    327.72931    13.471223    -446.2536   -432.78237    4571.9018   -9126.0176   -7189.5264    30031.249    15.586282    13.498126    26.000918    5470.2185 
   80000       79.987    320.46283    13.172537   -445.93833   -432.76579     5944.187   -9100.2462   -850.80737    27783.615    15.586284    13.498128      26.0009    5470.2165 
   80500       80.487    334.62422    13.754637   -446.50429   -432.74966     3438.273   -10591.208   -7204.7849    28110.812    15.586286     13.49813    26.000883    5470.2145 
   81000       80.987    338.79108    13.925914   -446.65825   -432.73234    3479.3367   -10151.722   -4370.4197    24960.152    15.586289    13.498132    26.000865    5470.2125 
   81500       81.487    326.28071    13.411679    -446.1266   -432.71492    2924.5294   -6843.7392      -8211.9    23829.227    15.586291    13.498134    26.000848    5470.2104 
   82000       81.987    333.36112    13.702717   -446.40093   -432.69821     2600.144   -10488.828   -4191.0256    22480.285    15.586294    13.498136     26.00083    5470.2084 
   82500       82.487    342.29867    14.070093   -446.75111   -432.68101    3713.8764   -12001.865   -3534.5502    26678.044    15.586296    13.498138    26.000813    5470.2064 
   83000       82.987    336.97345    13.851201   -446.51464   -432.66344    2892.9239    -9639.567   -6095.8119    24414.151    15.586298     13.49814    26.000795    5470.2044 
   83500       83.487    335.70555    13.799085   -446.44543   -432.64635    4552.6828   -9400.8143   -4057.3699    27116.233    15.586301    13.498142    26.000778    5470.2024 
   84000       83.987    354.17934    14.558445   -447.18759   -432.62915    3383.3975   -8756.1107   -5419.4632    24325.766    15.586303    13.498144     26.00076    5470.2004 
   84500       84.487    356.07273    14.636272    -447.2479   -432.61162     2097.865   -8414.3581   -6413.5251    21121.478    15.586306    13.498146    26.000743    5470.1984 
   85000       84.987    346.41711     14.23938   -446.83376   -432.59438    3925.2104   -9435.5892   -2308.3419    23519.562    15.586308    13.498148    26.000725    5470.1964 
   85500       85.487    333.18127    13.695325   -446.27165   -432.57633    3400.7887   -7127.0077   -3645.2618    20974.636     15.58631     13.49815    26.000708    5470.1944 
   86000       85.987    340.96369    14.015219   -446.57398   -432.55876    4034.2939   -8139.5753   -5797.1748    26039.632    15.586313    13.498153     26.00069    5470.1924 
   86500       86.487     334.7242    13.758747   -446.29964   -432.54089    4324.6293   -9362.5911   -5397.2414     27733.72    15.586315    13.498155    26.000673    5470.1904 
   87000       86.987    331.58859    13.629858   -446.15279   -432.52293    3798.1669   -9966.3813   -2002.3382     23363.22    15.586318    13.498157    26.000655    5470.1883 
   87500       87.487    344.45763    14.158836   -446.66322   -432.50438    4304.2671   -8458.4911   -3668.2898    25039.582     15.58632    13.498159    26.000638    5470.1863 
   88000       87.987    313.62136     12.89132   -445.37734   -432.48602    5333.0142   -8252.2385   -6352.5482    30603.829    15.586322    13.498161     26.00062    5470.1843 
   88500       88.487    355.63244    14.618174   -447.08693   -432.46875     3673.801   -10427.954   -5187.4916    26636.848    15.586325    13.498163    26.000603    5470.1823 
   89000       88.987    366.18898    15.052098   -447.50254   -432.45044    4965.6559   -6905.5964    -2331.252    24133.816    15.586327    13.498165    26.000585    5470.1803 
   89500       89.487    344.14053    14.145802   -446.57721   -432.43141    3541.4298   -9468.3891   -3783.2974    23875.976     15.58633    13.498167    26.000568    5470.1783 
   90000       89.987    353.19282    14.517894   -446.93169    -432.4138    2311.6536   -9961.0079    -6744.835    23640.804    15.586332    13.498169     26.00055    5470.1763 
   90500       90.487    349.37948    14.361148   -446.75616   -432.39501    3795.1175   -9174.5642   -1946.7092    22506.626    15.586334    13.498171    26.000533    5470.1743 
   91000       90.987    350.06901    14.389491   -446.76552   -432.37603    2924.9451   -9882.6497   -5273.8645    23931.349    15.586337    13.498173    26.000515    5470.1723 
   91500       91.487    357.80915    14.707647   -447.06523   -432.35758    2489.0818   -10538.598   -4310.0788    22315.922    15.586339    13.498175    26.000498    5470.1703 
   92000       91.987    327.99772    13.482257    -445.8204   -432.33815     3241.578   -10054.671   -2231.1115    22010.516    15.586342    13.498177     26.00048    5470.1683 
   92500       92.487    346.74224    14.252745   -446.57262   -432.31987    2152.4556   -10412.504   -5092.9888     21962.86    15.586344    13.498179    26.000463    5470.1663 
   93000       92.987    330.72329     13.59429   -445.89506   -432.30077    4136.6027   -7899.1455   -2679.6711    22988.625    15.586346    13.498181    26.000445    5470.1642 
   93500       93.487    338.44172    13.911554   -446.19339   -432.28184    3452.0877    -8796.277   -5373.1589    24525.699    15.586349    13.498183    26.000428    5470.1622 
   94000       93.987     343.0748    14.101996   -446.36469   -432.26269    3990.4478   -8839.2802   -7390.4671    28201.091    15.586351    13.498185     26.00041    5470.1602 
   94500       94.487    320.29269    13.165543   -445.40879   -432.24325    4601.7901   -7874.8547    -5376.803    27057.028    15.586354    13.498187    26.000393    5470.1582 
   95000       94.987    345.60143    14.205852   -446.43041   -432.22455    4354.3088   -10999.634   -3919.4119    27981.972    15.586356    13.498189    26.000375    5470.1562 
   95500       95.487    354.28239     14.56268   -446.76715   -432.20447    2972.6701   -9282.0319   -7374.7628    25574.805    15.586358    13.498191    26.000358    5470.1542 
   96000       95.987    342.22718    14.067154   -446.25198   -432.18482     4963.963   -10141.643   -528.87713    25562.409    15.586361    13.498194     26.00034    5470.1522 
   96500       96.487    344.23025     14.14949   -446.31521   -432.16572    4067.5576   -9972.9076   -2463.2959    24638.876    15.586363    13.498196    26.000323    5470.1502 
   97000       96.987    355.45556    14.610904   -446.75688   -432.14598    2554.2966   -12061.334   -3852.9626    23577.186    15.586366    13.498198    26.000305    5470.1482 
   97500       97.487      318.141    13.077099   -445.20264   -432.12554    2502.0148     -9543.06   -5896.3152     22945.42    15.586368      13.4982    26.000288    5470.1462 
   98000       97.987    328.91312    13.519884   -445.62573   -432.10584     2821.303    -10209.51   -7409.1801    26082.599     15.58637    13.498202     26.00027    5470.1442 
   98500       98.487    346.98546    14.262742   -446.34911   -432.08637    3576.6854   -10639.691   -6989.9969    28359.745    15.586373    13.498204    26.000253    5470.1421 
   99000       98.987    344.60716    14.164983     -446.231   -432.06602    4824.3797   -7543.4582   -4369.3362    26385.933    15.586375    13.498206    26.000235    5470.1401 
   99500       99.487    339.32716     13.94795   -445.99362   -432.04567    4334.2918   -8169.3005   -1972.8328    23145.009    15.586378    13.498208    26.000218    5470.1381 
  100000       99.987    348.50796    14.325324   -446.35056   -432.02524    3433.4238   -11997.943    -2479.085    24777.299     15.58638     13.49821      26.0002    5470.1361 
  100500      100.487    342.37456    14.073212   -446.07851    -432.0053    3800.8165   -9764.5742   -3409.6515    24576.675    15.586382    13.498212    26.000183    5470.1341 
  101000      100.987    373.44663    15.350422   -447.33541   -431.98499     3068.049   -9348.8939   -5527.2607    24080.302    15.586385    13.498214    26.000165    5470.1321 
  101500      101.487     363.0171    14.921719   -446.88607   -431.96435    3048.4219   -12034.175   -3821.3019    25000.743    15.586387    13.498216    26.000148    5470.1301 
  102000      101.987    347.17654    14.270597   -446.21416   -431.94357    3319.7923   -9504.2894    -4276.464     23740.13     15.58639    13.498218     26.00013    5470.1281 
  102500      102.487    341.97103    14.056625   -445.97939   -431.92277    4883.8103   -9236.9447   -1845.9434    25734.319    15.586392     13.49822    26.000113    5470.1261 
  103000      102.987    348.43799    14.322448   -446.22465    -431.9022    3887.0955   -7988.5106   -3836.6145    23486.412    15.586394    13.498222    26.000095    5470.1241 
  103500      103.487    338.65074    13.920146   -445.80204   -431.88189    4959.0996   -7062.0637   -5166.2398    27105.602    15.586397    13.498224    26.000078    5470.1221 
  104000      103.987    350.20452    14.395061   -446.25532   -431.86026    4077.9071   -10122.845   -6768.9838     29125.55    15.586399    13.498226     26.00006      5470.12 
  104500      104.487    350.91317     14.42419   -446.26412   -431.83993    4324.6455    -10646.14   -5390.8395    29010.916    15.586402    13.498228    26.000043     5470.118 
  105000      104.987     339.3321    13.948153   -445.76699   -431.81883    4858.6388   -8056.6161   -4749.5795    27382.112    15.586404     13.49823    26.000025     5470.116 
  105500      105.487    349.75363    14.376527   -446.17425   -431.79772    4041.8852   -8918.3733   -4416.2648    25460.294    15.586406    13.498232    26.000008     5470.114 
  106000      105.987    356.25522    14.643773   -446.41998    -431.7762     4178.234   -9230.8485    -2926.827    24692.377    15.586409    13.498235     25.99999     5470.112 
  106500      106.487    357.60479    14.699247   -446.45518   -431.75593    2545.8937   -9987.7597   -4746.6791     22372.12    15.586411    13.498237    25.999973      5470.11 
  107000      106.987    357.59802    14.698969   -446.43362   -431.73465    5431.5224   -6804.4431   -4994.7638    28093.774    15.586414    13.498239    25.999955     5470.108 
  107500      107.487    341.03439    14.018125   -445.73003   -431.71191    5023.0609   -4772.5149   -2865.8302    22707.528    15.586416    13.498241    25.999938     5470.106 
  108000      107.987     357.0809    14.677713   -446.36864   -431.69093    4449.9129   -8227.0533   -4462.1654    26038.957    15.586418    13.498243     25.99992     5470.104 
  108500      108.487    332.57229    13.670293   -445.33994   -431.66964    4689.2717   -7931.1163   -3290.5622    25289.494    15.586421    13.498245    25.999903     5470.102 
  109000      108.987    319.80247    13.145393   -444.79229   -431.64689    5676.6293   -8017.0239   -3616.9402    28663.852    15.586423    13.498247    25.999885       5470.1 
  109500      109.487    378.50365    15.558289   -447.18552   -431.62723    3946.2207   -10122.766   -3872.8041    25834.232    15.586426    13.498249    25.999868     5470.098 
  110000      109.987    338.14212    13.899239   -445.50308   -431.60384    5025.5678   -7706.0319   -1886.4091    24669.145    15.586428    13.498251     25.99985    5470.0959 
  110500      110.487    360.26466     14.80858   -446.39099   -431.58241    3558.6027   -10531.333   -5037.3536    26244.495     15.58643    13.498253    25.999833    5470.0939 
  111000      110.987    365.82711    15.037223   -446.59835   -431.56113    3299.8839   -8649.5269   -6128.6508    24677.829    15.586433    13.498255    25.999815    5470.0919 
  111500      111.487    354.08922     14.55474   -446.09398   -431.53924     4195.726   -8525.1954   -4035.9947    25148.368    15.586435    13.498257    25.999798    5470.0899 
  112000      111.987    333.32266    13.701137   -445.21805   -431.51691    4324.4243   -7579.3333   -3178.0002    23730.606    15.586438    13.498259     25.99978    5470.0879 
  112500      112.487    358.57145    14.738981   -446.23472   -431.49574    3860.8028   -6607.4259   -4097.3025    22287.137     15.58644    13.498261    25.999763    5470.0859 
  113000      112.987    365.99647    15.044185   -446.51702   -431.47284     4052.237   -8498.5979   -1545.3359    22200.645    15.586442    13.498263    25.999745    5470.0839 
  113500      113.487    354.10468    14.555376   -446.00674   -431.45136    3063.3528   -10670.495   -4914.0798    24774.633    15.586445    13.498265    25.999728    5470.0819 
  114000      113.987    360.39835    14.814075   -446.24321   -431.42913    3089.8177   -10836.613   -5281.6188    25387.685    15.586447    13.498267     25.99971    5470.0799 
  114500      114.487    360.23693     14.80744   -446.21429   -431.40685    2898.4105   -10478.876    -2209.297    21383.405     15.58645    13.498269    25.999693    5470.0779 
  115000      114.987    351.73661    14.458037   -445.84277   -431.38474    2498.3612   -10702.787   -4945.1291        23143    15.586452    13.498271    25.999675    5470.0759 
  115500      115.487    374.32948    15.386711   -446.74937   -431.36266     3259.476   -8401.0499   -4528.6828    22708.161    15.586454    13.498273    25.999658    5470.0738 
  116000      115.987    362.15931    14.886459   -446.22677   -431.34031    3543.5107   -7502.0456   -6087.2212    24219.799    15.586457    13.498276     25.99964    5470.0718 
  116500      116.487      340.845     14.01034    -445.3279   -431.31756    3108.9343   -6268.9536   -3407.2543    19003.011    15.586459    13.498278    25.999623    5470.0698 
  117000      116.987    343.93101     14.13719   -445.43215   -431.29496    3565.9329   -7992.1971   -4403.8173    23093.813    15.586462     13.49828    25.999605    5470.0678 
  117500      117.487     347.8114    14.296692   -445.57004   -431.27335    3892.0157   -6193.3194   -4816.7395    22686.106    15.586464    13.498282    25.999588    5470.0658 
  118000      117.987    357.59598    14.698885   -445.94993   -431.25104    3798.7066    -8307.835   -2186.8071    21890.762    15.586466    13.498284     25.99957    5470.0638 
  118500      118.487    356.08774    14.636889   -445.86546   -431.22857    4546.6236     -7274.62   -4860.3136    25774.804    15.586469    13.498286    25.999553    5470.0618 
  119000      118.987    349.69123    14.373962      -445.58   -431.20603     4573.008   -9323.1334   -1887.9254    24930.083    15.586471    13.498288    25.999535    5470.0598 
  119500      119.487    359.82479      14.7905   -445.97439   -431.18389    3967.9162   -8930.5995   -3199.3438    24033.692    15.586474     13.49829    25.999518    5470.0578 
  120000      119.987    359.56332    14.779752   -445.94142   -431.16166     3736.534   -8898.2756   -5645.6074    25753.485    15.586476    13.498292      25.9995    5470.0558 
  120500      120.487    371.27311     15.26108   -446.40063   -431.13955    3200.9341   -10341.501   -2964.4367     22908.74    15.586478    13.498294    25.999483    5470.0538 
  121000      120.987    355.64858    14.618837   -445.73503   -431.11619    3183.9587    -8815.781   -4245.4126     22613.07    15.586481    13.498296    25.999465    5470.0518 
  121500      121.487    355.18862    14.599931   -445.69374   -431.09381    3429.4391   -8598.1927   -2343.9541    21230.464    15.586483    13.498298    25.999448    5470.0497 
  122000      121.987    376.27058    15.466499   -446.53813   -431.07163    3504.8689   -8468.7198   -5427.4746    24410.801    15.586486      13.4983     25.99943    5470.0477 
  122500      122.487    359.82759    14.790615   -445.83975   -431.04914    2719.4396   -8715.9123   -7500.4272    24374.658    15.586488    13.498302    25.999413    5470.0457 
  123000      122.987    357.03774    14.675939    -445.7016   -431.02566    4341.7592   -8312.2297   -2751.5401    24089.047     15.58649    13.498304    25.999395    5470.0437 
  123500      123.487    363.02186    14.921914    -445.9248   -431.00288    4053.9852    -5993.433   -6008.2581    24163.647    15.586493    13.498306    25.999378    5470.0417 
  124000      123.987    350.47526     14.40619   -445.38599    -430.9798    4270.2996   -9652.5957   -2921.7582    25385.253    15.586495    13.498308     25.99936    5470.0397 
  124500      124.487    347.18986    14.271144   -445.22761   -430.95646    4198.2046   -8322.9397   -2212.8239    23130.377    15.586498     13.49831    25.999343    5470.0377 
  125000      124.987    350.97955    14.426918   -445.36082    -430.9339    3504.1812   -8499.7599   -6321.0594    25333.363      15.5865    13.498312    25.999325    5470.0357 
  125500      125.487    371.85287     15.28491   -446.19611    -430.9112    5627.6549   -8173.3899   -4740.4246    29796.779    15.586502    13.498314    25.999308    5470.0337 
  126000      125.987    366.57876     15.06812   -445.95622    -430.8881     3619.179   -8565.8026   -7038.1822    26461.522    15.586505    13.498317     25.99929    5470.0317 
  126500      126.487    373.88452    15.368421    -446.2337   -430.86528    2469.1356   -11799.306   -4540.3133    23747.026    15.586507    13.498319    25.999273    5470.0297 
  127000      126.987    352.94409     14.50767   -445.34882   -430.84115     3535.355   -11774.837   -4168.6673    26549.569     15.58651    13.498321    25.999255    5470.0276 
  127500      127.487    346.31091    14.235015   -445.05249   -430.81748    3652.8824   -7699.0528   -5571.1762    24228.876    15.586512    13.498323    25.999238    5470.0256 
  128000      127.987    369.68921    15.195974   -445.99092   -430.79494    3767.9616   -11776.045   -3774.9374    26854.867    15.586514    13.498325     25.99922    5470.0236 
  128500      128.487    364.56388    14.985298   -445.75704   -430.77174    2612.3339   -11384.015   -3947.5257    23168.542    15.586517    13.498327    25.999203    5470.0216 
  129000      128.987    390.56647    16.054128   -446.80264   -430.74851    3159.2504   -11384.676   -4729.6665    25592.094    15.586519    13.498329    25.999185    5470.0196 
  129500      129.487    367.24504    15.095507   -445.82065   -430.72515    4093.3314   -8085.5088   -5658.6255    26024.128    15.586522    13.498331    25.999168    5470.0176 
  130000      129.987    360.34804    14.812008   -445.51345   -430.70144     4900.365   -7691.2991   -5192.6496    27585.044    15.586524    13.498333     25.99915    5470.0156 
  130500      130.487    369.95768    15.207009   -445.88523   -430.67822    4129.6874   -8689.5821   -4027.0658     25105.71    15.586526    13.498335    25.999133    5470.0136 
  131000      130.987    390.81636      16.0644   -446.71901   -430.65461    4418.3247   -8253.8142   -4569.6683    26078.457    15.586529    13.498337    25.999115    5470.0116 
  131500      131.487    383.91824    15.780854   -446.41241   -430.63155    3724.8182   -8409.6296   -3664.3308    23248.415    15.586531    13.498339    25.999098    5470.0096 
  132000      131.987    375.55237    15.436977    -446.0448   -430.60782    5459.5352   -7452.3548   -6930.5119    30761.472    15.586534    13.498341     25.99908    5470.0076 
  132500      132.487    377.00411    15.496651   -446.08156   -430.58491    3766.3178   -7725.0641   -7538.3411    26562.359    15.586536    13.498343    25.999063    5470.0055 
  133000      132.987    364.53256    14.984011   -445.54409   -430.56008    4022.7169   -6880.2096   -4321.5093     23269.87    15.586538    13.498345    25.999045    5470.0035 
  133500      133.487    364.93956    15.000741   -445.53782   -430.53708    4187.6755   -10849.949   -3484.6557    26897.631    15.586541    13.498347    25.999028    5470.0015 
  134000      133.987    364.75291    14.993068   -445.50671   -430.51364    3734.5934   -8518.6237   -5152.3152    24874.719    15.586543    13.498349     25.99901    5469.9995 
  134500      134.487    376.52347    15.476894   -445.96716   -430.49026    4048.1999   -10071.606   -3599.8975    25816.104    15.586546    13.498351    25.998993    5469.9975 
  135000      134.987    373.82372    15.365921    -445.8324   -430.46648    3687.1157   -9547.5829   -5331.1179    25940.048    15.586548    13.498353    25.998975    5469.9955 
  135500      135.487    368.47564     15.14609   -445.58885   -430.44276    4112.1915   -8637.6069   -4646.3786     25620.56     15.58655    13.498355    25.998958    5469.9935 
  136000      135.987    384.28778    15.796044   -446.21478   -430.41874    4147.4462    -7038.674   -4781.0636    24262.076    15.586553    13.498358     25.99894    5469.9915 
  136500      136.487    370.99931    15.249825   -445.64479   -430.39497    4642.0219    -5597.845   -3926.1233    23450.034    15.586555     13.49836    25.998923    5469.9895 
  137000      136.987      366.311    15.057113   -445.42816   -430.37104    4061.3281    -8604.239   -3478.2502    24266.473    15.586558    13.498362    25.998905    5469.9875 
  137500      137.487     361.4829    14.858655   -445.20584   -430.34718    4542.0843   -7129.3057    -2718.302    23473.861     15.58656    13.498364    25.998888    5469.9855 
  138000      137.987    382.86666    15.737629   -446.06145   -430.32382    3216.3957   -10532.603   -5587.0087    25768.799    15.586562    13.498366     25.99887    5469.9834 
  138500      138.487    377.60657    15.521414   -445.82112   -430.29971    4060.8772   -10558.235   -4412.9117    27153.778    15.586565    13.498368    25.998853    5469.9814 
  139000      138.987    368.83863    15.161011   -445.43672   -430.27571    4386.5497   -9135.1117    -3609.706    25904.467    15.586567     13.49837    25.998835    5469.9794 
  139500      139.487     367.6236    15.111067   -445.36238   -430.25131    5216.3707   -8198.0396   -821.91287    24669.065     15.58657    13.498372    25.998818    5469.9774 
  140000      139.987    390.53415    16.052799   -446.28022   -430.22742    3717.6224   -9585.9775   -3170.9295    23909.774    15.586572    13.498374      25.9988    5469.9754 
  140500      140.487    377.84259    15.531116   -445.73501    -430.2039    4576.3765   -9278.8769   -4655.9394    27663.946    15.586574    13.498376    25.998783    5469.9734 
  141000      140.987    355.13615    14.597774   -444.77661   -430.17884    4463.8183   -13334.697   -1116.6703    27842.823    15.586577    13.498378    25.998765    5469.9714 
  141500      141.487      374.465    15.392281   -445.54836   -430.15608    4316.1364   -8930.8094   -2247.0899    24126.308    15.586579     13.49838    25.998748    5469.9694 
  142000      141.987     388.7716     15.98035   -446.11225    -430.1319    4076.7431   -11796.875   -4226.8507    28253.955    15.586582    13.498382     25.99873    5469.9674 
  142500      142.487    380.27751    15.631203   -445.73807   -430.10687    4649.7571   -8628.2282    -2987.467    25564.967    15.586584    13.498384    25.998713    5469.9654 
  143000      142.987    386.50186    15.887053   -445.97118   -430.08413    3573.5785   -9343.8409   -6467.9889    26532.565    15.586586    13.498386    25.998695    5469.9634 
  143500      143.487    393.35455    16.168731   -446.22785   -430.05912    3513.3215   -10579.904   -5126.8967    26246.765    15.586589    13.498388    25.998678    5469.9614 
  144000      143.987    350.15169    14.392889   -444.42769    -430.0348    4031.5623   -8546.7293   -2431.2905    23072.707    15.586591     13.49839     25.99866    5469.9593 
  144500      144.487    359.22934    14.766024   -444.77678   -430.01075    7279.9291   -3595.0083   -4346.6918    29781.488    15.586594    13.498392    25.998643    5469.9573 
  145000      144.987    367.67735    15.113277   -445.09952   -429.98624    5137.8141   -8312.8629   -1819.4789    25545.784    15.586596    13.498394    25.998625    5469.9553 
  145500      145.487    376.54916     15.47795    -445.4402   -429.96225    3994.6707   -10174.934   -4025.1482    26184.095    15.586598    13.498396    25.998608    5469.9533 
  146000      145.987    382.94831    15.740985    -445.6796   -429.93862    6022.3912    -7729.187   -1046.7793     26843.14    15.586601    13.498399     25.99859    5469.9513 
  146500      146.487    380.52947     15.64156   -445.55543   -429.91387    4811.5233   -4904.6501   -7107.2678    26446.488    15.586603    13.498401    25.998573    5469.9493 
  147000      146.987    366.24494    15.054398   -444.94362   -429.88923     4673.303   -9524.1243   -3235.5509    26779.584    15.586606    13.498403    25.998555    5469.9473 
  147500      147.487     384.0789    15.787458   -445.65278   -429.86532    4559.8934    -2819.862   -3825.5113    20325.053    15.586608    13.498405    25.998538    5469.9453 
  148000      147.987    375.98927    15.454936   -445.29547   -429.84053    3686.0757   -8988.9272   -2726.1425    22773.297     15.58661    13.498407     25.99852    5469.9433 
  148500      148.487    387.06325    15.910129   -445.72664   -429.81651    2784.0924   -8084.4026   -5222.9621    21659.642    15.586613    13.498409    25.998503    5469.9413 
  149000      148.987    389.48943    16.009856   -445.80218   -429.79233    5545.0592   -3551.6842   -5645.0628    25831.924    15.586615    13.498411    25.998485    5469.9393 
  149500      149.487    385.66201    15.852531   -445.62077   -429.76824    5228.1055   -7781.0892   -5482.6282    28948.034    15.586618    13.498413    25.998468    5469.9372 
  150000      149.987     382.2074    15.710531   -445.45335   -429.74282    5835.6235   -7825.6287   -5001.9012      30334.4     15.58662    13.498415     25.99845    5469.9352 
  150500      150.487    392.90106     16.15009   -445.86806   -429.71797     5136.501   -8141.2084   -5395.1459    28945.857    15.586622    13.498417    25.998433    5469.9332 
  151000      150.987    373.79286    15.364653   -445.05792   -429.69327    5179.3885   -8767.1154   -4687.5217    28992.803    15.586625    13.498419    25.998415    5469.9312 
  151500      151.487    361.15716    14.845266   -444.51293   -429.66766    3690.6505   -11807.337   -1566.6959    24445.984    15.586627    13.498421    25.998398    5469.9292 
  152000      151.987    372.55979    15.313968   -444.95737    -429.6434    5116.3528   -9014.2024   -3143.6502    27506.911     15.58663    13.498423     25.99838    5469.9272 
  152500      152.487    398.67322    16.387354   -446.00653   -429.61917    4467.9823   -8878.8084   -1512.6899    23795.445    15.586632    13.498425    25.998363    5469.9252 
  153000      152.987     390.6472    16.057446   -445.65218   -429.59474    6017.0208   -6309.0091   -2348.2355    26708.307    15.586634    13.498427    25.998345    5469.9232 
  153500      153.487    382.24661    15.712142   -445.28211   -429.56997    5657.3981   -6835.2231   -4703.2418    28510.659    15.586637    13.498429    25.998328    5469.9212 
  154000      153.987    388.28302    15.960267    -445.5055   -429.54523    4599.7922   -8342.6494   -4423.8077    26565.834    15.586639    13.498431     25.99831    5469.9192 
  154500      154.487    381.54014    15.683103   -445.20448   -429.52138    4306.6563   -10378.023   -3037.1205    26335.113    15.586642    13.498433    25.998293    5469.9172 
  155000      154.987    365.67887     15.03113   -444.52735   -429.49622    5100.8207   -6416.9017   -3404.5803    25123.944    15.586644    13.498435    25.998275    5469.9151 
  155500      155.487    373.30161     15.34446   -444.81563   -429.47117    6689.6504   -6058.6401   -1200.0496    27327.641    15.586646    13.498437    25.998258    5469.9131 
  156000      155.987    378.35216    15.552062   -444.99838   -429.44631    4124.5448   -9650.8963    -4848.187    26872.718    15.586649     13.49844     25.99824    5469.9111 
  156500      156.487     392.5533    16.135796   -445.55805   -429.42226    4197.2265   -9117.0804   -6602.3053    28311.065    15.586651    13.498442    25.998223    5469.9091 
  157000      156.987    392.05279    16.115223   -445.51272    -429.3975    4020.6536   -8762.9656   -5655.5408    26480.467    15.586654    13.498444    25.998205    5469.9071 
  157500      157.487      380.001    15.619837   -444.99219   -429.37235    4251.0375   -8983.4683   -3691.1943    25427.775    15.586656    13.498446    25.998188    5469.9051 
  158000      157.987    365.67396    15.030928   -444.37843   -429.34751    4788.5862   -9531.5282   -3246.2778    27143.565    15.586658    13.498448     25.99817    5469.9031 
  158500      158.487    368.93139    15.164824   -444.48751   -429.32269    5372.8582   -7366.1438   -2955.3601    26440.079    15.586661     13.49845    25.998153    5469.9011 
  159000      158.987    375.78026    15.446345   -444.74501   -429.29867    4114.2666   -9618.4576   -1786.0296    23747.287    15.586663    13.498452    25.998135    5469.8991 
  159500      159.487    399.50736    16.421641   -445.69543   -429.27379    4276.1281   -7505.7628   -1874.4342    22208.581    15.586666    13.498454    25.998118    5469.8971 
  160000      159.987    379.61181     15.60384   -444.85225   -429.24841    6615.9054   -8010.4433   -1692.2866    29550.446    15.586668    13.498456      25.9981    5469.8951 
  160500      160.487    384.99395    15.825071   -445.04848   -429.22341    5226.7381   -7925.0894   -1911.2499    25516.554     15.58667    13.498458    25.998083     5469.893 
  161000      160.987    379.65355    15.605555   -444.80417   -429.19862    4493.5375   -9375.2324   -2950.3442    25806.189    15.586673     13.49846    25.998065     5469.891 
  161500      161.487    381.96887    15.700726   -444.87504   -429.17431    6062.8482   -6965.2053   -2909.4554    28063.205    15.586675    13.498462    25.998048     5469.889 
  162000      161.987    401.97129     16.52292   -445.67247   -429.14955    4088.7754   -9414.4442   -3107.8683    24788.638    15.586678    13.498464     25.99803     5469.887 
  162500      162.487    369.74743    15.198367   -444.32189   -429.12352    5254.5153   -10179.793   -4897.8194    30841.158     15.58668    13.498466    25.998013     5469.885 
  163000      162.987     367.3336    15.099147   -444.19677   -429.09762    5600.2602   -7228.5113   -2250.8537    26280.145    15.586682    13.498468    25.997995     5469.883 
  163500      163.487    385.91169    15.862794   -444.93582   -429.07303    6901.5056   -6509.5519   -5.5373107    27219.606    15.586685     13.49847    25.997978     5469.881 
  164000      163.987    369.01809    15.168387   -444.21637   -429.04799    4985.9384   -7545.6902   -6088.3996    28591.905    15.586687    13.498472     25.99796     5469.879 
  164500      164.487    415.23081    17.067949   -446.09124   -429.02329    5020.9924   -7174.7633   -2450.5813    24688.322     15.58669    13.498474    25.997943     5469.877 
  165000      164.987    374.23824    15.382961   -444.38052   -428.99756    5270.3069   -8220.8181   -2338.7772    26370.516    15.586692    13.498476    25.997925     5469.875 
  165500      165.487    389.69423    16.018274   -444.99037   -428.97209    4690.9079   -10573.413   -2079.0127    26725.149    15.586694    13.498478    25.997908     5469.873 
  166000      165.987    386.51581    15.887626   -444.83424   -428.94661    5332.3297   -8101.4283   -6157.4362    30255.853    15.586697    13.498481     25.99789    5469.8709 
  166500      166.487    378.46629    15.556753   -444.47801   -428.92125    5261.8043   -6370.3389   -5022.0757    27177.827    15.586699    13.498483    25.997873    5469.8689 
  167000      166.987    388.22221    15.957768    -444.8543   -428.89653     4776.292   -8275.7802   -2253.0636     24857.72    15.586702    13.498485    25.997855    5469.8669 
  167500      167.487    377.48571    15.516447   -444.38742   -428.87098    4165.8319   -8909.2468    -3290.413    24697.156    15.586704    13.498487    25.997838    5469.8649 
  168000      167.987    384.24189    15.794158   -444.63994   -428.84578    3308.2749   -9445.3366   -6976.5734    26346.735    15.586706    13.498489     25.99782    5469.8629 
  168500      168.487    402.02032    16.524935   -445.34614    -428.8212    4780.3556   -7648.7371   -3847.7845    25837.588    15.586709    13.498491    25.997803    5469.8609 
  169000      168.987    373.38325    15.347816   -444.14259   -428.79477    5054.4629   -6696.2411   -4305.7941    26165.424    15.586711    13.498493    25.997785    5469.8589 
  169500      169.487    378.44798    15.556001   -444.32515   -428.76915     3963.803   -10405.432   -3251.0684     25547.91    15.586714    13.498495    25.997768    5469.8569 
  170000      169.987    398.26802    16.370698   -445.11529    -428.7446    4038.3748    -9215.274   -5264.9104    26595.309    15.586716    13.498497     25.99775    5469.8549 
  170500      170.487    389.40952    16.006572   -444.72547   -428.71889    4991.8833   -8159.4062   -3754.9022    26889.958    15.586718    13.498499    25.997733    5469.8529 
  171000      170.987    382.12751    15.707247   -444.40001   -428.69277     5020.306   -8500.6803   -3417.8509    26979.449    15.586721    13.498501    25.997715    5469.8509 
  171500      171.487    391.57963    16.095774   -444.76339   -428.66761    4824.6208   -10329.378   -319.30617    25122.546    15.586723    13.498503    25.997698    5469.8488 
  172000      171.987    396.21165    16.286171   -444.92875   -428.64258     5742.329   -9127.5933   -5124.4557    31479.036    15.586726    13.498505     25.99768    5469.8468 
  172500      172.487    395.41584     16.25346   -444.87045   -428.61699    4774.4142   -9109.6026   -2948.2708    26381.116    15.586728    13.498507    25.997663    5469.8448 
  173000      172.987    391.05018    16.074011   -444.66616   -428.59215    5198.1061   -7824.1302   -1596.6306    25015.079     15.58673    13.498509    25.997645    5469.8428 
  173500      173.487    394.34094    16.209276   -444.77581   -428.56653    5271.7607   -8437.8163    -2632.147    26885.245    15.586733    13.498511    25.997628    5469.8408 
  174000      173.987    411.35101    16.908471   -445.44979   -428.54132    5025.0485   -9602.9415     -2848.24    27526.327    15.586735    13.498513     25.99761    5469.8388 
  174500      174.487    383.02136    15.743988    -444.2586   -428.51461    4262.0321   -8552.9612   -3098.5318    24437.589    15.586738    13.498515    25.997593    5469.8368 
  175000      174.987    388.84539    15.983383   -444.47239     -428.489    4546.5341   -8715.2089   -815.30687    23170.118     15.58674    13.498517    25.997575    5469.8348 
  175500      175.487    391.41093    16.088839   -444.55256   -428.46372    4587.2624   -5751.8509   -4008.5848    23522.223    15.586742    13.498519    25.997558    5469.8328 
  176000      175.987     394.2547    16.205731   -444.64387   -428.43814    5255.4168   -4621.9577   -3506.8878    23895.096    15.586745    13.498522     25.99754    5469.8308 
  176500      176.487     392.4307    16.130756   -444.54251   -428.41176    5366.8143   -7872.5618   -2595.3355     26568.34    15.586747    13.498524    25.997523    5469.8288 
  177000      176.987    387.17451    15.914702   -444.30043   -428.38573    5629.2557   -8230.7643   -1285.7198    26404.251     15.58675    13.498526    25.997505    5469.8268 
  177500      177.487    390.37667    16.046326   -444.40602   -428.35969    4211.5774   -11138.001   -1116.2649    24888.998    15.586752    13.498528    25.997488    5469.8247 
  178000      177.987    426.03347    17.511989   -445.84618   -428.33419    5468.5138   -8619.5507   -3919.0253    28944.117    15.586754     13.49853     25.99747    5469.8227 
  178500      178.487    437.14116    17.968568   -446.27715   -428.30858    3061.1873   -9193.6174   -3987.1835    22364.363    15.586757    13.498532    25.997453    5469.8207 
  179000      178.987    387.69857    15.936243   -444.21746   -428.28121    5565.3432   -7517.3194   -766.21267    24979.562    15.586759    13.498534    25.997435    5469.8187 
  179500      179.487    405.49618    16.667809   -444.92343   -428.25562    4824.8026   -4959.4683   -5365.7686    24799.645    15.586762    13.498536    25.997418    5469.8167 
  180000      179.987     402.4096    16.540936   -444.77073   -428.22979    6284.9404    -5455.007   -4433.0007    28742.829    15.586764    13.498538      25.9974    5469.8147 
  180500      180.487    406.48218    16.708339   -444.91227   -428.20393    6731.0875    -6333.618   -1219.7308    27746.611    15.586766     13.49854    25.997383    5469.8127 
  181000      180.987    395.26167    16.247123   -444.42659   -428.17947    6726.9686   -6481.8379    145.26763    26517.476    15.586769    13.498542    25.997365    5469.8107 
  181500      181.487    393.27083     16.16529   -444.31861   -428.15332     6165.628   -6686.3243   -3854.0487    29037.257    15.586771    13.498544    25.997348    5469.8087 
  182000      181.987    384.20244    15.792536   -443.92016   -428.12763    6659.5387   -7478.7592   -1648.5104    29105.886    15.586774    13.498546     25.99733    5469.8067 
  182500      182.487    383.28732     15.75492   -443.85634   -428.10142    5441.0892   -6688.2685   -3746.7832    26758.319    15.586776    13.498548    25.997313    5469.8047 
  183000      182.987     382.0038    15.702161   -443.77728   -428.07512    7009.0978   -6998.5095   -2159.5361    30185.339    15.586778     13.49855    25.997295    5469.8026 
  183500      183.487    413.08341    16.979681   -445.02997   -428.05029     3776.334   -9137.4857   -3583.9193    24050.407    15.586781    13.498552    25.997278    5469.8006 
  184000      183.987    399.74981    16.431606   -444.45525   -428.02364    5249.2248   -10330.514   -4071.3081    30149.496    15.586783    13.498554     25.99726    5469.7986 
  184500      184.487    429.79843    17.666747   -445.66467   -427.99793    4077.8976   -10898.461   -3104.6398    26236.793    15.586786    13.498556    25.997243    5469.7966 
  185000      184.987    404.22912    16.615727   -444.58735   -427.97163    5433.8953   -9237.2674   -2659.0146    28197.968    15.586788    13.498558    25.997225    5469.7946 
  185500      185.487    419.44512    17.241177   -445.18718     -427.946     4426.989   -10010.829   -2262.0425    25553.838     15.58679     13.49856    25.997208    5469.7926 
  186000      185.987    398.24372    16.369699   -444.28924   -427.91954    5360.0641   -7433.1849   -4045.5304    27558.908    15.586793    13.498563     25.99719    5469.7906 
  186500      186.487    396.93154    16.315762   -444.20815   -427.89239    5188.7688   -9276.1583   -2044.7742    26887.239    15.586795    13.498565    25.997173    5469.7886 
  187000      186.987    406.93308    16.726873   -444.59317   -427.86629    6312.9648   -7644.4693    1156.0144    25427.349    15.586798    13.498567    25.997155    5469.7866 
  187500      187.487    416.14711    17.105613   -444.94597   -427.84036    6692.1487   -7715.7044   -4252.8057    32044.956      15.5868    13.498569    25.997138    5469.7846 
  188000      187.987    414.05058    17.019436   -444.83307   -427.81364    6093.9329   -8442.5788   -2507.4575    29231.835    15.586802    13.498571     25.99712    5469.7826 
  188500      188.487    387.43377    15.925359   -443.71164   -427.78628    6346.3642   -5903.6132   -3944.1539     28886.86    15.586805    13.498573    25.997103    5469.7805 
  189000      188.987    395.81594    16.269906   -444.03029   -427.76038    6035.8229   -8672.0952   -1221.8661     28001.43    15.586807    13.498575    25.997085    5469.7785 
  189500      189.487    422.26651    17.357149   -445.09103   -427.73388    5174.5718   -5918.4892    -4249.099    25691.303     15.58681    13.498577    25.997068    5469.7765 
  190000      189.987    400.80077    16.474806   -444.18224   -427.70744    4939.3733   -9315.0989   -3934.9555    28068.174    15.586812    13.498579     25.99705    5469.7745 
  190500      190.487    393.59484    16.178608   -443.85993   -427.68132    6422.9265   -6644.3291    2793.5492    23119.559    15.586814    13.498581    25.997033    5469.7725 
  191000      190.987    407.16218     16.73629   -444.39054   -427.65425    5310.9083   -6909.7559   -5119.4103    27961.891    15.586817    13.498583    25.997015    5469.7705 
  191500      191.487    423.73381    17.417462   -445.04561   -427.62815    6562.5125   -6590.5353   -3018.0923    29296.165    15.586819    13.498585    25.996998    5469.7685 
  192000      191.987    413.74033    17.006683   -444.60813   -427.60145    5385.9063   -8465.4318   -6283.0297     30906.18    15.586822    13.498587     25.99698    5469.7665 
  192500      192.487    411.68336    16.922132   -444.49838   -427.57625    5984.3957   -8298.6571   -2912.6868    29164.531    15.586824    13.498589    25.996963    5469.7645 
  193000      192.987    404.95622    16.645615   -444.19436   -427.54875    5588.4082   -7957.8354   -3901.2659    28624.326    15.586826    13.498591    25.996945    5469.7625 
  193500      193.487    412.50598    16.955945    -444.4782   -427.52225     6543.967    -6247.341     -3851.45    29730.692    15.586829    13.498593    25.996928    5469.7605 
  194000      193.987    403.93874    16.603791   -444.09897   -427.49518    5798.1142   -6714.3929   -2937.2652    27046.001    15.586831    13.498595     25.99691    5469.7584 
  194500      194.487    398.90462    16.396865   -443.86577   -427.46891    6244.6492   -5162.5034   -3358.4437    27254.895    15.586834    13.498597    25.996893    5469.7564 
  195000      194.987    388.00108    15.948678   -443.39195   -427.44327    5020.0218   -7810.1907   -4081.0797    26951.336    15.586836    13.498599    25.996875    5469.7544 
  195500      195.487    409.49677    16.832252   -444.24899   -427.41673    5699.5188   -6460.7959   -4492.1895    28051.542    15.586838    13.498601    25.996858    5469.7524 
  196000      195.987    417.22183    17.149789   -444.54034   -427.39055    6572.0753   -5310.1891   -1700.7528    26727.168    15.586841    13.498604     25.99684    5469.7504 
  196500      196.487    417.99988     17.18177   -444.54522   -427.36345    5035.0667   -7770.8315   -6174.5325    29050.564    15.586843    13.498606    25.996823    5469.7484 
  197000      196.987    400.28754     16.45371   -443.79004   -427.33633    6982.7705   -7663.8751    -1234.816    29847.003    15.586846    13.498608    25.996805    5469.7464 
  197500      197.487    418.21047    17.190427   -444.49966   -427.30923    5610.7571   -7232.3879   -4069.6017    28134.261    15.586848     13.49861    25.996788    5469.7444 
  198000      197.987     412.0662    16.937868   -444.21953   -427.28166    5338.1879   -7732.8529   -2835.5179    26582.935     15.58685    13.498612     25.99677    5469.7424 
  198500      198.487    424.52803    17.450108   -444.70414   -427.25403     4711.238   -9339.1151   -2345.9194    25818.748    15.586853    13.498614    25.996753    5469.7404 
  199000      198.987    384.79811    15.817021   -443.04441   -427.22739    6914.1854   -7000.2769   -2539.9102    30282.743    15.586855    13.498616    25.996735    5469.7384 
  199500      199.487    426.87597     17.54662   -444.74733   -427.20071    5228.5605   -6158.5605   -4700.8015    26545.044    15.586858    13.498618    25.996718    5469.7363 
  200000      199.987     389.4513    16.008289   -443.18166   -427.17337    6446.7358   -6277.6825    532.89186    25084.998     15.58686     13.49862      25.9967    5469.7343 
  200500      200.487    410.55884    16.875909   -444.02262   -427.14671    4558.6898   -7850.8917   -2489.2861    24016.247    15.586862    13.498622    25.996683    5469.7323 
  201000      200.987    416.06441    17.102213   -444.22163   -427.11941    6382.5214   -6834.3857   -1141.4056    27123.356    15.586865    13.498624    25.996665    5469.7303 
  201500      201.487    409.93178    16.850133   -443.94322   -427.09309     6917.049   -7683.9388    208.81729    28226.269    15.586867    13.498626    25.996648    5469.7283 
  202000      201.987    424.86605    17.464003    -444.5298   -427.06579    4942.5733    -6729.665   -2483.2345    24040.619     15.58687    13.498628     25.99663    5469.7263 
  202500      202.487    382.50937    15.722943    -442.7603   -427.03735    6191.2314   -7785.8919   -1647.0227    28006.609    15.586872     13.49863    25.996613    5469.7243 
  203000      202.987    403.31367    16.578098   -443.58886   -427.01076      6824.06   -8607.4541   -46.401544    29126.036    15.586874    13.498632    25.996595    5469.7223 
  203500      203.487    405.22902    16.656828   -443.64014   -426.98332    6217.6765   -7466.6439   -3741.7859    29861.459    15.586877    13.498634    25.996578    5469.7203 
  204000      203.987    408.31964    16.783867   -443.74052   -426.95665    5838.1732   -8078.0001   -1067.1439    26659.663    15.586879    13.498636     25.99656    5469.7183 
  204500      204.487    404.30916    16.619017   -443.54837   -426.92935    4951.0687   -10028.255   -3896.7207    28778.182    15.586882    13.498638    25.996543    5469.7162 
  205000      204.987    410.95092    16.892025   -443.79462   -426.90259    6612.8562   -6191.6686   -3432.1706    29462.408    15.586884     13.49864    25.996525    5469.7142 
  205500      205.487    422.90226    17.383282   -444.25886   -426.87558    5057.4136   -8081.4995   -4563.5554    27817.296    15.586886    13.498642    25.996508    5469.7122 
  206000      205.987    413.75322    17.007213   -443.85541   -426.84819     7257.938   -8676.3522   -174.67537    30624.842    15.586889    13.498645     25.99649    5469.7102 
  206500      206.487    417.48471    17.160595   -443.98319    -426.8226    5070.6051   -11395.157   -1606.8485    28213.821    15.586891    13.498647    25.996473    5469.7082 
  207000      206.987    412.33896     16.94908   -443.74326   -426.79418    6066.1902    -8123.713    -10.30229    26332.586    15.586894    13.498649    25.996455    5469.7062 
  207500      207.487    405.16327    16.654125    -443.4207   -426.76657    6431.9831   -7811.2532   -1306.3626    28413.565    15.586896    13.498651    25.996438    5469.7042 
  208000      207.987    408.52653    16.792371   -443.53205   -426.73968     6107.239   -8084.2681   -3932.5969    30338.582    15.586898    13.498653     25.99642    5469.7022 
  208500      208.487    402.40554    16.540769   -443.25353   -426.71276    6230.3471    -10642.38   -1361.3015    30694.723    15.586901    13.498655    25.996403    5469.7002 
  209000      208.987    409.02404    16.812821   -443.49836   -426.68554     6713.943   -5556.5978   -3835.3416    29533.768    15.586903    13.498657    25.996385    5469.6982 
  209500      209.487    432.51788    17.778529   -444.43716   -426.65863    5936.7776   -4515.9782   -7004.4884    29330.799    15.586906    13.498659    25.996368    5469.6962 
  210000      209.987    429.67463    17.661658   -444.29406    -426.6324    6254.3687   -5399.0046   -2825.9962    26988.107    15.586908    13.498661     25.99635    5469.6941 
  210500      210.487    394.31265    16.208113    -442.8115   -426.60338    6064.8167   -6665.2472    -1842.116    26701.813     15.58691    13.498663    25.996333    5469.6921 
  211000      210.987    418.52879    17.203511   -443.77917   -426.57565     4923.369   -7715.3699   -4314.4959    26799.973    15.586913    13.498665    25.996315    5469.6901 
  211500      211.487    423.37703    17.402797   -443.95138   -426.54859    6026.1612   -8922.3379   -2721.1917    29722.013    15.586915    13.498667    25.996298    5469.6881 
  212000      211.987    429.15235     17.64019   -444.16065   -426.52046    6309.6669   -4242.3896   -4909.4186    28080.809    15.586918    13.498669     25.99628    5469.6861 
[...]
  948500      948.487     553.7925    22.763489   -437.23313   -414.46964     11475.18   -8203.9112    4568.1883    38061.263    15.590453    13.501689    25.970503    5466.7244 
  949000      948.987     544.9544    22.400201   -436.86759   -414.46739     13275.87   -1237.1437    4731.7546    36332.999    15.590455    13.501691    25.970485    5466.7224 
  949500      949.487    604.34028    24.841242   -439.30935    -414.4681    12038.741   -3055.7168     2187.455    36984.485    15.590458    13.501693    25.970468    5466.7204 
  950000      949.987    556.87604    22.890237   -437.35527   -414.46503    12333.345    -2043.426    2241.2561    36802.204     15.59046    13.501695     25.97045    5466.7184 
  950500      950.487    556.34588    22.868445   -437.33274   -414.46429    12253.038   -4218.2379    276.93048     40700.42    15.590462    13.501697    25.970433    5466.7164 
  951000      950.987    567.33091    23.319982   -437.78341   -414.46343    12301.785   -3227.5528    4261.1378    35871.769    15.590465    13.501699    25.970415    5466.7144 
  951500      951.487    564.66294    23.210315   -437.67143   -414.46111    10697.675   -6089.2427    5963.0836    32219.184    15.590467    13.501701    25.970398    5466.7123 
  952000      951.987    574.16588    23.600931   -438.06048   -414.45955    11583.096   -6069.2787    3534.6288    37283.938     15.59047    13.501703     25.97038    5466.7103 
  952500      952.487    563.21034    23.150607   -437.60835   -414.45774    12407.911   -2136.8234    6670.7938    32689.763    15.590472    13.501705    25.970363    5466.7083 
  953000      952.987    535.74266    22.021555   -436.47562   -414.45406    15379.138    1240.8025    7151.2015     37745.41    15.590474    13.501707    25.970345    5466.7063 
  953500      953.487    599.25975    24.632408   -439.08623   -414.45382    12587.524   -2973.2117    2767.7806    37968.003    15.590477    13.501709    25.970328    5466.7043 
  954000      953.987    583.94723    24.002991   -438.45511   -414.45212    11995.486   -2207.2936    2389.4553    35804.298    15.590479    13.501711     25.97031    5466.7023 
  954500      954.487    558.47447     22.95594   -437.40404    -414.4481    12154.092   -1043.8279   -1092.2251    38598.328    15.590482    13.501713    25.970293    5466.7003 
  955000      954.987    573.08718    23.556592   -438.00251   -414.44592    10603.743   -4184.2275    3602.7268     32392.73    15.590484    13.501715    25.970275    5466.6983 
  955500      955.487    524.97732    21.579049   -436.01927   -414.44022    12690.158   -3269.1805     6329.272    35010.383    15.590486    13.501717    25.970258    5466.6962 
  956000      955.987    590.24295    24.261775   -438.70267    -414.4409    10877.976   -7402.7919    1419.8833    38616.837    15.590489     13.50172     25.97024    5466.6942 
  956500      956.487    571.62688    23.496566   -437.93388   -414.43731    12151.199   -5724.6831    3637.5213    38540.758    15.590491    13.501722    25.970223    5466.6922 
  957000      956.987    583.48075    23.983816   -438.41962    -414.4358    13836.786   -86.245116    4065.4203    37531.183    15.590494    13.501724    25.970205    5466.6902 
  957500      957.487    593.40393    24.391706   -438.82568   -414.43397    11547.639   -3827.1151    3288.0607    35181.972    15.590496    13.501726    25.970188    5466.6882 
  958000      957.987    573.43221    23.570774   -438.00078      -414.43    12932.067   -4981.5276    3819.8235    39957.904    15.590498    13.501728     25.97017    5466.6862 
  958500      958.487    556.43082    22.871937   -437.30031   -414.42837    10257.735   -5280.9724   -15.426954    36069.605    15.590501     13.50173    25.970153    5466.6842 
  959000      958.987    589.21695    24.219601    -438.6451    -414.4255    11759.891   -3981.2102    810.66483    38450.219    15.590503    13.501732    25.970135    5466.6822 
  959500      959.487    559.64939    23.004235   -437.42652   -414.42228    13006.214   -2735.4272    4988.4333    36765.637    15.590506    13.501734    25.970118    5466.6801 
  960000      959.987    562.35075    23.115274   -437.53326   -414.41799    13330.978   -2084.3054    4100.9258    37976.313    15.590508    13.501736      25.9701    5466.6781 
  960500      960.487    560.89077    23.055261   -437.47145   -414.41619    11907.642   -3736.3004    4043.5485    35415.679     15.59051    13.501738    25.970083    5466.6761 
  961000      960.987    587.17875    24.135822   -438.55082     -414.415    11420.092   -5838.3836    2798.8697    37299.788    15.590513     13.50174    25.970065    5466.6741 
  961500      961.487    573.14375    23.558917   -437.97018   -414.41126    10094.187   -11214.511    5282.5072    36214.565    15.590515    13.501742    25.970048    5466.6721 
  962000      961.987    585.17505     24.05346   -438.46079   -414.40733      10479.5   -5220.5655    3023.0709    33635.994    15.590518    13.501744     25.97003    5466.6701 
  962500      962.487     552.4454    22.708117   -437.11179   -414.40368    11816.384    -4436.189    1057.7701     38827.57     15.59052    13.501746    25.970013    5466.6681 
  963000      962.987    567.18561    23.314009   -437.71452   -414.40051    12010.519   -3554.8527    2971.2678    36615.143    15.590522    13.501748    25.969995    5466.6661 
  963500      963.487    584.09204    24.008943   -438.40591   -414.39697    11393.994    -821.0222    2157.9627    32845.041    15.590525     13.50175    25.969978    5466.6641 
  964000      963.987    611.57463    25.138608   -439.53337   -414.39476    10722.088   -6679.5974    1833.2694    37012.593    15.590527    13.501752     25.96996     5466.662 
  964500      964.487    572.21634    23.520796   -437.91106   -414.39026     11567.05   -4571.3084    5249.3037    34023.155     15.59053    13.501754    25.969943      5466.66 
  965000      964.987    575.19099    23.643068   -438.02963   -414.38656    11243.125    -2341.547    1428.1875    34642.733    15.590532    13.501756    25.969925     5466.658 
  965500      965.487    589.71943    24.240256   -438.62317   -414.38291    11299.602   -3542.5395    3478.9036    33962.443    15.590534    13.501758    25.969908     5466.656 
  966000      965.987     553.0552    22.733183    -437.1139   -414.38071    12245.855   -3408.6052    1132.2506    39013.919    15.590537    13.501761     25.96989     5466.654 
  966500      966.487    564.09862    23.187119   -437.56412     -414.377    12380.685   -6001.7506    5733.8172    37409.989    15.590539    13.501763    25.969873     5466.652 
  967000      966.987    532.45852    21.886562   -436.25824   -414.37167    12824.193   -5009.0042    2542.8218    40938.762    15.590542    13.501765    25.969855      5466.65 
  967500      967.487    556.43973    22.872303    -437.2406    -414.3683    13145.028   -5253.6975    4207.4076    40481.374    15.590544    13.501767    25.969838     5466.648 
  968000      967.987    555.55244    22.835831   -437.20084   -414.36501    12853.001    -6191.446    1631.4927    43118.955    15.590546    13.501769     25.96982    5466.6459 
  968500      968.487    576.51312    23.697414   -438.05813   -414.36072    10785.159   -7362.3386    842.44696    38875.368    15.590549    13.501771    25.969803    5466.6439 
  969000      968.987    561.49665    23.080166   -437.43485   -414.35469    12861.098   -539.40835   -2616.0428    41738.744    15.590551    13.501773    25.969785    5466.6419 
  969500      969.487    576.87977    23.712485   -438.06412   -414.35163    11977.795   -5226.9482    2182.9639    38977.369    15.590554    13.501775    25.969768    5466.6399 
  970000      969.987    556.72173    22.883894   -437.23169    -414.3478    12644.447    1352.1349    3421.3203    33159.887    15.590556    13.501777     25.96975    5466.6379 
  970500      970.487    549.24215    22.576448   -436.91983   -414.34338    12624.022   -1890.9428    4677.3234    35085.684    15.590558    13.501779    25.969733    5466.6359 
  971000      970.987    570.15549    23.436085   -437.77614   -414.34005    11753.455   -6168.9339    3006.3088     38422.99    15.590561    13.501781    25.969715    5466.6339 
  971500      971.487    575.16993    23.642202   -437.97834   -414.33613     12245.93   -3487.1042    570.56689    39654.328    15.590563    13.501783    25.969698    5466.6319 
  972000      971.987     533.0096    21.909214   -436.24122   -414.33201    12763.896   -1311.6969    749.08635      38854.3    15.590566    13.501785     25.96968    5466.6298 
  972500      972.487    579.61026    23.824721   -438.15278   -414.32806    12946.488    -3598.563    723.29869    41714.728    15.590568    13.501787    25.969663    5466.6278 
  973000      972.987    570.99225     23.47048    -437.7928   -414.32232    11583.913   -4035.0045     3290.031    35496.712     15.59057    13.501789    25.969645    5466.6258 
  973500      973.487    557.63065    22.921255   -437.24038   -414.31912    11756.979    -5350.639    4959.4519    35662.125    15.590573    13.501791    25.969628    5466.6238 
  974000      973.987    594.32821    24.429698   -438.74539   -414.31569    12380.386   -4005.5449    1485.1879    39661.515    15.590575    13.501793     25.96961    5466.6218 
  974500      974.487    570.95185     23.46882   -437.77881   -414.30999    11955.137   -3194.9978   -1493.2258    40553.634    15.590578    13.501795    25.969593    5466.6198 
  975000      974.987    579.12149     23.80463   -438.11101   -414.30638    12634.269   -2422.9159    1536.8728    38788.849     15.59058    13.501797    25.969575    5466.6178 
  975500      975.487    570.71291    23.458998   -437.76111   -414.30211    11486.565    519.38859   -1928.9075    35869.213    15.590582    13.501799    25.969558    5466.6158 
  976000      975.987    584.99345    24.045995   -438.34258   -414.29658    13346.871   -2844.7839   -1190.5335    44075.932    15.590585    13.501802     25.96954    5466.6137 
  976500      976.487    582.67294    23.950612   -438.24219   -414.29158    11144.411   -6887.2366    3058.0641    37262.404    15.590587    13.501804    25.969523    5466.6117 
  977000      976.987    580.66299    23.867993   -438.15463   -414.28664    11553.102    1303.1351    3136.6977    30219.472     15.59059    13.501806    25.969505    5466.6097 
  977500      977.487     538.4174      22.1315   -436.41382   -414.28232    12084.899   -4610.0006    6940.5274    33924.171    15.590592    13.501808    25.969488    5466.6077 
  978000      977.987    587.08492    24.131965   -438.41069   -414.27872    12033.802   -6352.9479    1654.7132    40799.641    15.590594     13.50181     25.96947    5466.6057 
  978500      978.487    596.55574     24.52126   -438.79535   -414.27409    11549.251   -6269.7341    3304.9255     37612.56    15.590597    13.501812    25.969453    5466.6037 
  979000      978.987    550.29757    22.619831   -436.88726   -414.26743    12466.257   -7197.3589    4988.0954    39608.034    15.590599    13.501814    25.969435    5466.6017 
  979500      979.487     584.4846     24.02508   -438.28746   -414.26238     11323.69   -4731.5552    1241.0951    37461.529    15.590602    13.501816    25.969418    5466.5997 
  980000      979.987    562.59492     23.12531    -437.3837   -414.25839    11689.452   -3431.9356    144.29215        38356    15.590604    13.501818      25.9694    5466.5976 
  980500      980.487    571.34834    23.485117   -437.73775   -414.25263    11702.298   -4016.2961    3875.5283    35247.662    15.590606     13.50182    25.969383    5466.5956 
  981000      980.987    590.51894    24.273119   -438.52073   -414.24761    11584.824   -8577.5526   -1445.6984    44777.723    15.590609    13.501822    25.969365    5466.5936 
  981500      981.487    548.07901    22.528637   -436.77048   -414.24184     13290.01   -5794.6022     3985.385    41679.247    15.590611    13.501824    25.969348    5466.5916 
  982000      981.987    592.74192    24.364494   -438.60226   -414.23777    11993.893   -3482.2627    2695.3426      36768.6    15.590614    13.501826     25.96933    5466.5896 
  982500      982.487    575.46566    23.654358   -437.88687   -414.23251    11667.509   -5505.3174    1495.4804    39012.363    15.590616    13.501828    25.969313    5466.5876 
  983000      982.987    545.51357    22.423186   -436.65028    -414.2271    11175.552   -1424.9935   -1328.2521    36279.903    15.590618     13.50183    25.969295    5466.5856 
  983500      983.487    569.25397    23.399028   -437.62071   -414.22168    12627.117   -2153.2647    1136.1491    38898.467    15.590621    13.501832    25.969278    5466.5836 
  984000      983.987     565.2451    23.234245   -437.44938   -414.21514    12018.822   -3395.6597    5866.5008    33585.626    15.590623    13.501834     25.96926    5466.5815 
  984500      984.487     582.1142    23.927645   -438.13709   -414.20945    10684.238   -3996.4106   -1476.3257     37525.45    15.590626    13.501836    25.969243    5466.5795 
  985000      984.987    597.38742    24.555446   -438.76113   -414.20568    11057.815   -4062.2612    2366.8244    34868.882    15.590628    13.501838    25.969225    5466.5775 
  985500      985.487    552.35134    22.704251   -436.90241   -414.19816    10688.875   -8541.5143    1303.5374    39304.601     15.59063     13.50184    25.969208    5466.5755 
  986000      985.987    555.09402    22.816988   -437.00949   -414.19251    12669.118   -4703.5422    -583.9181    43294.815    15.590633    13.501843     25.96919    5466.5735 
  986500      986.487    568.22891    23.356894   -437.54088   -414.18398    12319.808   -4201.5292    4898.6418     36262.31    15.590635    13.501845    25.969173    5466.5715 
  987000      986.987    581.96454    23.921493    -438.1001   -414.17861    11589.437   -4135.8126    2716.5274    36187.597    15.590638    13.501847    25.969155    5466.5695 
  987500      987.487    571.37367    23.486158    -437.6584   -414.17224    13026.524   -1261.9802    6935.6829    33405.868     15.59064    13.501849    25.969138    5466.5675 
  988000      987.987    586.36148    24.102228   -438.26733    -414.1651    11942.011   -3698.2758    1176.7369    38347.572    15.590642    13.501851     25.96912    5466.5655 
  988500      988.487    567.96128    23.345893   -437.50755   -414.16166    12625.657   -2466.0772    4284.1086     36058.94    15.590645    13.501853    25.969103    5466.5634 
  989000      988.987    589.80532    24.243786   -438.39682   -414.15303    11799.458   -6455.0887    1045.1369    40808.326    15.590647    13.501855    25.969085    5466.5614 
  989500      989.487     585.4981    24.066739   -438.21371   -414.14697    11566.478   -3420.0422    2900.0383    35219.438     15.59065    13.501857    25.969068    5466.5594 
  990000      989.987    563.61676    23.167313   -437.30688   -414.13957    13686.757   -3296.4537     1286.885    43069.839    15.590652    13.501859     25.96905    5466.5574 
  990500      990.487    581.85128    23.916837   -438.04877   -414.13193      11704.7   -698.79755    2730.3928    33082.506    15.590654    13.501861    25.969033    5466.5554 
  991000      990.987    573.97554    23.593107   -437.72026   -414.12715    12579.843   -4243.0388    2549.3807    39433.187    15.590657    13.501863    25.969015    5466.5534 
  991500      991.487    571.40779    23.487561    -437.6064   -414.11884    11163.202   -7778.8921    2890.9955    38377.504    15.590659    13.501865    25.968998    5466.5514 
  992000      991.987    591.82473    24.326793    -438.4407   -414.11391    12603.315   -2193.5702    2538.4639    37465.051    15.590662    13.501867     25.96898    5466.5494 
  992500      992.487    571.06343    23.473406   -437.57884   -414.10543    11871.713   -7386.7232    1613.7378    41388.125    15.590664    13.501869    25.968963    5466.5473 
  993000      992.987    559.50923    22.998474   -437.09626   -414.09779    12900.082   -1762.5524    2736.5339    37726.265    15.590666    13.501871    25.968945    5466.5453 
  993500      993.487    581.20377    23.890222   -437.98062    -414.0904    11395.521   -4128.4853    3253.1224    35061.927    15.590669    13.501873    25.968928    5466.5433 
  994000      993.987    581.26894    23.892901   -437.97676   -414.08386    10789.336   -4781.6385    4200.9277    32948.719    15.590671    13.501875     25.96891    5466.5413 
  994500      994.487     551.5933    22.673091   -436.75067   -414.07758    13544.723     842.6603    3108.2636    36683.244    15.590674    13.501877    25.968893    5466.5393 
  995000      994.987    599.93766    24.660273   -438.73192   -414.07165    12249.318    275.38187    602.66713    35869.904    15.590676    13.501879    25.968875    5466.5373 
  995500      995.487    540.59748    22.221111   -436.28689   -414.06578    12683.698   -5841.9691    1239.3673    42653.696    15.590678    13.501881    25.968858    5466.5353 
  996000      995.987    550.82712    22.641598   -436.69934   -414.05774    11025.895   -1807.9521    2873.3751    32012.261    15.590681    13.501884     25.96884    5466.5333 
  996500      996.487    614.47876    25.257981   -439.31054   -414.05256    11018.194   -4761.2575    1397.7477    36418.091    15.590683    13.501886    25.968823    5466.5312 
  997000      996.987    611.08356    25.118422   -439.16458   -414.04615    10355.368   -3752.3965   -3792.8765    38611.376    15.590686    13.501888    25.968805    5466.5292 
  997500      997.487    571.68969    23.499148   -437.53685    -414.0377     11807.23    -2245.673    3506.1454    34161.219    15.590688     13.50189    25.968788    5466.5272 
  998000      997.987    590.52907    24.273536   -438.30348   -414.02995    13003.164   -70.549059    2782.1733    36297.867     15.59069    13.501892     25.96877    5466.5252 
  998500      998.487    571.47979     23.49052   -437.51266   -414.02214     13547.87   -1600.6357    2760.0329    39484.212    15.590693    13.501894    25.968753    5466.5232 
  999000      998.987    577.49062    23.737594   -437.75416   -414.01657    12754.027   -5596.8285    5926.4063    37932.502    15.590695    13.501896    25.968735    5466.5212 
  999500      999.487    570.31853    23.442787   -437.45159   -414.00881     13071.52   -2085.4058    1623.1616    39676.805    15.590698    13.501898    25.968718    5466.5192 
 1000000      999.987    546.78368    22.475393   -436.47617   -414.00078    12143.582   -774.35964    2851.8584    34353.247      15.5907      13.5019      25.9687    5466.5172 
 1000013         1000    562.22711    23.110191   -437.11144   -414.00125     11566.57   -1543.3941    3049.2887    33193.814      15.5907      13.5019      25.9687    5466.5171 
Loop time of 934.373 on 28 procs for 1000000 steps with 319 atoms

Performance: 92.468 ns/day, 0.260 hours/ns, 1070.237 timesteps/s
87.2% CPU use with 28 MPI tasks x no OpenMP threads

MPI task timing breakdown:
Section |  min time  |  avg time  |  max time  |%varavg| %total
---------------------------------------------------------------
Pair    | 754.94     | 813.81     | 850.3      |  82.2 | 87.10
Neigh   | 0.0078978  | 0.012089   | 0.017478   |   2.2 |  0.00
Comm    | 73.85      | 109.05     | 166.21     | 218.5 | 11.67
Output  | 0.10148    | 0.10366    | 0.12501    |   1.3 |  0.01
Modify  | 4.6461     | 6.2705     | 8.0255     |  37.6 |  0.67
Other   |            | 5.128      |            |       |  0.55

Nlocal:    11.3929 ave 17 max 7 min
Histogram: 3 2 3 3 2 5 4 2 2 2
Nghost:    662.964 ave 681 max 642 min
Histogram: 1 1 3 3 3 3 7 6 0 1
Neighs:    722.464 ave 1052 max 428 min
Histogram: 3 2 4 3 1 5 3 4 1 2
FullNghs:  1444.93 ave 2194 max 888 min
Histogram: 5 3 3 1 5 5 1 3 1 1

Total # of neighbors = 40458
Ave neighs/atom = 126.828
Neighbor list builds = 176
Dangerous builds = 0

write_restart   POSCAR_1x1x1.rest

#unfix    1
#undump   1
Total wall time: 0:15:34
