LAMMPS (7 Dec 2015)
#----------- Initialize Simulation ------------ restart01
#processors	2 2 2
units		metal
boundary	p p p     ## periodic boundary condition  on x y z axis ##
atom_style atomic
#atom_modify map array sort 0 0.0

read_data	POSCAR_1x1x1.lammps
  triclinic box = (0 0 0) to (15.5954 13.506 25.9337) with tilt (-7.7976 0 0)
  2 by 2 by 7 MPI processor grid
  reading atoms ...
  319 atoms

#----------- Define Potential -----------------
pair_style meam
pair_coeff * * MgAlZn.library.meam Mg Al Zn MgAlZn.parameter.meam Mg Al Zn 	#1=Mg 2=Al 3=Zn	#atoms/mass

#----------- Neighbor List --------------------
neighbor 2.0 bin
neigh_modify delay 10 check yes

#--------------  Run a simulation (minimization) ---------------------------------------
minimize       1.0e-4   1.0e-6   100   1000          #結構優化的條件
WARNING: Resetting reneighboring criteria during minimization (../min.cpp:168)
Neighbor list info ...
  2 neighbor list requests
  update every 1 steps, delay 0 steps, check yes
  max neighbors/atom: 2000, page size: 100000
  master list distance cutoff = 8
  ghost atom cutoff = 8
  binsize = 4 -> bins = 6 4 7
Memory usage per processor = 8.65206 Mbytes
Step Temp E_pair E_mol TotEng Press 
       0            0   -437.76879            0   -437.76879    9977.4345 
      10            0   -459.50593            0   -459.50593   -8323.6004 
Loop time of 0.0164642 on 28 procs for 10 steps with 319 atoms

87.4% CPU use with 28 MPI tasks x no OpenMP threads

Minimization stats:
  Stopping criterion = energy tolerance
  Energy initial, next-to-last, final = 
        -437.768790049     -459.464052913     -459.505934743
  Force two-norm initial, final = 21.4622 0.669891
  Force max component initial, final = 2.88717 0.133721
  Final line search alpha, max atom move = 0.609063 0.0814444
  Iterations, force evaluations = 10 16

MPI task timing breakdown:
Section |  min time  |  avg time  |  max time  |%varavg| %total
---------------------------------------------------------------
Pair    | 0.012557   | 0.013691   | 0.014775   |   0.4 | 83.16
Neigh   | 0          | 0          | 0          |   0.0 |  0.00
Comm    | 0.00095013 | 0.0020045  | 0.0031093  |   1.1 | 12.17
Output  | 0          | 0          | 0          |   0.0 |  0.00
Modify  | 0          | 0          | 0          |   0.0 |  0.00
Other   |            | 0.0007682  |            |       |  4.67

Nlocal:    11.3929 ave 16 max 6 min
Histogram: 1 3 2 2 2 3 3 4 4 4
Nghost:    660.714 ave 675 max 641 min
Histogram: 1 2 0 1 4 9 2 3 3 3
Neighs:    726.214 ave 1004 max 366 min
Histogram: 2 2 2 2 3 3 3 3 5 3
FullNghs:  1452.43 ave 2046 max 763 min
Histogram: 4 2 2 2 2 3 3 3 3 4

Total # of neighbors = 40668
Ave neighs/atom = 127.486
Neighbor list builds = 0
Dangerous builds = 0
velocity all  create 600.0 4928459 #rot yes dist gaussian

#--------------  Run a simulation (Relaxation)  ----------------------------------------
fix  1  all  nvt   temp  600.0  600.0  100				#damping constant
#fix  2  all  npt   temp  393.0  393.0  50 iso 0.0 0.0 1000.0
fix  2  all deform 1 x final 0 15.6002 y final 0 13.5102 z final 0 25.8987 xy final -7.8 units lattice
#fix  3  all  npt   temp  393.0  393.0  50 z 0.0 0.0 1000.0

#variable b equal 1
#fix 2 all efield  0.0  0.0  v_b
#compute pot all pe/atom


#----------- Output --------------------------
thermo	 500
timestep  0.001		#1.0 fs
thermo_style	custom step time temp ke pe etotal press pxx pyy pzz lx ly lz vol

dump 1 all custom 10000 dump.eq id type x y z
dump_modify 1 sort  id

run        1000000	#1000 ps
Neighbor list info ...
  2 neighbor list requests
  update every 1 steps, delay 10 steps, check yes
  max neighbors/atom: 2000, page size: 100000
  master list distance cutoff = 8
  ghost atom cutoff = 8
  binsize = 4 -> bins = 6 4 7
Memory usage per processor = 7.55929 Mbytes
Step Time Temp KinEng PotEng TotEng Press Pxx Pyy Pzz Lx Ly Lz Volume 
      10            0          600    24.662836   -459.50593    -434.8431   -3501.0768   -13587.727   -11450.065    14534.562      15.5954       13.506      25.9337    5462.4534 
     500         0.49    318.80038    13.104202   -447.94274   -434.83854    2354.1451   -11272.162     -7244.83    25579.427    15.595402    13.506002    25.933683    5462.4515 
    1000         0.99    315.49169    12.968199   -447.80625   -434.83805    2500.6816   -10992.891   -5528.0854    24023.021    15.595405    13.506004    25.933665    5462.4495 
    1500         1.49    297.35104    12.222533   -447.05939   -434.83686    4511.7761   -11667.583   -4757.7393    29960.651    15.595407    13.506006    25.933648    5462.4475 
    2000         1.99    319.24485    13.122472   -447.95865   -434.83618    2221.1045   -11135.842   -9779.7261    27578.881     15.59541    13.506008     25.93363    5462.4455 
    2500         2.49     321.2522    13.204984   -448.03943   -434.83445     4274.335   -8276.0583    -5177.248    26276.311    15.595412     13.50601    25.933613    5462.4435 
    3000         2.99    316.70807    13.018199   -447.85109   -434.83289    3529.0183   -9007.8415   -4607.3227    24202.219    15.595414    13.506013    25.933595    5462.4415 
    3500         3.49    326.67492    13.427883   -448.25896   -434.83107    3850.9226   -9343.3816   -8091.0301     28987.18    15.595417    13.506015    25.933578    5462.4395 
    4000         3.99    309.56724    12.724677   -447.55286   -434.82818    3453.7716   -9652.9757   -7752.8308    27767.121    15.595419    13.506017     25.93356    5462.4375 
    4500         4.49    300.47131    12.350791    -447.1764   -434.82561    3334.6833   -9652.8025   -5827.9875     25484.84    15.595422    13.506019    25.933543    5462.4355 
    5000         4.99    324.31416    13.330845   -448.15428   -434.82344    3250.4165   -9323.1694   -4905.6743    23980.093    15.595424    13.506021    25.933525    5462.4335 
    5500         5.49    320.12779    13.158765   -447.97877   -434.82001    2643.6342   -8810.6641   -8151.9422    24893.509    15.595426    13.506023    25.933508    5462.4315 
    6000         5.99    331.19484    13.613673   -448.43015   -434.81648     2937.996   -11777.607   -10110.372    30701.967    15.595429    13.506025     25.93349    5462.4295 
    6500         6.49    311.51021    12.804542   -447.61739   -434.81285    2786.8134   -9388.0665    -9715.796    27464.303    15.595431    13.506027    25.933473    5462.4275 
    7000         6.99    319.42885    13.130035   -447.93854   -434.80851    3138.2846   -9267.6158   -8147.7039    26830.174    15.595434    13.506029    25.933455    5462.4255 
    7500         7.49    315.14455    12.953931   -447.75793     -434.804    3017.0585   -9082.1923   -9148.4851    27281.853    15.595436    13.506031    25.933438    5462.4235 
    8000         7.99    303.53448    12.476702   -447.27543   -434.79873    4067.4797   -10461.612   -4510.2087    27174.259    15.595438    13.506034     25.93342    5462.4215 
    8500         8.49    340.81973    14.009302   -448.80375   -434.79445    2460.4741   -10647.562   -8105.5412    26134.526    15.595441    13.506036    25.933403    5462.4195 
    9000         8.99    321.11299    13.199262   -447.98827   -434.78901    3116.8081   -10564.511    -5088.059    25002.994    15.595443    13.506038    25.933385    5462.4175 
    9500         9.49    308.03568    12.661722   -447.44455   -434.78283    2540.9794    -10944.71   -7511.3554    26079.004    15.595446     13.50604    25.933368    5462.4155 
   10000         9.99    313.10557    12.870119   -447.64656   -434.77644    2912.1226   -7390.1658   -9875.0927    26001.626    15.595448    13.506042     25.93335    5462.4135 
   10500        10.49    304.81257    12.529237   -447.29934    -434.7701    4322.1933   -6997.9848   -7715.2639    27679.829     15.59545    13.506044    25.933333    5462.4115 
   11000        10.99    306.98716    12.618623   -447.38198   -434.76336    3091.9647   -10037.156   -5573.7271    24886.778    15.595453    13.506046    25.933315    5462.4095 
   11500        11.49    313.10667    12.870164   -447.62701   -434.75685    3547.8797   -10857.114   -5458.8035    26959.556    15.595455    13.506048    25.933298    5462.4075 
   12000        11.99    320.54814    13.176043   -447.92531   -434.74926    3617.5292   -8411.4061   -9379.6888    28643.682    15.595458     13.50605     25.93328    5462.4055 
   12500        12.49    337.48677    13.872301   -448.61383   -434.74153    3241.1479   -10450.865   -4242.7186    24417.028     15.59546    13.506052    25.933263    5462.4036 
   13000        12.99    310.83351    12.776726   -447.51007   -434.73335    3070.1356    -11927.55   -6845.8981    27983.855    15.595462    13.506055    25.933245    5462.4016 
   13500        13.49    318.80997    13.104597    -447.8301    -434.7255     1873.749    -11301.97   -8410.4389    25333.656    15.595465    13.506057    25.933228    5462.3996 
   14000        13.99    316.76284     13.02045   -447.73723   -434.71678    3598.7385   -8644.2204   -7484.6536    26925.089    15.595467    13.506059     25.93321    5462.3976 
   14500        14.49    298.58205    12.273133   -446.98157   -434.70843    3407.4558   -10077.854   -6056.0537    26356.275     15.59547    13.506061    25.933193    5462.3956 
   15000        14.99    334.47616    13.748551    -448.4473   -434.69875    4206.8461   -9383.8395   -5236.9408    27241.319    15.595472    13.506063    25.933175    5462.3936 
   15500        15.49     307.6571    12.646161   -447.33466    -434.6885    3723.2983   -9808.8894   -8675.6542    29654.439    15.595474    13.506065    25.933158    5462.3916 
   16000        15.99    329.20433    13.531854   -448.21093   -434.67907    3616.0262   -9565.8623   -5763.2155    26177.156    15.595477    13.506067     25.93314    5462.3896 
   16500        16.49    311.31641    12.796576   -447.46505   -434.66848    3408.5451   -11097.519   -6149.5982    27472.753    15.595479    13.506069    25.933123    5462.3876 
   17000        16.99    303.93385    12.493118   -447.15126   -434.65814    3346.6632   -9839.6208   -7382.3425    27261.953    15.595482    13.506071    25.933105    5462.3856 
   17500        17.49    331.60323     13.63046   -448.27855   -434.64809    3062.1236   -8738.2703    -7648.252    25572.893    15.595484    13.506073    25.933088    5462.3836 
   18000        17.99    344.60868    14.165045   -448.80234   -434.63729     2537.436   -10609.459   -9465.1877    27686.955    15.595486    13.506076     25.93307    5462.3816 
   18500        18.49    305.19593    12.544995   -447.17024   -434.62524    3961.3384   -8591.1502   -7550.4757    28025.641    15.595489    13.506078    25.933053    5462.3796 
   19000        18.99     324.5881    13.342105   -447.95623   -434.61413    3473.0179   -8961.3411   -7200.3602    26580.755    15.595491     13.50608    25.933035    5462.3776 
   19500        19.49    307.18913    12.626925   -447.22904   -434.60212    3606.9394     -10969.2   -6884.9766    28674.995    15.595494    13.506082    25.933018    5462.3756 
   20000        19.99    331.07933    13.608925   -448.19908   -434.59015    2619.4382   -10103.802   -8130.7558    26092.872    15.595496    13.506084       25.933    5462.3736 
   20500        20.49    335.59603    13.794583   -448.37258     -434.578    3759.6152   -7610.4913   -8591.4354    27480.772    15.595498    13.506086    25.932983    5462.3716 
   21000        20.99    319.59899    13.137029   -447.70196   -434.56493    2941.7625   -9872.8237   -7242.0338    25940.145    15.595501    13.506088    25.932965    5462.3696 
   21500        21.49    322.32393    13.249037   -447.80076   -434.55172    3936.5435   -8840.2221    -7867.653    28517.506    15.595503     13.50609    25.932948    5462.3676 
   22000        21.99    314.61348    12.932101    -447.4702    -434.5381    3032.6623    -9867.384   -6599.2074    25564.578    15.595506    13.506092     25.93293    5462.3656 
   22500        22.49    336.83631    13.845564    -448.3705   -434.52494    2748.1332   -11141.034   -6044.0057    25429.439    15.595508    13.506094    25.932913    5462.3636 
   23000        22.99    315.47808     12.96764   -447.47874    -434.5111    2505.4926   -11288.625   -8323.3703    27128.473     15.59551    13.506097    25.932895    5462.3616 
   23500        23.49    320.13074    13.158886   -447.65609   -434.49721    3958.7621   -9620.9315   -6086.1115    27583.329    15.595513    13.506099    25.932878    5462.3596 
   24000        23.99    321.08504    13.198113   -447.68087   -434.48276    2788.5836   -9497.8851   -9290.0152    27153.651    15.595515    13.506101     25.93286    5462.3576 
   24500        24.49    318.42391    13.088728    -447.5565   -434.46777    2817.9421   -11186.333   -6272.3926    25912.552    15.595518    13.506103    25.932843    5462.3556 
   25000        24.99    312.73328    12.854816   -447.30801   -434.45319    3706.4434   -8038.7477   -5375.6014    24533.679     15.59552    13.506105    25.932825    5462.3536 
   25500        25.49    330.65987    13.591683   -448.02969   -434.43801    2623.4973    -10813.87   -5497.0947    24181.456    15.595522    13.506107    25.932808    5462.3517 
   26000        25.99    335.58233     13.79402   -448.21736   -434.42334    3534.5675   -8984.3514   -6656.5429    26244.597    15.595525    13.506109     25.93279    5462.3497 
   26500        26.49    326.81433    13.433614   -447.84062   -434.40701    3342.5025   -9024.1541   -8098.9976    27150.659    15.595527    13.506111    25.932773    5462.3477 
   27000        26.99    315.86417     12.98351   -447.37421    -434.3907    2624.8659   -10426.036      -5389.9    23690.534     15.59553    13.506113    25.932755    5462.3457 
   27500        27.49     322.3826    13.251448    -447.6259   -434.37445    4330.7115   -7710.9607   -5263.7835    25966.879    15.595532    13.506115    25.932738    5462.3437 
   28000        27.99    308.84767    12.695099    -447.0529    -434.3578    5134.3681   -8790.8622   -6938.3837     31132.35    15.595534    13.506118     25.93272    5462.3417 
   28500        28.49    319.41409    13.129429   -447.47139   -434.34196     3543.821   -9778.6627   -4815.2321    25225.358    15.595537     13.50612    25.932703    5462.3397 
   29000        28.99    324.24718    13.328092   -447.65298   -434.32489    3095.6683   -10703.006    -5532.315    25522.326    15.595539    13.506122    25.932685    5462.3377 
   29500        29.49    305.30769    12.549589   -446.85719    -434.3076    3987.9096   -9664.2042   -6686.2872     28314.22    15.595542    13.506124    25.932668    5462.3357 
   30000        29.99    312.27206    12.835858    -447.1262   -434.29034    3715.3807   -9112.0958   -5061.0075    25319.245    15.595544    13.506126     25.93265    5462.3337 
   30500        30.49    323.59246     13.30118   -447.57466   -434.27348     4386.263   -7885.3533    -7262.408     28306.55    15.595546    13.506128    25.932633    5462.3317 
   31000        30.99    307.13901    12.624865   -446.88074   -434.25587    3630.8691   -6172.0001   -6048.7165    23113.324    15.595549     13.50613    25.932615    5462.3297 
   31500        31.49    324.05075    13.320017    -447.5583   -434.23828    4027.1623   -9149.0042   -6092.6211    27323.112    15.595551    13.506132    25.932598    5462.3277 
   32000        31.99    318.32846    13.084804   -447.30501    -434.2202    4599.3729   -8092.2042   -7555.1865     29445.51    15.595554    13.506134     25.93258    5462.3257 
   32500        32.49    324.62229     13.34351   -447.54584   -434.20233    3918.5218   -8675.2139   -7087.9482    27518.728    15.595556    13.506136    25.932563    5462.3237 
   33000        32.99    330.31806    13.577633   -447.76186   -434.18423    3425.6094   -11258.354   -5415.3497    26950.532    15.595558    13.506139    25.932545    5462.3217 
   33500        33.49    314.15887    12.913414   -447.07914   -434.16573    3616.0039   -5620.1071   -8057.0662    24525.185    15.595561    13.506141    25.932528    5462.3197 
   34000        33.99    329.74838    13.554217    -447.7019   -434.14768    3388.4937   -8715.1458   -6377.3276    25257.955    15.595563    13.506143     25.93251    5462.3177 
   34500        34.49    313.90422    12.902947   -447.03221   -434.12926    4506.8306   -9425.2215   -4906.0237    27851.737    15.595566    13.506145    25.932493    5462.3157 
   35000        34.99    330.12896    13.569861   -447.68082   -434.11096     3522.171   -9199.5784   -8309.5261    28075.618    15.595568    13.506147    25.932475    5462.3137 
   35500        35.49    320.81284    13.186924   -447.27871   -434.09179    3273.6028   -10143.578   -5807.3854    25771.772     15.59557    13.506149    25.932458    5462.3117 
   36000        35.99    330.27872    13.576016   -447.64946   -434.07344    2743.0703    -9054.309   -4806.2847    22089.805    15.595573    13.506151     25.93244    5462.3097 
   36500        36.49    331.50402    13.626382   -447.68048   -434.05409    3713.2693   -10099.998    -5949.969    27189.775    15.595575    13.506153    25.932423    5462.3077 
   37000        36.99    341.72901    14.046677   -448.08195   -434.03527    2563.3588   -10317.117   -6269.0562     24276.25    15.595578    13.506155    25.932405    5462.3057 
   37500        37.49    319.90933    13.149785    -447.1653   -434.01551    4334.6532   -9293.9011   -5584.7283    27882.589     15.59558    13.506157    25.932388    5462.3037 
   38000        37.99    323.86462    13.312367   -447.30977   -433.99741    4240.9658   -9876.1752   -7341.2535    29940.326    15.595582     13.50616     25.93237    5462.3017 
   38500        38.49    325.86118    13.394434   -447.37252   -433.97809    2788.1799    -11171.94    -4744.451    24280.931    15.595585    13.506162    25.932353    5462.2998 
   39000        38.99    318.23747    13.081064   -447.03945   -433.95839    4515.7804   -9432.3516   -7573.8928    30553.586    15.595587    13.506164    25.932335    5462.2978 
   39500        39.49    337.75858    13.883474   -447.82281   -433.93934    2732.7378   -8109.0598   -7203.1203    23510.394     15.59559    13.506166    25.932318    5462.2958 
   40000        39.99    320.10401    13.157788   -447.07818    -433.9204     3665.375   -9115.3317   -7508.9601    27620.417    15.595592    13.506168      25.9323    5462.2938 
   40500        40.49    317.39458    13.046417   -446.94713   -433.90072    3577.2059   -9120.6748   -5621.1787    25473.471    15.595594     13.50617    25.932283    5462.2918 
   41000        40.99     310.1162    12.747241   -446.62894    -433.8817     4212.111   -8441.5681   -4101.0515    25178.953    15.595597    13.506172    25.932265    5462.2898 
   41500        41.49    335.11905    13.774977   -447.63755   -433.86257    3812.3205   -8705.9201   -6471.4435    26614.325    15.595599    13.506174    25.932248    5462.2878 
   42000        41.99    323.09686    13.280808   -447.12416   -433.84336    3553.6279   -9407.9196   -6954.9256    27023.729    15.595602    13.506176     25.93223    5462.2858 
   42500        42.49     341.3873    14.032631   -447.85743    -433.8248    3376.7024   -9071.2635   -5933.6317    25135.002    15.595604    13.506178    25.932213    5462.2838 
   43000        42.99    315.27675    12.959365   -446.76441   -433.80505     4445.652   -8047.5821   -7862.5126    29247.051    15.595606    13.506181    25.932195    5462.2818 
   43500        43.49    326.80931    13.433407   -447.21938   -433.78598    3955.8712    -9126.902   -5540.9198    26535.435    15.595609    13.506183    25.932178    5462.2798 
   44000        43.99    321.33557     13.20841   -446.97527   -433.76686    3327.7764   -8266.2212    -9293.451    27543.001    15.595611    13.506185     25.93216    5462.2778 
   44500        44.49    334.10193    13.733168   -447.48104   -433.74787    2738.5094   -8642.6532   -8518.8571    25377.038    15.595614    13.506187    25.932143    5462.2758 
   45000        44.99    303.40124    12.471225   -446.19963   -433.72841    3422.7928   -9993.1736   -5912.0875     26173.64    15.595616    13.506189    25.932125    5462.2738 
   45500        45.49    317.55358    13.052953   -446.76295      -433.71    3538.8065   -9628.3606   -6277.5459    26522.326    15.595618    13.506191    25.932108    5462.2718 
   46000        45.99     335.7462    13.800756   -447.49245   -433.69169    4724.1406   -9245.0128     -6085.25    29502.685    15.595621    13.506193     25.93209    5462.2698 
   46500        46.49    316.00753    12.989403   -446.66182   -433.67242    3824.1856   -8672.4028   -9044.4104     29189.37    15.595623    13.506195    25.932073    5462.2678 
   47000        46.99    322.07807    13.238931   -446.89313    -433.6542    4485.4131   -8971.5534   -7967.7203    30395.513    15.595626    13.506197    25.932055    5462.2658 
   47500        47.49    340.30739    13.988242   -447.62414   -433.63589    4709.2892   -9371.0328   -2964.3076    26463.208    15.595628    13.506199    25.932038    5462.2638 
   48000        47.99    317.29036    13.042134   -446.65939   -433.61725    5041.6236   -10666.616   -5504.0479    31295.535     15.59563    13.506202     25.93202    5462.2618 
   48500        48.49    326.50487    13.420893   -447.01997   -433.59908    4570.5905   -8429.0424   -5784.2167    27925.031    15.595633    13.506204    25.932003    5462.2598 
   49000        48.99    335.62932    13.795951     -447.377   -433.58104     2554.491   -10159.496   -6315.1516    24138.121    15.595635    13.506206    25.931985    5462.2578 
   49500        49.49    315.57286    12.971536   -446.53384   -433.56231    4191.5047   -6794.3642   -7433.3226    26802.201    15.595638    13.506208    25.931968    5462.2558 
   50000        49.99    340.40636     13.99231    -447.5374   -433.54508    4122.7745   -9051.6263   -4106.5034    25526.453     15.59564     13.50621     25.93195    5462.2538 
   50500        50.49    330.02964    13.565778   -447.09251   -433.52673    2659.6377    -9420.788   -7577.9597    24977.661    15.595642    13.506212    25.931933    5462.2518 
   51000        50.99    330.06868    13.567383   -447.07654   -433.50915    4916.0657   -7389.7568   -6391.1786    28529.133    15.595645    13.506214    25.931915    5462.2498 
   51500        51.49    330.56129    13.587631   -447.07891   -433.49128    2557.1762   -11090.511   -8298.9595    27060.999    15.595647    13.506216    25.931898    5462.2478 
   52000        51.99    324.84112    13.352505   -446.82593   -433.47343    4293.3233   -9230.8498   -6390.8458    28501.666     15.59565    13.506218     25.93188    5462.2459 
   52500        52.49    338.96999    13.933269   -447.38949   -433.45622    4791.6223   -9032.2149    -6085.656    29492.738    15.595652     13.50622    25.931863    5462.2439 
   53000        52.99    326.52781    13.421836   -446.86035   -433.43851     3993.752   -8858.6431   -9012.3093    29852.208    15.595654    13.506223    25.931845    5462.2419 
   53500        53.49    331.51666    13.626902   -447.04842   -433.42151    3837.9997   -9620.9905   -5286.2189    26421.208    15.595657    13.506225    25.931828    5462.2399 
   54000        53.99    319.26418    13.123267   -446.52656   -433.40329    3700.7219   -9261.6078   -7227.9263      27591.7    15.595659    13.506227     25.93181    5462.2379 
   54500        54.49    315.00822    12.948327   -446.33469   -433.38636    4442.9675    -11377.54   -2781.9157    27488.358    15.595662    13.506229    25.931793    5462.2359 
   55000        54.99    332.21874     13.65576   -447.02517   -433.36941    4284.4655   -7899.0381   -5738.0303    26490.465    15.595664    13.506231    25.931775    5462.2339 
   55500        55.49    337.87946    13.888443   -447.24133   -433.35289    3981.5531   -8764.4517   -7706.9378    28416.049    15.595666    13.506233    25.931758    5462.2319 
   56000        55.99    333.31915    13.700992   -447.03646   -433.33547     3517.807    -9614.293   -8341.4457     28509.16    15.595669    13.506235     25.93174    5462.2299 
   56500        56.49    343.56145       14.122   -447.44129   -433.31929    3488.0986   -8524.4138   -7671.7251    26660.435    15.595671    13.506237    25.931723    5462.2279 
   57000        56.99     316.8205     13.02282   -446.32475   -433.30193    3844.5672   -9149.2245   -6848.9876    27531.914    15.595674    13.506239    25.931705    5462.2259 
   57500        57.49    338.57463    13.917017   -447.20322   -433.28621    3163.9808   -9691.0617   -7337.0001    26520.004    15.595676    13.506241    25.931688    5462.2239 
   58000        57.99    341.04078    14.018388   -447.28744   -433.26905    4118.3662   -8727.2906   -4046.5977    25128.987    15.595678    13.506244     25.93167    5462.2219 
   58500        58.49    342.81347    14.091254   -447.34428   -433.25302    3733.7134   -10152.886   -6575.2975    27929.324    15.595681    13.506246    25.931653    5462.2199 
   59000        58.99    332.96465    13.686421   -446.92293   -433.23651     4002.524   -10478.199    -5059.376    27545.147    15.595683    13.506248    25.931635    5462.2179 
   59500        59.49     341.5566    14.039591   -447.25955   -433.21996    3626.5241   -10349.732   -7560.6093    28789.913    15.595686     13.50625    25.931618    5462.2159 
   60000        59.99    338.90105    13.930435   -447.13388   -433.20345    3443.7077   -10249.474   -5642.7503    26223.348    15.595688    13.506252      25.9316    5462.2139 
   60500        60.49    331.23423    13.615292   -446.80228   -433.18699    4295.9114   -7015.3712   -8141.7935    28044.899     15.59569    13.506254    25.931583    5462.2119 
   61000        60.99    309.92545    12.739401   -445.90984   -433.17044    4543.4355   -10180.208   -6516.4051     30326.92    15.595693    13.506256    25.931565    5462.2099 
   61500        61.49    331.09059    13.609388   -446.76409   -433.15471    3329.5087   -10502.248   -9279.2104    29769.984    15.595695    13.506258    25.931548    5462.2079 
   62000        61.99    323.61076    13.301932    -446.4399   -433.13797    4304.3381   -8218.7129   -7320.8854    28452.613    15.595698     13.50626     25.93153    5462.2059 
   62500        62.49     336.9541    13.850406   -446.97255   -433.12214    4606.3942    -8608.605   -6747.1031    29174.891      15.5957    13.506262    25.931513    5462.2039 
   63000        62.99    328.87989    13.518518   -446.62536   -433.10684    4887.6695   -8105.1768   -5427.7854    28195.971    15.595702    13.506265    25.931495    5462.2019 
   63500        63.49    340.24773     13.98579   -447.07651   -433.09072    5338.1236    -7982.363   -3228.5543    27225.288    15.595705    13.506267    25.931478    5462.1999 
   64000        63.99    334.70897     13.75812   -446.83246   -433.07434    3926.4995   -9516.0698   -7349.3845    28644.953    15.595707    13.506269     25.93146    5462.1979 
   64500        64.49    318.74302    13.101844   -446.16001   -433.05816    6462.8855    -7613.457   -4543.0071    31545.121     15.59571    13.506271    25.931443    5462.1959 
   65000        64.99    336.30917    13.823896   -446.86631   -433.04242    3842.7912   -9724.3325    -5403.611    26656.317    15.595712    13.506273    25.931425    5462.1939 
   65500        65.49    343.14465    14.104867   -447.13183   -433.02696    3894.7429   -10096.964   -7193.3812    28974.574    15.595714    13.506275    25.931408     5462.192 
   66000        65.99    330.14732    13.570615   -446.58099   -433.01038    4407.8818   -8429.5839   -4057.7389    25710.968    15.595717    13.506277     25.93139      5462.19 
   66500        66.49     336.8208    13.844927    -446.8397   -432.99477    4359.1852   -9562.1406   -6311.1494    28950.845    15.595719    13.506279    25.931373     5462.188 
   67000        66.99    338.65415    13.920286   -446.89926   -432.97898    3870.6266   -9506.3097   -5856.7398    26974.929    15.595722    13.506281    25.931355     5462.186 
   67500        67.49    338.15489    13.899764   -446.86291   -432.96315    4458.5274     -8253.61    -5816.583    27445.775    15.595724    13.506283    25.931338     5462.184 
   68000        67.99    319.72705    13.142293   -446.08982   -432.94753     4989.734   -6337.9655   -5986.1072    27293.275    15.595726    13.506286     25.93132     5462.182 
   68500        68.49    337.69804    13.880986   -446.81286   -432.93188    4093.0202   -9869.7332   -9201.3771    31350.171    15.595729    13.506288    25.931303      5462.18 
   69000        68.99    337.00758    13.852604    -446.7683    -432.9157    4794.6099   -8460.8864   -6530.3446    29375.061    15.595731     13.50629    25.931285     5462.178 
   69500        69.49     342.9287     14.09599   -446.99647   -432.90048    4277.3473   -10062.206   -7218.7396    30112.988    15.595734    13.506292    25.931268     5462.176 
   70000        69.99    328.66608    13.509729   -446.39409   -432.88436    3909.5328   -10410.067   -6083.0879    28221.753    15.595736    13.506294     25.93125     5462.174 
   70500        70.49    349.45978    14.364448   -447.23323   -432.86878    4678.3065   -7860.1935   -7643.5062    29538.619    15.595738    13.506296    25.931233     5462.172 
   71000        70.99     338.4613    13.912359   -446.76487   -432.85251    3926.4949   -8191.2082   -5657.9483    25628.641    15.595741    13.506298    25.931215      5462.17 
   71500        71.49    325.95496    13.398289   -446.23479    -432.8365    4560.2605   -9665.6426   -3584.5529    26930.977    15.595743      13.5063    25.931198     5462.168 
   72000        71.99    313.84376    12.900462     -445.721   -432.82053    4113.1612   -9608.3433   -6362.7248    28310.552    15.595746    13.506302     25.93118     5462.166 
   72500        72.49    348.76323    14.335817   -447.14048   -432.80466    4716.9146   -8910.3578   -6392.6715    29453.773    15.595748    13.506304    25.931163     5462.164 
   73000        72.99    357.20969    14.683007   -447.47262   -432.78961    3808.6485   -9507.0749   -8859.7649    29792.785     15.59575    13.506307    25.931145     5462.162 
   73500        73.49     348.6404    14.330768   -447.10333   -432.77256    3553.7613   -9182.0526   -5825.6566    25668.993    15.595753    13.506309    25.931128      5462.16 
   74000        73.99     333.6243    13.713536   -446.46865   -432.75511    3095.0519   -6765.8932   -9381.6335    25432.682    15.595755    13.506311     25.93111     5462.158 
   74500        74.49    334.00149     13.72904   -446.46857   -432.73953     4296.467   -8634.8986   -6484.8092    28009.109    15.595758    13.506313    25.931093     5462.156 
   75000        74.99    351.57614    14.451441   -447.17533   -432.72389    3964.5216   -8749.7554   -5996.5775    26639.898     15.59576    13.506315    25.931075     5462.154 
   75500        75.49    339.66867    13.961988   -446.66952   -432.70753    4081.3765   -8471.6094    -6689.261        27405    15.595762    13.506317    25.931058     5462.152 
   76000        75.99    338.80618    13.926535   -446.61802   -432.69148    4971.6587   -8300.9132   -5257.5831    28473.472    15.595765    13.506319     25.93104      5462.15 
   76500        76.49    339.64513     13.96102   -446.63579   -432.67477    5469.1718   -4905.5099    -4498.829    25811.854    15.595767    13.506321    25.931023     5462.148 
   77000        76.99    336.77126    13.842891   -446.50145   -432.65856    5143.5625   -9611.8328   -5627.0699     30669.59     15.59577    13.506323    25.931005     5462.146 
   77500        77.49    340.31389    13.988509   -446.63049   -432.64198    4091.4821   -8626.6101   -5807.9256    26708.982    15.595772    13.506325    25.930988     5462.144 
   78000        77.99    323.49021    13.296977   -445.92202   -432.62505    4233.8966   -10113.469   -3713.8539    26529.013    15.595774    13.506328     25.93097     5462.142 
   78500        78.49    349.68443    14.373683   -446.98287   -432.60919    3827.6968   -8291.0134   -8880.2737    28654.378    15.595777     13.50633    25.930953      5462.14 
   79000        78.99    328.69449    13.510897   -446.10324   -432.59234    4704.7016   -8133.2784   -4665.9474    26913.331    15.595779    13.506332    25.930935     5462.138 
   79500        79.49    332.57316    13.670329   -446.24591   -432.57558    4132.9827   -8553.3074   -7357.6381    28309.894    15.595782    13.506334    25.930918    5462.1361 
   80000        79.99    352.85843    14.504149   -447.06319   -432.55904    3853.0316   -9787.2546   -5466.8461    26813.195    15.595784    13.506336      25.9309    5462.1341 
   80500        80.49    334.72229    13.758668   -446.30076   -432.54209    4345.4452   -10272.297   -4531.4294    27840.062    15.595786    13.506338    25.930883    5462.1321 
   81000        80.99    330.47689    13.584162   -446.10973   -432.52557    4563.6977   -10855.163    -5542.236    30088.492    15.595789     13.50634    25.930865    5462.1301 
   81500        81.49    328.36812    13.497482   -446.00554   -432.50806    5565.7061   -7952.5914    -3886.625    28536.335    15.595791    13.506342    25.930848    5462.1281 
   82000        81.99    325.04831    13.361022   -445.85157   -432.49054    4269.6133   -10159.798   -7608.1998    30576.837    15.595794    13.506344     25.93083    5462.1261 
   82500        82.49    345.04477    14.182971   -446.65722   -432.47424    4026.6103    -9084.065   -7162.9913    28326.887    15.595796    13.506346    25.930813    5462.1241 
   83000        82.99    344.11167    14.144616   -446.60193   -432.45731     3504.345   -7858.3231    -4314.454    22685.812    15.595798    13.506349    25.930795    5462.1221 
   83500        83.49    330.07884      13.5678   -446.00771   -432.43991    4230.6019   -9763.4716   -6181.3033    28636.581    15.595801    13.506351    25.930778    5462.1201 
   84000        83.99    337.69742     13.88096   -446.30366    -432.4227    4200.4059   -10153.665   -5316.7884    28071.672    15.595803    13.506353     25.93076    5462.1181 
   84500        84.49    341.98717    14.057289   -446.46258   -432.40529    3932.0783   -7502.7793   -2755.1552    22054.169    15.595806    13.506355    25.930743    5462.1161 
   85000        84.99    349.49716    14.365985   -446.75349   -432.38751    5050.1467   -10149.903   -6033.5478    31333.891    15.595808    13.506357    25.930725    5462.1141 
   85500        85.49    336.32605     13.82459   -446.19466   -432.37007     5263.725   -6212.1655   -6811.9679    28815.308     15.59581    13.506359    25.930708    5462.1121 
   86000        85.99    348.78278    14.336621   -446.68941   -432.35279    3023.5733    -10478.75   -7167.0693    26716.539    15.595813    13.506361     25.93069    5462.1101 
   86500        86.49    332.70731    13.675843   -446.01041   -432.33457    3819.7217   -9247.6721   -8128.1576    28834.995    15.595815    13.506363    25.930673    5462.1081 
   87000        86.99    344.62769    14.165827   -446.48251   -432.31668    4309.8677   -7741.0845   -6582.2325     27252.92    15.595818    13.506365    25.930655    5462.1061 
   87500        87.49    336.70768    13.840277   -446.13879   -432.29851    4495.4007   -8838.1873   -5402.2712    27726.661     15.59582    13.506367    25.930638    5462.1041 
   88000        87.99    346.98297     14.26264   -446.54371   -432.28107    5273.5492   -9889.8871   -3953.6027    29664.137    15.595822     13.50637     25.93062    5462.1021 
   88500        88.49    345.32962    14.194679   -446.45708    -432.2624    3842.9339   -13010.454   -3534.6089    28073.865    15.595825    13.506372    25.930603    5462.1001 
   89000        88.99    357.12865    14.679675   -446.92387    -432.2442    4699.5664   -8117.8941   -5735.7586    27952.352    15.595827    13.506374    25.930585    5462.0981 
   89500        89.49    338.41291     13.91037   -446.13581   -432.22544    4453.5529   -8763.2405   -5310.8956    27434.795     15.59583    13.506376    25.930568    5462.0961 
   90000        89.99    345.63318    14.207157   -446.41423   -432.20707    4078.2048   -8850.6138   -4912.2738    25997.502    15.595832    13.506378     25.93055    5462.0941 
   90500        90.49    346.26315    14.233052   -446.42155    -432.1885    4187.7741   -8434.3579   -6344.4734    27342.154    15.595834     13.50638    25.930533    5462.0921 
   91000        90.99    345.32042    14.194301   -446.36442   -432.17012    4834.3766   -9870.9915   -6039.5093    30413.631    15.595837    13.506382    25.930515    5462.0901 
   91500        91.49    341.00246    14.016813   -446.16844   -432.15163    5049.0708   -7578.5444   -5522.3748    28248.132    15.595839    13.506384    25.930498    5462.0881 
   92000        91.99     366.4195    15.061573   -447.19472   -432.13314    5041.8509   -11204.496    -3939.991     30270.04    15.595842    13.506386     25.93048    5462.0861 
   92500        92.49     367.6825    15.113488   -447.22774   -432.11425    4645.3219   -7781.1506   -3976.1338     25693.25    15.595844    13.506388    25.930463    5462.0841 
   93000        92.99    334.60951    13.754032    -445.8487   -432.09467    5577.2332   -8551.2556   -4654.8337    29937.789    15.595846    13.506391    25.930445    5462.0821 
   93500        93.49    356.24642    14.643412   -446.71932   -432.07591    4544.5927   -9725.3832   -6963.4429    30322.604    15.595849    13.506393    25.930428    5462.0802 
   94000        93.99     341.8652    14.052275   -446.10843   -432.05616    4783.2441   -7893.9177   -6281.6103     28525.26    15.595851    13.506395     25.93041    5462.0782 
   94500        94.49    330.34825    13.578874   -445.61595   -432.03707    4277.9016   -8362.9844   -6662.7736    27859.463    15.595854    13.506397    25.930393    5462.0762 
   95000        94.99    352.46555       14.488   -446.50584   -432.01784    5255.0343   -9917.6075   -6269.2316    31951.942    15.595856    13.506399    25.930375    5462.0742 
   95500        95.49    356.65961    14.660396   -446.65875   -431.99835    5798.4836   -9780.1129   -6079.2819    33254.846    15.595858    13.506401    25.930358    5462.0722 
   96000        95.99    342.59761    14.082381   -446.06139   -431.97901    4718.3044     -9453.65    -6175.492    29784.055    15.595861    13.506403     25.93034    5462.0702 
   96500        96.49    368.47464    15.146049   -447.10553   -431.95948    4119.0768   -9372.2695   -5613.1936    27342.694    15.595863    13.506405    25.930323    5462.0682 
   97000        96.99    336.84278     13.84583   -445.78533    -431.9395    5452.2842   -6875.7413   -9240.0752    32472.669    15.595866    13.506407    25.930305    5462.0662 
   97500        97.49    355.04294    14.593943   -446.51361   -431.91966    4393.8377   -8996.5306   -6239.7207    28417.764    15.595868    13.506409    25.930288    5462.0642 
   98000        97.99     349.6227    14.371145   -446.27097   -431.89983    5870.8104   -8774.7896   -5426.7953    31814.016     15.59587    13.506412     25.93027    5462.0622 
   98500        98.49    343.32632    14.112334   -445.99217   -431.87983    4301.9437   -10221.987   -3875.0104    27002.829    15.595873    13.506414    25.930253    5462.0602 
   99000        98.99    356.62162    14.658834   -446.51909   -431.86025    4870.2972    -9061.078   -6053.9288    29725.898    15.595875    13.506416    25.930235    5462.0582 
   99500        99.49    338.12727    13.898629   -445.73807   -431.83944    4928.0732    -8876.175   -5481.7246    29142.119    15.595878    13.506418    25.930218    5462.0562 
  100000        99.99    353.46683    14.529157   -446.34863   -431.81947     5090.877   -9929.1805   -4877.6764    30079.488     15.59588     13.50642      25.9302    5462.0542 
  100500       100.49    359.09488    14.760497    -446.5597   -431.79921    4089.7092   -8827.5722   -6447.9323    27544.632    15.595882    13.506422    25.930183    5462.0522 
  101000       100.99    350.22011    14.395702   -446.17488   -431.77917    5638.0984   -8391.4607   -2559.1982    27864.954    15.595885    13.506424    25.930165    5462.0502 
  101500       101.49    346.54702     14.24472   -446.00286   -431.75814    5760.2801   -7648.2263   -5380.1893    30309.256    15.595887    13.506426    25.930148    5462.0482 
  102000       101.99    357.45264    14.692993   -446.43107   -431.73807    6041.1932    -8616.037   -6635.7998    33375.416     15.59589    13.506428     25.93013    5462.0462 
  102500       102.49    363.89947    14.957988   -446.67558   -431.71759    5766.4471   -5125.4134   -8415.5983    30840.353    15.595892     13.50643    25.930113    5462.0442 
  103000       102.99    348.33293     14.31813   -446.01529   -431.69716    5998.3284   -8161.6744   -5453.6931    31610.353    15.595894    13.506433    25.930095    5462.0422 
  103500       103.49    337.80516    13.885388   -445.56102   -431.67563    3982.2991   -10004.137   -4902.5858     26853.62    15.595897    13.506435    25.930078    5462.0402 
  104000       103.99    346.00611    14.222486   -445.87681   -431.65432    4556.6192   -7858.9837   -7287.0553    28815.897    15.595899    13.506437     25.93006    5462.0382 
  104500       104.49    365.42549    15.020715   -446.65551   -431.63479    3385.1367   -8001.9475   -7277.2073    25434.565    15.595902    13.506439    25.930043    5462.0362 
  105000       104.99    362.25978    14.890589   -446.50459     -431.614    5956.2498   -8639.7133   -8338.4322    34846.895    15.595904    13.506441    25.930025    5462.0342 
  105500       105.49    359.24351    14.766606   -446.35965   -431.59304    4690.3994   -9916.2659   -3355.7359      27343.2    15.595906    13.506443    25.930008    5462.0322 
  106000       105.99    353.95058    14.549042   -446.12048   -431.57144    5471.1479   -8816.6846    -5201.994    30432.122    15.595909    13.506445     25.92999    5462.0302 
  106500       106.49    359.13243     14.76204   -446.31213   -431.55009    5226.1886   -9139.3234   -4676.0259    29493.915    15.595911    13.506447    25.929973    5462.0282 
  107000       106.99    342.87843    14.093924   -445.62267   -431.52874    5708.6055   -7300.9395   -4745.6553    29172.411    15.595914    13.506449    25.929955    5462.0262 
  107500       107.49    369.66379    15.194929    -446.7026   -431.50767    4753.4912   -6998.9931   -5293.7072    26553.174    15.595916    13.506451    25.929938    5462.0243 
  108000       107.99    353.19763    14.518092   -446.00479    -431.4867    5596.9916   -8079.1424   -6978.8642    31848.982    15.595918    13.506454     25.92992    5462.0223 
  108500       108.49    347.08403    14.266794   -445.73152   -431.46472    5648.1749   -7108.9967   -3478.1909    27531.712    15.595921    13.506456    25.929903    5462.0203 
  109000       108.99    343.22109    14.108009   -445.55099   -431.44298    6250.6729   -6733.3604   -4814.8693    30300.248    15.595923    13.506458    25.929885    5462.0183 
  109500       109.49    367.69954    15.114189   -446.53662   -431.42243    5433.3295   -6907.8587    -6834.845    30042.692    15.595926     13.50646    25.929868    5462.0163 
  110000       109.99    373.66301    15.359316   -446.76049   -431.40118    4776.9211   -8363.9468   -4981.1321    27675.842    15.595928    13.506462     25.92985    5462.0143 
  110500       110.49    343.33928    14.112867   -445.49081   -431.37795    4532.0015   -6649.2408   -7206.7764    27452.022     15.59593    13.506464    25.929833    5462.0123 
  111000       110.99    361.93184    14.877109   -446.23406   -431.35695    5101.3502   -10146.076   -5668.6058    31118.732    15.595933    13.506466    25.929815    5462.0103 
  111500       111.49    362.04447    14.881739   -446.21677   -431.33503    4827.6125   -7072.1465   -6734.7498    28289.734    15.595935    13.506468    25.929798    5462.0083 
  112000       111.99    345.02785    14.182275   -445.49527   -431.31299    5528.8642   -7218.3081   -8306.5225    32111.423    15.595938     13.50647     25.92978    5462.0063 
  112500       112.49    372.62058    15.316467   -446.60785   -431.29138    4691.0521   -7633.1548   -5395.6496    27101.961     15.59594    13.506472    25.929763    5462.0043 
  113000       112.99    373.82866    15.366125   -446.63539   -431.26927    3625.6316   -8854.1991    -8735.309    28466.403    15.595942    13.506475    25.929745    5462.0023 
  113500       113.49    351.32015    14.440919   -445.68805   -431.24713    4631.3041   -9546.2315   -5280.1664     28720.31    15.595945    13.506477    25.929728    5462.0003 
  114000       113.99    353.77197      14.5417   -445.76764   -431.22594     4320.355   -10374.998   -5683.8802    29019.943    15.595947    13.506479     25.92971    5461.9983 
  114500       114.49    361.21055    14.847461   -446.05134   -431.20388    5829.0796   -7419.1204   -4245.1079    29151.467     15.59595    13.506481    25.929693    5461.9963 
  115000       114.99     376.2312    15.464881   -446.64655   -431.18167    5454.8263   -5236.3972   -8786.1391    30387.015    15.595952    13.506483    25.929675    5461.9943 
  115500       115.49    362.19313     14.88785    -446.0464   -431.15855    4826.1218   -9083.9292   -3492.9691    27055.264    15.595954    13.506485    25.929658    5461.9923 
  116000       115.99    351.59212    14.452098   -445.58848   -431.13638    5698.0815   -8468.7493   -6373.8684    31936.862    15.595957    13.506487     25.92964    5461.9903 
  116500       116.49    352.04193    14.470587   -445.58358   -431.11299    5834.8919   -6113.7845   -7176.5985    30795.059    15.595959    13.506489    25.929623    5461.9883 
  117000       116.99    363.56177    14.944107   -446.03477   -431.09066    5747.9706   -6173.1246   -4715.9313    28132.968    15.595962    13.506491    25.929605    5461.9863 
  117500       117.49    389.08364    15.993177   -447.06202   -431.06884    4295.6183   -6866.7846   -5850.0638    25603.703    15.595964    13.506493    25.929588    5461.9843 
  118000       117.99    365.93146    15.041512   -446.08757   -431.04606    4934.6369   -8045.4377   -3767.7148    26617.063    15.595966    13.506496     25.92957    5461.9823 
  118500       118.49    379.49498    15.599037   -446.62248   -431.02344     4886.632   -8052.0588   -6791.5262    29503.481    15.595969    13.506498    25.929553    5461.9803 
  119000       118.99    368.32405    15.139859   -446.14025   -431.00039    6319.2434   -8701.7633    -4628.547     32288.04    15.595971      13.5065    25.929535    5461.9783 
  119500       119.49    353.41905    14.527193   -445.50613   -430.97893     5310.292   -9627.8691   -4231.8874    29790.632    15.595974    13.506502    25.929518    5461.9763 
  120000       119.99    377.15435    15.502826   -446.45977   -430.95694    5743.0496   -5788.7081   -5556.2072    28574.064    15.595976    13.506504      25.9295    5461.9743 
  120500       120.49    359.86771    14.792264   -445.72623   -430.93397    6079.6237   -8052.5367   -3152.0244    29443.432    15.595978    13.506506    25.929483    5461.9723 
  121000       120.99    370.00008    15.208752   -446.11965    -430.9109    5263.6809   -8728.0956   -2640.9482    27160.086    15.595981    13.506508    25.929465    5461.9703 
  121500       121.49    375.46727    15.433479   -446.32194   -430.88846    5313.1004   -8084.2701   -4071.2486     28094.82    15.595983     13.50651    25.929448    5461.9683 
  122000       121.99    348.87646    14.340471   -445.20584   -430.86537    5088.6492   -9864.7916   -2820.9025    27951.642    15.595986    13.506512     25.92943    5461.9664 
  122500       122.49    364.52368    14.983646     -445.826   -430.84235    4040.3141    -12417.96   -6147.7393    30686.642    15.595988    13.506514    25.929413    5461.9644 
  123000       122.99    374.55141    15.395833   -446.21582   -430.81999    5468.6306   -8405.6852   -5336.9312    30148.508     15.59599    13.506517    25.929395    5461.9624 
  123500       123.49    386.84792    15.901278   -446.69846   -430.79718    4087.5267   -7217.1261   -7572.5555    27052.262    15.595993    13.506519    25.929378    5461.9604 
  124000       123.99    373.40309    15.348632   -446.12256   -430.77393    5272.7977   -8162.1882   -3224.0462    27204.628    15.595995    13.506521     25.92936    5461.9584 
  124500       124.49    353.77646    14.541884   -445.29267   -430.75078    5730.0596   -8282.8955    -2632.529    28105.603    15.595998    13.506523    25.929343    5461.9564 
  125000       124.99    353.68218    14.538009    -445.2661   -430.72809    5789.4937   -10362.742   -4476.6831    32207.906       15.596    13.506525    25.929325    5461.9544 
  125500       125.49    372.38006    15.306581   -446.01187   -430.70529    5424.6293    -8474.359   -6637.7081    31385.955    15.596002    13.506527    25.929308    5461.9524 
  126000       125.99    347.28517    14.275062   -444.95689   -430.68183    5629.9671   -7636.9055    -7169.969    31696.776    15.596005    13.506529     25.92929    5461.9504 
  126500       126.49    365.47191    15.022623   -445.68171   -430.65909    5962.5182   -7495.4406   -2756.3995    28139.395    15.596007    13.506531    25.929273    5461.9484 
  127000       126.99    351.38803    14.443709   -445.07951    -430.6358    5082.0821   -6525.6922   -5660.8981    27432.836     15.59601    13.506533    25.929255    5461.9464 
  127500       127.49    389.54353     16.01208   -446.62546   -430.61338     5629.135   -7488.1365   -5494.9635    29870.505    15.596012    13.506535    25.929238    5461.9444 
  128000       127.99    378.60882    15.562612   -446.15267   -430.59006    4997.5062   -8009.7835   -3404.1214    26406.423    15.596014    13.506538     25.92922    5461.9424 
  128500       128.49    370.85641    15.243951    -445.8106   -430.56665    5143.1337   -9198.0749   -4030.0891    28657.565    15.596017     13.50654    25.929203    5461.9404 
  129000       128.99    353.36541    14.524988   -445.06796   -430.54298    6866.2129   -8738.3387    -4827.774    34164.751    15.596019    13.506542    25.929185    5461.9384 
  129500       129.49    386.48301    15.886278   -446.40642   -430.52014    5622.9396   -10059.602   -5394.1368    32322.557    15.596022    13.506544    25.929168    5461.9364 
  130000       129.99    374.87033    15.408942   -445.90583   -430.49689    5732.6621   -7386.8524   -4238.3046    28823.143    15.596024    13.506546     25.92915    5461.9344 
  130500       130.49    362.65207    14.906714   -445.37953   -430.47281    5999.4021   -8913.7295   -2425.1257    29337.062    15.596026    13.506548    25.929133    5461.9324 
  131000       130.99     381.3026    15.673339   -446.12473   -430.45139    5218.3473   -7704.3307   -4097.5237    27456.896    15.596029     13.50655    25.929115    5461.9304 
  131500       131.49    370.43219    15.226514    -445.6538   -430.42729    5550.0901   -7461.2087   -4822.0259    28933.505    15.596031    13.506552    25.929098    5461.9284 
  132000       131.99    409.09339    16.815672   -447.22057    -430.4049    5737.8882   -6493.9684   -3226.4858    26934.119    15.596034    13.506554     25.92908    5461.9264 
  132500       132.49    377.07267    15.499469   -445.87963   -430.38016    4889.3261   -10016.899   -3989.6704    28674.548    15.596036    13.506556    25.929063    5461.9244 
  133000       132.99    376.72864    15.485327   -445.84142   -430.35609    5428.0545   -9019.9278   -7009.0333    32313.124    15.596038    13.506559    25.929045    5461.9224 
  133500       133.49     386.5922    15.890767   -446.22351   -430.33275    5161.8186    -6571.194   -7957.8071    30014.457    15.596041    13.506561    25.929028    5461.9204 
  134000       133.99    374.60091    15.397868   -445.70728   -430.30941    5213.4208   -8778.7909   -4139.9383    28558.992    15.596043    13.506563     25.92901    5461.9184 
  134500       134.49    380.12564    15.624961   -445.91079   -430.28583    5054.6186   -7684.0377   -6788.3649    29636.258    15.596046    13.506565    25.928993    5461.9164 
  135000       134.99    383.34205     15.75717   -446.01926   -430.26209     5952.502   -7572.3398   -6157.2989    31587.145    15.596048    13.506567    25.928975    5461.9144 
  135500       135.49    380.19354    15.627751   -445.86648   -430.23872    5956.8551   -7059.5782   -4072.7293    29002.873     15.59605    13.506569    25.928958    5461.9124 
  136000       135.99    371.82241    15.283658   -445.49863   -430.21497    5382.4375   -8822.5418   -3172.8724    28142.727    15.596053    13.506571     25.92894    5461.9104 
  136500       136.49    381.81093    15.694234   -445.88549   -430.19126    4656.9539   -7800.9028   -6171.9379    27943.702    15.596055    13.506573    25.928923    5461.9084 
  137000       136.99    378.92145    15.575463   -445.74348   -430.16801    5369.3341   -8726.1753   -8295.2141    33129.392    15.596058    13.506575    25.928905    5461.9065 
  137500       137.49    377.75498    15.527515   -445.67154   -430.14403    4726.9233   -9339.9017   -6310.1054    29830.777     15.59606    13.506577    25.928888    5461.9045 
  138000       137.99    381.95071     15.69998   -445.81993   -430.11995    5815.5266   -6548.8406   -5448.4965    29443.917    15.596062     13.50658     25.92887    5461.9025 
  138500       138.49     391.9215    16.109826   -446.20589   -430.09606    5949.5846   -9288.2057   -4134.2964    31271.256    15.596065    13.506582    25.928853    5461.9005 
  139000       138.99    375.38035    15.429907   -445.50215   -430.07225    6371.4702   -6275.5803   -3050.6743    28440.665    15.596067    13.506584    25.928835    5461.8985 
  139500       139.49    360.51663    14.818937   -444.86701   -430.04807     6312.783    -10998.49   -2088.0577    32024.897     15.59607    13.506586    25.928818    5461.8965 
  140000       139.99    375.51695    15.435521      -445.46   -430.02448    4559.9924   -9221.5426   -4738.6086    27640.128    15.596072    13.506588      25.9288    5461.8945 
  140500       140.49    366.24441    15.054376   -445.05461   -430.00023    5887.1523   -7294.1031   -6143.2784    31098.838    15.596074     13.50659    25.928783    5461.8925 
  141000       140.99    360.85817    14.832976   -444.80865   -429.97567    6004.2723   -6968.3584   -6932.1834    31913.359    15.596077    13.506592    25.928765    5461.8905 
  141500       141.49    371.12102    15.254828   -445.20685   -429.95202    5061.1674   -8057.1335   -4274.0199    27514.656    15.596079    13.506594    25.928748    5461.8885 
  142000       141.99    375.46178    15.433254   -445.36185   -429.92859    5648.4269   -6978.0041   -5402.3559    29325.641    15.596082    13.506596     25.92873    5461.8865 
  142500       142.49    375.93627    15.452757   -445.35644   -429.90368    5266.6087   -10266.644   -5028.1908    31094.661    15.596084    13.506598    25.928713    5461.8845 
  143000       142.99    356.66165    14.660479   -444.54032   -429.87985    6288.9173   -6277.8777   -3552.7644    28697.394    15.596086    13.506601    25.928695    5461.8825 
  143500       143.49    382.31927    15.715129   -445.57046   -429.85533    5407.8529   -9040.4715    -4904.319    30168.349    15.596089    13.506603    25.928678    5461.8805 
  144000       143.99    378.04544    15.539454   -445.37071   -429.83126    5597.2058   -6349.4549   -5895.3489    29036.421    15.596091    13.506605     25.92866    5461.8785 
  144500       144.49     356.2155    14.642141   -444.44878   -429.80663    6272.6282   -6835.8361   -7955.5245    33609.245    15.596094    13.506607    25.928643    5461.8765 
  145000       144.99    394.05149    16.197378   -445.98049   -429.78311    4843.1071   -7785.9825   -5238.0764     27553.38    15.596096    13.506609    25.928625    5461.8745 
  145500       145.49    371.73676    15.280138   -445.03942   -429.75928     6173.117   -8784.6388   -8057.6219    35361.612    15.596098    13.506611    25.928608    5461.8725 
  146000       145.99    389.53043    16.011542   -445.74675   -429.73521    6277.3353   -5403.4225   -6781.6844    31017.113    15.596101    13.506613     25.92859    5461.8705 
  146500       146.49    381.71339    15.690224   -445.40073   -429.71051    6286.8647   -9303.4897   -4668.2086    32832.293    15.596103    13.506615    25.928573    5461.8685 
  147000       146.99    390.41568     16.04793   -445.73437   -429.68644    5904.4027   -9657.6413   -3182.2486    30553.098    15.596106    13.506617    25.928555    5461.8665 
  147500       147.49    385.00083    15.825354    -445.4873   -429.66194    6018.1377   -8493.5341   -6878.8961    33426.843    15.596108    13.506619    25.928538    5461.8645 
  148000       147.99    387.13381    15.913029   -445.55066   -429.63763    6019.1804   -7463.0139   -6481.0547     32001.61     15.59611    13.506622     25.92852    5461.8625 
  148500       148.49    370.97957    15.249014   -444.86271    -429.6137    6293.0367   -6384.4491   -5856.8075    31120.367    15.596113    13.506624    25.928503    5461.8605 
  149000       148.99    337.23737     13.86205   -443.45007   -429.58802    6549.6984   -8406.5323   -2727.2348    30782.862    15.596115    13.506626    25.928485    5461.8585 
  149500       149.49    397.46978    16.337886   -445.90277   -429.56488    5590.1459   -6383.5696   -5360.2109    28514.218    15.596118    13.506628    25.928468    5461.8565 
  150000       149.99    369.36635    15.182703   -444.72195   -429.53925    5909.3206   -9284.2396   -2493.8451    29506.046     15.59612     13.50663     25.92845    5461.8545 
  150500       150.49    383.46388    15.762178   -445.27745   -429.51528    6229.9456   -8430.0362   -4230.2288    31350.102    15.596122    13.506632    25.928433    5461.8525 
  151000       150.99    358.43154     14.73323   -444.22382   -429.49059    5910.3523   -6504.8932   -3360.6526    27596.603    15.596125    13.506634    25.928415    5461.8505 
  151500       151.49    381.43934    15.678959   -445.14558   -429.46662    4232.5201   -9260.8822   -5480.9428    27439.385    15.596127    13.506636    25.928398    5461.8485 
  152000       151.99    386.24098     15.87633   -445.31833     -429.442    4801.1952   -8939.8427   -6509.9307    29853.359     15.59613    13.506638     25.92838    5461.8466 
  152500       152.49    384.43306    15.802016    -445.2205   -429.41848    6195.6342     -7330.21    -5888.642    31805.755    15.596132     13.50664    25.928363    5461.8446 
  153000       152.99    382.60046    15.726687   -445.12013   -429.39344    5751.5195   -9524.7553   -4003.1977    30782.511    15.596134    13.506643    25.928345    5461.8426 
  153500       153.49    380.70546    15.648793    -445.0176   -429.36881     5823.162   -7749.8651   -4447.1785     29666.53    15.596137    13.506645    25.928328    5461.8406 
  154000       153.99    406.91525     16.72614   -446.07074    -429.3446    4183.5009   -8063.2426   -6237.9492    26851.695    15.596139    13.506647     25.92831    5461.8386 
  154500       154.49    370.26087    15.219471   -444.53914   -429.31967    5109.7627    -8043.853   -7444.1427    30817.284    15.596142    13.506649    25.928293    5461.8366 
  155000       154.99     394.2208    16.204338   -445.49967   -429.29533    5211.3473   -7859.6142   -4819.9359    28313.592    15.596144    13.506651    25.928275    5461.8346 
  155500       155.49    379.12588    15.583866   -444.85456   -429.27069    5027.4271   -7334.3403   -4859.1618    27275.783    15.596146    13.506653    25.928258    5461.8326 
  156000       155.99    374.38208    15.388873   -444.63506   -429.24619    5699.5323   -6244.7674   -6178.6165    29521.981    15.596149    13.506655     25.92824    5461.8306 
  156500       156.49    392.06184    16.115594   -445.33727   -429.22168     5922.916   -10665.657   -4400.1541    32834.559    15.596151    13.506657    25.928223    5461.8286 
  157000       156.99    389.05667    15.992068   -445.18896   -429.19689    5478.2737    -9471.572   -4246.4435    30152.837    15.596154    13.506659    25.928205    5461.8266 
  157500       157.49    388.12563    15.953798    -445.1262    -429.1724    6601.8571   -6515.7555   -5707.0195    32028.346    15.596156    13.506661    25.928188    5461.8246 
  158000       157.99    393.09759    16.158169    -445.3061   -429.14793    5653.4076   -7857.1329   -4031.9537    28849.309    15.596158    13.506664     25.92817    5461.8226 
  158500       158.49    379.63421     15.60476   -444.72714   -429.12238    5565.6197   -6942.2074   -5342.3846    28981.451    15.596161    13.506666    25.928153    5461.8206 
  159000       158.99    374.42358    15.390579   -444.48826   -429.09768    5922.2828   -11757.729   -2254.1082    31778.686    15.596163    13.506668    25.928135    5461.8186 
  159500       159.49    383.73827    15.773457   -444.84656    -429.0731     5155.037   -5314.5887     -4842.64     25622.34    15.596166     13.50667    25.928118    5461.8166 
  160000       159.99    378.63594    15.563727   -444.61183    -429.0481    5389.4298    -6221.818   -7463.1184    29853.226    15.596168    13.506672      25.9281    5461.8146 
  160500       160.49    384.38294    15.799955   -444.82278   -429.02283     6986.002   -7522.7657   -5584.9848    34065.756     15.59617    13.506674    25.928083    5461.8126 
  161000       160.99    372.69718    15.319616     -444.318   -428.99838    6289.9236   -7886.6348   -5954.6899    32711.096    15.596173    13.506676    25.928065    5461.8106 
  161500       161.49    388.53439      15.9706   -444.94425   -428.97365    6656.7311   -9705.4423   -5120.7962    34796.432    15.596175    13.506678    25.928048    5461.8086 
  162000       161.99    394.25821    16.205876   -445.15418    -428.9483    6825.0291   -8579.5819   -3405.3993    32460.068    15.596178     13.50668     25.92803    5461.8066 
  162500       162.49    390.51706    16.052097   -444.97526   -428.92316    4137.5931   -10217.442   -1733.7765    24363.998     15.59618    13.506682    25.928013    5461.8046 
  163000       162.99    365.50979     15.02418   -443.92145   -428.89727     6128.125   -9055.4284   -4272.2861     31712.09    15.596182    13.506685    25.927995    5461.8026 
  163500       163.49    364.84171    14.996719   -443.86883   -428.87211    7115.5275   -6958.4274   -3912.6472    32217.657    15.596185    13.506687    25.927978    5461.8006 
  164000       163.99    395.31769    16.249425   -445.09706   -428.84764    5927.4362   -6640.9041   -4051.8241    28475.037    15.596187    13.506689     25.92796    5461.7986 
  164500       164.49    390.51715    16.052101   -444.87445   -428.82235    7097.5129   -6680.9718   -4310.7526    32284.263     15.59619    13.506691    25.927943    5461.7966 
  165000       164.99    403.11367    16.569877     -445.367   -428.79712    6162.7143   -6495.9993   -7073.1164    32057.259    15.596192    13.506693    25.927925    5461.7946 
  165500       165.49     382.0514    15.704118   -444.47662    -428.7725    6170.2128   -4944.2895   -8019.6874    31474.615    15.596194    13.506695    25.927908    5461.7926 
  166000       165.99    390.45816    16.049676   -444.79641   -428.74673    5601.8696   -6425.6509   -5146.6726    28377.932    15.596197    13.506697     25.92789    5461.7906 
  166500       166.49    397.14859    16.324684   -445.04644   -428.72175    6694.8008   -8641.7962   -3963.5451    32689.744    15.596199    13.506699    25.927873    5461.7886 
  167000       166.99    392.05152     16.11517   -444.81071   -428.69554    6552.6469   -6444.2291   -5713.2103     31815.38    15.596202    13.506701    25.927855    5461.7866 
  167500       167.49    385.88647    15.861758   -444.53206    -428.6703     7007.217   -5143.1266   -7954.3209    34119.098    15.596204    13.506703    25.927838    5461.7847 
  168000       167.99    398.07556    16.362787   -445.00816   -428.64537    5948.1645   -5863.0491   -4128.7441    27836.287    15.596206    13.506706     25.92782    5461.7827 
  168500       168.49    394.24125    16.205179   -444.82536   -428.62018    5722.4207   -8250.5325    -2495.827    27913.622    15.596209    13.506708    25.927803    5461.7807 
  169000       168.99    385.64282    15.851742   -444.44633   -428.59459    6500.8189   -8934.5008   -5380.0465    33817.004    15.596211     13.50671    25.927785    5461.7787 
  169500       169.49    381.28614    15.672663   -444.24131   -428.56865    7362.2408   -6540.6142   -6903.3998    35530.736    15.596214    13.506712    25.927768    5461.7767 
  170000       169.99    399.53492    16.422774   -444.96617    -428.5434    5914.5785   -4506.8299    -4388.404    26638.969    15.596216    13.506714     25.92775    5461.7747 
  170500       170.49    407.11645     16.73441   -445.25313   -428.51872    5070.5384   -9057.0476   -4695.1288    28963.792    15.596218    13.506716    25.927733    5461.7727 
  171000       170.99    398.25716    16.370251   -444.86291   -428.49266    5564.9011   -8742.8414   -6490.9849     31928.53    15.596221    13.506718    25.927715    5461.7707 
  171500       171.49    382.04637    15.703911   -444.17077   -428.46686    7187.2256   -5923.4475   -2523.3935    30008.518    15.596223     13.50672    25.927698    5461.7687 
  172000       171.99     391.3049    16.084481   -444.52615   -428.44167    5402.3236   -6316.4108   -4415.2279    26938.609    15.596226    13.506722     25.92768    5461.7667 
  172500       172.49    399.44744    16.419178   -444.83583   -428.41666    5753.8926   -8579.8964   -4384.7074    30226.282    15.596228    13.506724    25.927663    5461.7647 
  173000       172.99    383.38725    15.759028   -444.14907   -428.39004    7426.7306   -8378.6087   -2628.6903    33287.491     15.59623    13.506727    25.927645    5461.7627 
  173500       173.49    410.20133    16.861213   -445.22668   -428.36547    5611.9015   -8077.5718   -6839.6417    31752.918    15.596233    13.506729    25.927628    5461.7607 
  174000       173.99     399.0048    16.400983   -444.74082   -428.33983    7855.0857   -7558.6321   -4020.2561    35144.145    15.596235    13.506731     25.92761    5461.7587 
  174500       174.49    392.03818    16.114622   -444.42887   -428.31424    5471.5741   -9724.7425   -5806.3068    31945.771    15.596238    13.506733    25.927593    5461.7567 
  175000       174.99    399.47304     16.42023   -444.70814   -428.28791    5764.4994   -8216.4965   -7034.2085    32544.203     15.59624    13.506735    25.927575    5461.7547 
  175500       175.49    395.92399    16.274347   -444.53674   -428.26239    4954.4239   -8033.4293   -6164.3959    29061.097    15.596242    13.506737    25.927558    5461.7527 
  176000       175.99    398.49661    16.380094   -444.61776   -428.23766    6769.2327   -6681.6561   -4601.4473    31590.801    15.596245    13.506739     25.92754    5461.7507 
  176500       176.49    396.18294    16.284991   -444.49675   -428.21176    7710.1512   -5828.3789   -4790.7804    33749.613    15.596247    13.506741    25.927523    5461.7487 
  177000       176.99    394.10358     16.19952   -444.38553   -428.18601     6443.397   -8147.1156   -4577.6068    32054.914     15.59625    13.506743    25.927505    5461.7467 
  177500       177.49    393.02364    16.155129    -444.3149   -428.15977    6801.0117   -7428.7966   -5827.7323    33659.564    15.596252    13.506745    25.927488    5461.7447 
  178000       177.99    390.12281    16.035891   -444.17032   -428.13442    7025.0882   -5408.0695   -6457.6704    32941.005    15.596254    13.506748     25.92747    5461.7427 
  178500       178.49    392.09569    16.116986   -444.22526   -428.10827    7436.4142   -8526.5628   -908.26138    31744.067    15.596257     13.50675    25.927453    5461.7407 
  179000       178.99    407.48905    16.749726   -444.83341   -428.08368    6648.4061   -6423.3605    -3603.123    29971.702    15.596259    13.506752    25.927435    5461.7387 
  179500       179.49    385.38944    15.841327    -443.8987   -428.05737    6951.4734   -6524.3241   -3423.8615    30802.606    15.596262    13.506754    25.927418    5461.7367 
  180000       179.99    400.68976    16.470243   -444.50188   -428.03164    6876.3974   -7325.1485   -1251.7231    29206.064    15.596264    13.506756      25.9274    5461.7347 
  180500       180.49    395.34832    16.250685   -444.25606   -428.00537    7130.9957   -5770.8116   -4659.1255    31822.924    15.596266    13.506758    25.927383    5461.7327 
  181000       180.99     371.8749    15.285816   -443.26502   -427.97921    7329.5652   -6782.6375   -5760.2959    34531.629    15.596269     13.50676    25.927365    5461.7307 
  181500       181.49    398.38775    16.375619    -444.3287   -427.95308    7938.5889   -8360.6946   -5530.3953    37706.857    15.596271    13.506762    25.927348    5461.7287 
  182000       181.99    404.90504    16.643511   -444.57121    -427.9277    6670.0022   -7851.0908   -4187.5854    32048.683    15.596274    13.506764     25.92733    5461.7267 
  182500       182.49    402.51426    16.545239   -444.44707   -427.90183    6373.6178   -7293.8997   -4731.4397    31146.193    15.596276    13.506766    25.927313    5461.7247 
  183000       182.99    382.31732    15.715049   -443.59027   -427.87522    7616.1174      -7215.5    -506.0957    30569.948    15.596278    13.506769    25.927295    5461.7228 
  183500       183.49    412.97849    16.975368   -444.82483   -427.84946    7527.4053   -4803.7659   -5604.7794    32990.761    15.596281    13.506771    25.927278    5461.7208 
  184000       183.99    385.93341    15.863687   -443.68688   -427.82319    6440.3297   -8658.2534   -3450.2241    31429.467    15.596283    13.506773     25.92726    5461.7188 
  184500       184.49    410.71512    16.882332   -444.67979   -427.79746    6260.1938   -6923.8982   -5333.7242    31038.204    15.596286    13.506775    25.927243    5461.7168 
  185000       184.99    386.34213    15.880487   -443.65055   -427.77006    5713.3447   -10749.542   -3902.6494    31792.226    15.596288    13.506777    25.927225    5461.7148 
  185500       185.49    405.43697    16.665376   -444.40997    -427.7446    5919.9606   -7384.1552   -5026.6347    30170.672     15.59629    13.506779    25.927208    5461.7128 
  186000       185.99    410.36168    16.867805   -444.58725   -427.71945    5291.8196   -9103.7658   -750.15165    25729.376    15.596293    13.506781     25.92719    5461.7108 
  186500       186.49    370.08561    15.212267   -442.90396   -427.69169     6493.444   -5914.0524    -6715.841    32110.225    15.596295    13.506783    25.927173    5461.7088 
  187000       186.99    399.19908    16.408969   -444.07549   -427.66652    7342.4191   -5725.6567   -1563.3906    29316.305    15.596298    13.506785    25.927155    5461.7068 
  187500       187.49    412.21948    16.944169   -444.58421   -427.64004    5572.2597   -7536.6593   -2865.0533    27118.492      15.5963    13.506787    25.927138    5461.7048 
  188000       187.99    397.18542    16.326198   -443.93935   -427.61315    7045.3412   -8800.1636   -3568.5682    33504.755    15.596302     13.50679     25.92712    5461.7028 
  188500       188.49    400.61002    16.466965   -444.05365   -427.58669     7212.029   -6902.4574    -4683.861    33222.405    15.596305    13.506792    25.927103    5461.7008 
  189000       188.99    411.29137    16.906019   -444.46614   -427.56012    7233.3787   -6921.3563   -1428.7734    30050.266    15.596307    13.506794    25.927085    5461.6988 
  189500       189.49    396.51761    16.298748   -443.83266   -427.53391    7581.4079   -8229.5971   -4565.6451    35539.466     15.59631    13.506796    25.927068    5461.6968 
  190000       189.99    418.72592    17.211614   -444.72013   -427.50851    7234.7364   -6193.6665   -1812.0037    29709.879    15.596312    13.506798     25.92705    5461.6948 
  190500       190.49    422.27653    17.357561   -444.84032   -427.48276    6066.8506   -9917.7079   -6730.7635    34849.023    15.596314      13.5068    25.927033    5461.6928 
  191000       190.99    400.07674    16.445045   -443.90115   -427.45611    7706.8978   -7331.9107    -592.8718    31045.476    15.596317    13.506802    25.927015    5461.6908 
  191500       191.49    387.80855    15.940764   -443.36921   -427.42844    7092.6401   -7940.8694   -2207.4836    31426.273    15.596319    13.506804    25.926998    5461.6888 
  192000       191.99    394.91655    16.232937   -443.63501   -427.40208     7278.192   -5355.6229   -5630.5347    32820.734    15.596322    13.506806     25.92698    5461.6868 
  192500       192.49    414.19629    17.025425   -444.40117   -427.37574    6710.3025   -7958.8698   -6092.1425     34181.92    15.596324    13.506808    25.926963    5461.6848 
  193000       192.99    420.34747    17.278267   -444.62826   -427.34999    6924.0468   -7754.7687   -4903.5279    33430.437    15.596326    13.506811    25.926945    5461.6828 
  193500       193.49    401.87304    16.518881   -443.84124   -427.32236    7726.6318   -6238.4614   -3069.0071    32487.364    15.596329    13.506813    25.926928    5461.6808 
  194000       193.99    418.91036    17.219195   -444.51528   -427.29608    6466.1511   -6284.0547   -3701.2746    29383.783    15.596331    13.506815     25.92691    5461.6788 
  194500       194.49    412.38909    16.951141   -444.22007   -427.26892    7163.8522    -8702.669   -5273.1659    35467.391    15.596334    13.506817    25.926893    5461.6768 
  195000       194.99    412.97438    16.975199    -444.2173   -427.24211    7533.0594    -6656.333   -5671.0733    34926.585    15.596336    13.506819    25.926875    5461.6748 
  195500       195.49    392.87074    16.148844     -443.365   -427.21615     7755.837   -4470.6022   -4906.1426    32644.256    15.596338    13.506821    25.926858    5461.6728 
  196000       195.99    422.79697    17.378954   -444.56878   -427.18983    7254.5082    -6416.528   -4764.1213    32944.174    15.596341    13.506823     25.92684    5461.6708 
  196500       196.49    390.79769    16.063632   -443.22602   -427.16239    6827.0346   -9462.5266   -577.96889    30521.599    15.596343    13.506825    25.926823    5461.6688 
  197000       196.99    401.06387     16.48562   -443.62138   -427.13576    6451.3578    -8927.418   -1976.1555    30257.647    15.596346    13.506827    25.926805    5461.6668 
  197500       197.49    429.69458    17.662478   -444.77206   -427.10958    5730.2424   -7423.6696   -3886.9748    28501.372    15.596348    13.506829    25.926788    5461.6648 
  198000       197.99     418.3656    17.196804   -444.27918   -427.08238    6408.6908   -10149.173   -1557.4293    30932.675     15.59635    13.506832     25.92677    5461.6628 
  198500       198.49     432.2334    17.766836   -444.82313   -427.05629    5741.8232   -6180.5179   -5450.0168    28856.004    15.596353    13.506834    25.926753    5461.6608 
  199000       198.99    412.13135    16.940546   -443.96871   -427.02817    7011.3055   -8224.9263   -5107.2261    34366.069    15.596355    13.506836    25.926735    5461.6589 
  199500       199.49    401.48227    16.502819   -443.50419   -427.00137    5649.8848   -11282.851   -4012.9402    32245.446    15.596358    13.506838    25.926718    5461.6569 
  200000       199.99    419.49375    17.243176   -444.21809   -426.97492    5799.4472   -8610.8951    -3933.476    29942.713     15.59636     13.50684      25.9267    5461.6549 
  200500       200.49    408.19634    16.778799   -443.72626   -426.94746    7315.4972   -5348.6562     -3845.26    31140.408    15.596362    13.506842    25.926683    5461.6529 
  201000       200.99    424.80938    17.461673   -444.38257    -426.9209    7175.1772   -4582.9502   -2582.0048    28690.487    15.596365    13.506844    25.926665    5461.6509 
  201500       201.49    409.19218    16.819733   -443.71313    -426.8934    6766.9657   -6492.1321   -4107.1339    30900.163    15.596367    13.506846    25.926648    5461.6489 
  202000       201.99    415.58621    17.082557   -443.94841   -426.86585    7156.5073   -6960.1192   -5507.7928    33937.434     15.59637    13.506848     25.92663    5461.6469 
  202500       202.49    427.18704    17.559406   -444.39939   -426.83999    7252.3111   -6027.1816   -3694.3907    31478.506    15.596372     13.50685    25.926613    5461.6449 
  203000       202.99    394.15254    16.201532   -443.01376   -426.81223    6663.4315   -7712.0519   -2188.1912    29890.538    15.596374    13.506853    25.926595    5461.6429 
  203500       203.49    408.47405    16.790214   -443.57593   -426.78572    7611.4055   -7183.6636   -3721.2704     33739.15    15.596377    13.506855    25.926578    5461.6409 
  204000       203.99    412.57225    16.958669   -443.71646   -426.75779    7149.6424   -6494.0888   -3550.5401    31493.556    15.596379    13.506857     25.92656    5461.6389 
  204500       204.49    422.47025    17.365524   -444.09758   -426.73206    6990.8875   -8151.0927   -2214.4734    31338.229    15.596382    13.506859    25.926543    5461.6369 
  205000       204.99    406.99343    16.729354   -443.43404   -426.70469    8085.6345   -6823.9279    -1612.066    32692.898    15.596384    13.506861    25.926525    5461.6349 
  205500       205.49    387.64717    15.934131   -442.61043    -426.6763    9093.9229   -5696.4228   -3398.7808    36376.972    15.596386    13.506863    25.926508    5461.6329 
  206000       205.99    422.52566    17.367801   -444.01718   -426.64938    5114.4613   -9732.6668   -3210.0387    28286.089    15.596389    13.506865     25.92649    5461.6309 
  206500       206.49    415.87389    17.094382   -443.71601   -426.62162    8173.8859   -4839.6729   -2347.6484    31708.979    15.596391    13.506867    25.926473    5461.6289 
  207000       206.99    386.55182    15.889106   -442.48303   -426.59392    8253.8872   -7474.6741   -2809.2945     35045.63    15.596394    13.506869    25.926455    5461.6269 
  207500       207.49    415.68415    17.086583   -443.65342   -426.56684    8194.0031    -6112.776   -4262.4551     34957.24    15.596396    13.506871    25.926438    5461.6249 
  208000       207.99    409.06026     16.81431   -443.35394   -426.53963    9055.1046   -3509.2636   -5728.7988    36403.376    15.596398    13.506874     25.92642    5461.6229 
  208500       208.49     414.4054    17.034021    -443.5466   -426.51258    7097.1126   -7008.3694   -880.25876    29179.966    15.596401    13.506876    25.926403    5461.6209 
  209000       208.99    412.11698    16.939956   -443.42492   -426.48496    8201.4663   -5053.8141     -3939.76    33597.973    15.596403    13.506878    25.926385    5461.6189 
  209500       209.49    414.71266     17.04665   -443.50478   -426.45813    7140.6609   -8044.4832   -1626.8049    31093.271    15.596406     13.50688    25.926368    5461.6169 
  210000       209.99    402.27306    16.535324    -442.9658   -426.43047    7741.3636   -8820.0172   -3832.7898    35876.898    15.596408    13.506882     25.92635    5461.6149 
  210500       210.49     413.9861    17.016785   -443.42095   -426.40416    6906.4738   -7723.7344   -4767.5204    33210.676     15.59641    13.506884    25.926333    5461.6129 
  211000       210.99     408.9211     16.80859   -443.18492   -426.37633    8989.6675   -3158.4098   -3177.0399    33304.452    15.596413    13.506886    25.926315    5461.6109 
  211500       211.49    439.76582    18.076454   -444.42541   -426.34895    8107.6441   -7416.8784   -1426.0639    33165.874    15.596415    13.506888    25.926298    5461.6089 
  212000       211.99    418.19485    17.189785   -443.51172   -426.32194    8704.3348   -6215.9339   -1470.4762    33799.414    15.596418     13.50689     25.92628    5461.6069 
[...]
  948500       948.49    571.95375    23.510002   -438.04533   -414.53533    13035.862   -4004.8386    -2001.068    45113.492    15.599953    13.509984    25.900503    5458.6632 
  949000       948.99    560.85433    23.053764   -437.58743   -414.53367    14420.484   -2204.8762    1577.5651    43888.763    15.599955    13.509986    25.900485    5458.6612 
  949500       949.49    571.71999    23.500394   -438.03111   -414.53071     12454.02   -1531.5121   -467.49069    39361.063    15.599958    13.509988    25.900468    5458.6592 
  950000       949.99    594.90281    24.453317   -438.97986   -414.52654    12318.788   -2901.5481    15.205948    39842.706     15.59996     13.50999     25.90045    5458.6572 
  950500       950.49    564.28131    23.194629   -437.72001   -414.52538    11997.934   -2319.0832    2660.8619    35652.024    15.599962    13.509992    25.900433    5458.6552 
  951000       950.99    583.11419    23.968749   -438.49173   -414.52298    13216.897   -2412.9492    1596.4486    40467.191    15.599965    13.509994    25.900415    5458.6532 
  951500       951.49    583.22218    23.973188   -438.49323   -414.52004    14471.255   -3529.9162    831.05367    46112.629    15.599967    13.509996    25.900398    5458.6512 
  952000       951.99    579.74255    23.830159   -438.34845   -414.51829    14324.572   -2267.5369    3681.3523    41559.901     15.59997    13.509998     25.90038    5458.6492 
  952500       952.49    577.80807    23.750643   -438.26537   -414.51473    11868.956    419.40823   -3131.0029    38318.464    15.599972        13.51    25.900363    5458.6472 
  953000       952.99    581.51555    23.903038   -438.41375   -414.51071    13170.888   -4463.4554    2873.0611    41103.058    15.599974    13.510003    25.900345    5458.6452 
  953500       953.49     593.2628    24.385905   -438.89518   -414.50928    11498.022   -4668.5888    -1279.303    40441.957    15.599977    13.510005    25.900328    5458.6432 
  954000       953.99    556.77535    22.886098   -437.39256   -414.50646    13445.477   -1710.3825    3283.6462    38763.168    15.599979    13.510007     25.90031    5458.6412 
  954500       954.49    556.55819    22.877172   -437.38075   -414.50357    13159.415   -4729.4887    3640.1151     40567.62    15.599982    13.510009    25.900293    5458.6392 
  955000       954.99     575.4699    23.654533   -438.15566   -414.50113    12161.822   -1513.9293     2663.038    35336.356    15.599984    13.510011    25.900275    5458.6372 
  955500       955.49     556.8737    22.890141   -437.38897   -414.49883    12998.793    -4902.746    1448.8392    42450.285    15.599986    13.510013    25.900258    5458.6352 
  956000       955.99    549.57606    22.590173    -437.0852   -414.49502    14729.742    1168.8817      1134.57    41885.775    15.599989    13.510015     25.90024    5458.6332 
  956500       956.49    560.10036    23.022772   -437.51484   -414.49207    11810.705   -4666.5625    2454.9791    37643.698    15.599991    13.510017    25.900223    5458.6312 
  957000       956.99    584.61111     24.03028   -438.52011   -414.48983    13150.974   -2150.7843   -182.29678    41786.004    15.599994    13.510019    25.900205    5458.6292 
  957500       957.49    569.11609    23.393361   -437.87862   -414.48526    12063.877    -3689.348    2702.4288    37178.551    15.599996    13.510021    25.900188    5458.6272 
  958000       957.99    603.84774    24.820996   -439.30293   -414.48193    11826.215   -3889.8753    440.97054    38927.551    15.599998    13.510024     25.90017    5458.6252 
  958500       958.49    563.48287    23.161809   -437.63815   -414.47634    12727.048   -2199.3139    4413.9171    35966.542    15.600001    13.510026    25.900153    5458.6232 
  959000       958.99    566.52999     23.28706   -437.75837    -414.4713    12740.965   -1639.3174   -2818.6934    42680.905    15.600003    13.510028    25.900135    5458.6212 
  959500       959.49    571.88672    23.507247   -437.97443   -414.46718     12785.76   -1358.9742   -1797.3951    41513.649    15.600006     13.51003    25.900118    5458.6192 
  960000       959.99    527.93635    21.700679   -436.16223   -414.46156    12513.867   -4422.9737    3800.6954     38163.88    15.600008    13.510032      25.9001    5458.6172 
  960500       960.49    574.62698    23.619885   -438.07896   -414.45907    13770.099    898.49315    1319.6394    39092.165     15.60001    13.510034    25.900083    5458.6152 
  961000       960.99    588.62446    24.195247   -438.65083   -414.45558    12785.526   -4627.0038   -2232.9927    45216.576    15.600013    13.510036    25.900065    5458.6132 
  961500       961.49    544.51183    22.382009   -436.83229   -414.45028    11635.815    -6153.507    2021.2318    39039.721    15.600015    13.510038    25.900048    5458.6112 
  962000       961.99    588.17875    24.176926   -438.62436   -414.44743    12499.852   -2229.7237     2352.445    37376.836    15.600018     13.51004     25.90003    5458.6092 
  962500       962.49    570.52904     23.45144   -437.89576   -414.44432    12281.402   -2697.2201   -1323.7406    40865.166     15.60002    13.510042    25.900013    5458.6072 
  963000       962.99    579.21404    23.808434   -438.24942   -414.44099    12756.152     359.2043   -5468.3984    43377.652    15.600022    13.510045    25.899995    5458.6052 
  963500       963.49    560.12535    23.023799   -437.45946   -414.43566    13745.468   -2968.7478    2148.4316    42056.719    15.600025    13.510047    25.899978    5458.6032 
  964000       963.99    588.90022    24.206582   -438.63704   -414.43045    14556.728   -2407.9621    419.71734     45658.43    15.600027    13.510049     25.89996    5458.6012 
  964500       964.49    591.92385    24.330868   -438.75899   -414.42812    13280.566   -2144.6721    3623.4587    38362.911     15.60003    13.510051    25.899943    5458.5992 
  965000       964.99    576.04658    23.678237   -438.10125   -414.42301    14264.541   -380.03559    2427.3779     40746.28    15.600032    13.510053    25.899925    5458.5972 
  965500       965.49    560.77194    23.050377   -437.46693   -414.41655    12547.241   -5384.0403    1465.8134     41559.95    15.600034    13.510055    25.899908    5458.5952 
  966000       965.99    574.77084    23.625798    -438.0389    -414.4131    12268.234   -3028.3564   -829.56197     40662.62    15.600037    13.510057     25.89989    5458.5932 
  966500       966.49     584.2627    24.015958   -438.42483   -414.40887    12630.752   -3645.2212    579.89505    40957.583    15.600039    13.510059    25.899873    5458.5912 
  967000       966.99    587.09535    24.132394   -438.53602   -414.40362     11957.71   -6358.5651    1247.7468    40983.949    15.600042    13.510061    25.899855    5458.5892 
  967500       967.49    581.08591    23.885377   -438.28607   -414.40069     12251.86   -4332.3029   -560.69697    41648.581    15.600044    13.510063    25.899838    5458.5872 
  968000       967.99    553.09093    22.734651   -437.12937   -414.39472    11916.727   -4109.5572   -139.11016    39998.849    15.600046    13.510066     25.89982    5458.5852 
  968500       968.49    583.04253    23.965803   -438.35749   -414.39168    11824.754    -3738.539   -141.64554    39354.448    15.600049    13.510068    25.899803    5458.5832 
  969000       968.99    574.92991    23.632336   -438.01926   -414.38693    12214.496   -5329.2749   -1011.4308    42984.192    15.600051     13.51007    25.899785    5458.5812 
  969500       969.49    578.96905    23.798364   -438.18146    -414.3831    12764.492   -3457.7967    -1219.985    42971.257    15.600054    13.510072    25.899768    5458.5792 
  970000       969.99    559.50929    22.998476   -437.37738    -414.3789    13435.392   -2266.1089    2986.4849    39585.799    15.600056    13.510074     25.89975    5458.5772 
  970500       970.49     594.8454    24.450957   -438.82323   -414.37227    12083.088   -7301.3901    1448.4724    42102.181    15.600058    13.510076    25.899733    5458.5752 
  971000       970.99     588.2796    24.181072   -438.54886   -414.36779    14314.097   -2062.6765    1015.5109    43989.458    15.600061    13.510078    25.899715    5458.5732 
  971500       971.49    571.84395    23.505489   -437.86745   -414.36196    14226.772   -5829.4404    686.25682    47823.499    15.600063     13.51008    25.899698    5458.5712 
  972000       971.99    562.01077    23.101299   -437.45899   -414.35769    15199.524   -502.68756    277.64935    45823.611    15.600066    13.510082     25.89968    5458.5692 
  972500       972.49    557.54085    22.917564   -437.27122   -414.35366    13406.088   -2847.7176    2147.8314    40918.151    15.600068    13.510084    25.899663    5458.5672 
  973000       972.99    553.34522    22.745104   -437.09401    -414.3489     11601.51   -4054.7863   -1428.2231    40287.539     15.60007    13.510087    25.899645    5458.5652 
  973500       973.49    560.46365    23.037705   -437.38126   -414.34355    13497.312    -2382.051    400.42219    42473.564    15.600073    13.510089    25.899628    5458.5632 
  974000       973.99    551.16306    22.655407   -436.99243   -414.33702     13120.64   -2753.5078    2991.7637    39123.664    15.600075    13.510091     25.89961    5458.5612 
  974500       974.49    570.48494    23.449627   -437.78395   -414.33432    14322.954   -1807.9847    998.68601     43778.16    15.600078    13.510093    25.899593    5458.5592 
  975000       974.99     592.3251    24.347361   -438.67526    -414.3279    13457.924    -922.3938   -489.88474    41786.052     15.60008    13.510095    25.899575    5458.5572 
  975500       975.49    561.47795    23.079397   -437.40107   -414.32167    13575.896   -1689.4963   -2561.2017    44978.386    15.600082    13.510097    25.899558    5458.5552 
  976000       975.99    568.34994    23.361869   -437.67941   -414.31754    14047.074    388.02943    418.83013    41334.362    15.600085    13.510099     25.89954    5458.5532 
  976500       976.49    570.34307    23.443796   -437.75728   -414.31348    11532.212   -1779.7488    -2111.311    38487.697    15.600087    13.510101    25.899523    5458.5512 
  977000       976.99     583.6801    23.992011   -438.30012   -414.30811    13716.259   -2160.5268    138.32235    43170.982     15.60009    13.510103    25.899505    5458.5492 
  977500       977.49    574.32829    23.607607   -437.90863   -414.30102    13601.089   -4141.7593    1009.7145    43935.312    15.600092    13.510105    25.899488    5458.5472 
  978000       977.99    597.81932      24.5732   -438.86897   -414.29577    12264.318   -3138.9904    1642.7238    38289.221    15.600094    13.510108     25.89947    5458.5452 
  978500       978.49    586.21242    24.096101   -438.38479   -414.28869    13542.831   -39.316091    1017.3079    39650.502    15.600097     13.51011    25.899453    5458.5432 
  979000       978.99      562.089    23.104514   -437.38756   -414.28305    13043.997    -5241.935    4947.4336    39426.492    15.600099    13.510112    25.899435    5458.5412 
  979500       979.49    579.58204    23.823561   -438.10121   -414.27765    12735.211   -1519.5662    1642.0002      38083.2    15.600102    13.510114    25.899418    5458.5392 
  980000       979.99    542.58994    22.303011   -436.57447   -414.27146    12612.412   -2137.9536   -201.04803    40176.238    15.600104    13.510116      25.8994    5458.5372 
  980500       980.49    592.47279    24.353432   -438.61959   -414.26616    13753.155   -831.29427    3616.0478    38474.711    15.600106    13.510118    25.899383    5458.5352 
  981000       980.99    575.77717    23.667163   -437.92751   -414.26034    13014.596    1187.2816    1207.4239    36649.084    15.600109     13.51012    25.899365    5458.5332 
  981500       981.49    566.82644    23.299245   -437.55302   -414.25377    13140.214     -4398.54     2174.865    41644.317    15.600111    13.510122    25.899348    5458.5312 
  982000       981.99    575.04906    23.637234   -437.88332   -414.24608    12141.233   -2103.3255   -1277.8854     39804.91    15.600114    13.510124     25.89933    5458.5292 
  982500       982.49    561.67595    23.087536   -437.32701   -414.23947    12251.545    1771.2895   -2057.9975    37041.343    15.600116    13.510126    25.899313    5458.5272 
  983000       982.99    580.83381    23.875015   -438.10897   -414.23395    12125.583   -2910.9061    4351.6003    34936.056    15.600118    13.510129    25.899295    5458.5252 
  983500       983.49    526.40124    21.637579   -435.86474   -414.22717    12432.582   -7367.8555    3585.9358    41079.666    15.600121    13.510131    25.899278    5458.5232 
  984000       983.99    540.23544     22.20623   -436.42697   -414.22074    13045.118   -3309.4541     1888.596    40556.213    15.600123    13.510133     25.89926    5458.5212 
  984500       984.49    548.18643    22.533053   -436.74776   -414.21471    13694.547   -1256.6247    2119.0738    40221.192    15.600126    13.510135    25.899243    5458.5192 
  985000       984.99    594.22103    24.425293   -438.63345   -414.20816    13200.167   -3642.4744    2406.0676    40836.908    15.600128    13.510137    25.899225    5458.5172 
  985500       985.49    583.86796    23.999733   -438.20112   -414.20139     14669.32   -2234.4104    785.41503    45456.956     15.60013    13.510139    25.899208    5458.5152 
  986000       985.99     589.8193    24.244361   -438.43891   -414.19455    13335.552   -260.17691   -91.791473    40358.624    15.600133    13.510141     25.89919    5458.5132 
  986500       986.49    561.21779    23.068703   -437.25557   -414.18687    12526.153   -3886.8362   -1980.1247    43445.421    15.600135    13.510143    25.899173    5458.5112 
  987000       986.99    542.07271     22.28175   -436.46303   -414.18128    12943.242   -294.56439   -888.17776    40012.468    15.600138    13.510145    25.899155    5458.5092 
  987500       987.49    560.24409     23.02868   -437.20206   -414.17338    12900.809   -3113.2039    792.54246    41023.087     15.60014    13.510147    25.899138    5458.5072 
  988000       987.99    568.94326    23.386257   -437.55235   -414.16609    13257.175   -555.49915   -20.129747    40347.153    15.600142     13.51015     25.89912    5458.5052 
  988500       988.49    550.17127    22.614639   -436.77314    -414.1585    12356.727   -5339.8762   -55.726931    42465.783    15.600145    13.510152    25.899103    5458.5032 
  989000       988.99    586.92582    24.125425   -438.27791   -414.15248    13179.983   -6176.3683    3938.1792    41778.139    15.600147    13.510154    25.899085    5458.5012 
  989500       989.49    610.41479    25.090933   -439.23667   -414.14574    11186.643   -2762.5767   -587.57323    36910.077     15.60015    13.510156    25.899068    5458.4992 
  990000       989.99    581.98498    23.922333   -438.06197   -414.13964    13501.293   -103.83721   -2597.0548     43204.77    15.600152    13.510158     25.89905    5458.4972 
  990500       990.49    546.69083    22.471577   -436.60125   -414.12967    13165.894   -5057.3135   -1099.2889    45654.285    15.600154     13.51016    25.899033    5458.4952 
  991000       990.99    581.10558    23.886186   -438.00801   -414.12182     12633.76   -3902.1603    2636.7776    39166.662    15.600157    13.510162    25.899015    5458.4932 
  991500       991.49    578.44188    23.776695   -437.88982   -414.11313    12576.932   -4417.5508   -650.55713    42798.903    15.600159    13.510164    25.898998    5458.4912 
  992000       991.99    587.52632    24.150108   -438.25738   -414.10727    13330.675   -5123.0259    1429.2734    43685.778    15.600162    13.510166     25.89898    5458.4892 
  992500       992.49     559.9431    23.016308   -437.11557   -414.09927    13505.492   -1831.3494    2553.6033    39794.223    15.600164    13.510168    25.898963    5458.4872 
  993000       992.99    550.14459    22.613543   -436.70312   -414.08957    14157.099   -5034.0111    5975.4039    41529.904    15.600166    13.510171    25.898945    5458.4852 
  993500       993.49    579.36134    23.814489   -437.89636   -414.08188    12226.092   -3086.7183   -445.96273    40210.958    15.600169    13.510173    25.898928    5458.4832 
  994000       993.99    575.41169     23.65214   -437.72705   -414.07491    12595.775   -3420.1885   -520.03555    41727.548    15.600171    13.510175     25.89891    5458.4812 
  994500       994.49    592.87382    24.369916   -438.43773   -414.06782    12869.807   -4245.5187    2051.3214    40803.618    15.600174    13.510177    25.898893    5458.4792 
  995000       994.99    558.13817    22.942117   -437.00046   -414.05834    13291.601   -1629.1999    1327.8041    40176.198    15.600176    13.510179    25.898875    5458.4772 
  995500       995.49    569.04055    23.390256    -437.4397   -414.04945    11952.059   -6735.5458    1033.2032    41558.519    15.600178    13.510181    25.898858    5458.4752 
  996000       995.99    567.99127    23.347125   -437.38976   -414.04263    12403.888    691.49062   -2887.3286    39407.503    15.600181    13.510183     25.89884    5458.4732 
  996500       996.49    587.01266    24.128995   -438.16472   -414.03573    11996.281    -2418.556    1613.4215    36793.976    15.600183    13.510185    25.898823    5458.4712 
  997000       996.99    587.52513    24.150059   -438.17679   -414.02673    12563.066   -5192.0943    191.35651    42689.936    15.600186    13.510187    25.898805    5458.4692 
  997500       997.49    573.85902    23.588318   -437.60766   -414.01935    13780.693   -3247.8149    3694.4392    40895.456    15.600188    13.510189    25.898788    5458.4672 
  998000       997.99    565.03104    23.225446   -437.23599   -414.01055    13156.684   -4201.1134    4649.2587    39021.908     15.60019    13.510192     25.89877    5458.4652 
  998500       998.49    579.57082      23.8231    -437.8248    -414.0017    13158.201   -1791.2974    3037.5307    38228.368    15.600193    13.510194    25.898753    5458.4632 
  999000       998.99    563.74588     23.17262   -437.16652    -413.9939    14991.391   -2125.6356    5797.3351    41302.473    15.600195    13.510196    25.898735    5458.4612 
  999500       999.49    566.57051    23.288726   -437.27064   -413.98191    13976.617   -2581.5557    529.23931    43982.169    15.600198    13.510198    25.898718    5458.4592 
 1000000       999.99    569.94135    23.427283   -437.39957   -413.97229    13142.988    -85.86205   -1169.0322    40683.858      15.6002      13.5102      25.8987    5458.4572 
 1000010         1000    569.86218    23.424029   -437.39605   -413.97202    13805.429    866.16731    779.78967    39770.329      15.6002      13.5102      25.8987    5458.4572 
Loop time of 939.708 on 28 procs for 1000000 steps with 319 atoms

Performance: 91.943 ns/day, 0.261 hours/ns, 1064.160 timesteps/s
87.2% CPU use with 28 MPI tasks x no OpenMP threads

MPI task timing breakdown:
Section |  min time  |  avg time  |  max time  |%varavg| %total
---------------------------------------------------------------
Pair    | 758.1      | 816.62     | 856.18     |  84.4 | 86.90
Neigh   | 0.0045568  | 0.0074898  | 0.0098562  |   1.7 |  0.00
Comm    | 72.478     | 111.57     | 168.29     | 222.6 | 11.87
Output  | 0.10036    | 0.10283    | 0.1238     |   1.3 |  0.01
Modify  | 4.8372     | 6.2925     | 7.9806     |  33.8 |  0.67
Other   |            | 5.117      |            |       |  0.54

Nlocal:    11.3929 ave 16 max 6 min
Histogram: 2 1 1 3 3 3 3 6 4 2
Nghost:    661.929 ave 691 max 637 min
Histogram: 2 0 4 4 6 5 4 1 0 2
Neighs:    723.143 ave 1014 max 392 min
Histogram: 3 1 1 5 1 3 4 7 1 2
FullNghs:  1446.29 ave 2050 max 748 min
Histogram: 2 1 3 4 2 3 5 4 2 2

Total # of neighbors = 40496
Ave neighs/atom = 126.947
Neighbor list builds = 109
Dangerous builds = 0

write_restart   POSCAR_1x1x1.rest

#unfix    1
#undump   1
Total wall time: 0:15:39
