LAMMPS (7 Dec 2015)
#----------- Initialize Simulation ------------ restart01
#processors	2 2 2
units		metal
boundary	p p p     ## periodic boundary condition  on x y z axis ##
atom_style atomic
#atom_modify map array sort 0 0.0

read_data	POSCAR_1x1x1.lammps
  triclinic box = (0 0 0) to (15.2244 13.1847 28.6628) with tilt (-7.6121 0 0)
  2 by 2 by 7 MPI processor grid
  reading atoms ...
  319 atoms

#----------- Define Potential -----------------
pair_style meam
pair_coeff * * MgAlZn.library.meam Mg Al Zn MgAlZn.parameter.meam Mg Al Zn 	#1=Mg 2=Al 3=Zn	#atoms/mass

#----------- Neighbor List --------------------
neighbor 2.0 bin
neigh_modify delay 10 check yes

#--------------  Run a simulation (minimization) ---------------------------------------
minimize       1.0e-4   1.0e-6   100   1000          #結構優化的條件
WARNING: Resetting reneighboring criteria during minimization (../min.cpp:168)
Neighbor list info ...
  2 neighbor list requests
  update every 1 steps, delay 0 steps, check yes
  max neighbors/atom: 2000, page size: 100000
  master list distance cutoff = 8
  ghost atom cutoff = 8
  binsize = 4 -> bins = 6 4 8
Memory usage per processor = 8.65164 Mbytes
Step Temp E_pair E_mol TotEng Press 
       0            0   -429.50242            0   -429.50242   -8572.6572 
      14            0   -450.53062            0   -450.53062   -24419.829 
Loop time of 0.0213711 on 28 procs for 14 steps with 319 atoms

85.0% CPU use with 28 MPI tasks x no OpenMP threads

Minimization stats:
  Stopping criterion = energy tolerance
  Energy initial, next-to-last, final = 
        -429.502417417     -450.499305269     -450.530616513
  Force two-norm initial, final = 19.4703 0.774192
  Force max component initial, final = 3.70847 0.213556
  Final line search alpha, max atom move = 0.195617 0.0417752
  Iterations, force evaluations = 14 23

MPI task timing breakdown:
Section |  min time  |  avg time  |  max time  |%varavg| %total
---------------------------------------------------------------
Pair    | 0.017019   | 0.017725   | 0.019339   |   0.4 | 82.94
Neigh   | 0          | 0          | 0          |   0.0 |  0.00
Comm    | 0.0011605  | 0.0026693  | 0.0035344  |   1.0 | 12.49
Output  | 0          | 0          | 0          |   0.0 |  0.00
Modify  | 0          | 0          | 0          |   0.0 |  0.00
Other   |            | 0.0009765  |            |       |  4.57

Nlocal:    11.3929 ave 16 max 7 min
Histogram: 3 3 3 1 2 6 2 4 3 1
Nghost:    644.893 ave 706 max 595 min
Histogram: 6 2 3 4 0 3 2 2 3 3
Neighs:    690.179 ave 969 max 406 min
Histogram: 4 3 1 2 3 2 4 3 3 3
FullNghs:  1380.36 ave 2005 max 826 min
Histogram: 3 3 3 1 2 6 4 2 3 1

Total # of neighbors = 38650
Ave neighs/atom = 121.16
Neighbor list builds = 0
Dangerous builds = 0
velocity all  create 600.0 4928459 #rot yes dist gaussian

#--------------  Run a simulation (Relaxation)  ----------------------------------------
fix  1  all  nvt   temp  600.0  600.0  100				#damping constant
#fix  2  all  npt   temp  393.0  393.0  50 iso 0.0 0.0 1000.0
fix  2  all deform 1 x final 0 15.2292 y final 0 13.1888 z final 0 28.6278 xy final -7.6145 units lattice
#fix  3  all  npt   temp  393.0  393.0  50 z 0.0 0.0 1000.0

#variable b equal 1
#fix 2 all efield  0.0  0.0  v_b
#compute pot all pe/atom


#----------- Output --------------------------
thermo	 500
timestep  0.001		#1.0 fs
thermo_style	custom step time temp ke pe etotal press pxx pyy pzz lx ly lz vol

dump 1 all custom 10000 dump.eq id type x y z
dump_modify 1 sort  id

run        1000000	#1000 ps
Neighbor list info ...
  2 neighbor list requests
  update every 1 steps, delay 10 steps, check yes
  max neighbors/atom: 2000, page size: 100000
  master list distance cutoff = 8
  ghost atom cutoff = 8
  binsize = 4 -> bins = 6 4 8
Memory usage per processor = 7.55759 Mbytes
Step Time Temp KinEng PotEng TotEng Press Pxx Pyy Pzz Lx Ly Lz Volume 
      14            0          600    24.662836   -450.53062   -425.86778   -19841.225   -1058.9667   -10903.683   -47561.025      15.2244      13.1847      28.6628    5753.4594 
     500        0.486    313.28781     12.87761   -438.74166   -425.86405   -12478.335    8456.2787   -614.58646   -45276.697    15.224402    13.184702    28.662783    5753.4577 
    1000        0.986    305.30361    12.549421   -438.41289   -425.86347   -13650.965    4460.6267   -2483.9513   -42929.571    15.224405    13.184704    28.662765     5753.456 
    1500        1.486    298.42589    12.266714   -438.12957   -425.86286   -12983.988    6307.4028   -2200.4831   -43058.883    15.224407    13.184706    28.662748    5753.4543 
    2000        1.986    312.40926    12.841497   -438.70289   -425.86139   -12964.325    7089.6246    280.95372   -46263.555     15.22441    13.184708     28.66273    5753.4526 
    2500        2.486    309.16875    12.708297   -438.56928   -425.86098   -13385.474    6436.4431   -423.27443   -46169.592    15.224412     13.18471    28.662713    5753.4509 
    3000        2.986    307.21903    12.628154   -438.48718   -425.85903    -13987.95    7011.7961   -3672.4398   -45303.208    15.224414    13.184712    28.662695    5753.4492 
    3500        3.486    324.58618    13.342026    -439.1995   -425.85747   -14683.744    4616.2321   -4853.1809   -43814.283    15.224417    13.184714    28.662678    5753.4475 
    4000        3.986    310.00428    12.742641   -438.59772   -425.85508   -13220.513    4138.0565   -803.23484   -42996.362    15.224419    13.184716     28.66266    5753.4457 
    4500        4.486    308.24883    12.670484   -438.52339    -425.8529   -12645.871    7834.6742    572.50694   -46344.794    15.224422    13.184718    28.662643     5753.444 
    5000        4.986    330.66976     13.59209   -439.44205   -425.84996   -13274.805    8388.3216   -2248.2029   -45964.534    15.224424     13.18472    28.662625    5753.4423 
    5500        5.486    315.27724    12.959384   -438.80602   -425.84664    -13625.53    5567.9483   -2662.8418   -43781.695    15.224426    13.184722    28.662608    5753.4406 
    6000        5.986     309.9121    12.738852   -438.58209   -425.84324    -12863.45    6441.6756   -894.89897   -44137.126    15.224429    13.184725     28.66259    5753.4389 
    6500        6.486     322.2597    13.246397    -439.0856    -425.8392   -13566.729    5853.3536   -632.30016   -45921.239    15.224431    13.184727    28.662573    5753.4372 
    7000        6.986    321.40714    13.211352   -439.04682   -425.83547   -13201.211    7742.4064   -2998.8895   -44347.151    15.224434    13.184729    28.662555    5753.4355 
    7500        7.486    315.26578    12.958914   -438.78967   -425.83075    -14469.93    6190.7386   -1841.6088    -47758.92    15.224436    13.184731    28.662538    5753.4338 
    8000        7.986    314.25742    12.917465   -438.74355   -425.82608    -14108.08    7647.7083   -3087.0796   -46884.868    15.224438    13.184733     28.66252    5753.4321 
    8500        8.486    320.11898    13.158403   -438.97931   -425.82091    -12737.41    8358.2648   -2602.5667   -43967.929    15.224441    13.184735    28.662503    5753.4303 
    9000        8.986    313.68904    12.894102   -438.70995   -425.81584   -13255.671    7260.2614   -3091.9559   -43935.319    15.224443    13.184737    28.662485    5753.4286 
    9500        9.486    321.29548    13.206763   -439.01677   -425.81001   -12405.694    6871.8565   -170.05861   -43918.879    15.224446    13.184739    28.662468    5753.4269 
   10000        9.986    306.23931    12.587883   -438.39211   -425.80422   -13132.292    10051.399   -3236.4809   -46211.794    15.224448    13.184741     28.66245    5753.4252 
   10500       10.486    330.27896    13.576026   -439.37426   -425.79824   -13083.622    6497.3383   -2479.1368   -43269.067     15.22445    13.184743    28.662433    5753.4235 
   11000       10.986    317.97963    13.070465   -438.86228   -425.79181   -12286.674    8231.7773   -2360.0407    -42731.76    15.224453    13.184745    28.662415    5753.4218 
   11500       11.486    325.00285    13.359153   -439.14496   -425.78581   -13247.127    4830.8388    1332.0037   -45904.224    15.224455    13.184747    28.662398    5753.4201 
   12000       11.986    322.08058    13.239034   -439.01718   -425.77814   -14156.964     6232.443   -1273.7253   -47429.609    15.224458    13.184749     28.66238    5753.4184 
   12500       12.486    317.14427    13.036128   -438.80632   -425.77019   -13323.381    5267.0221   -917.41863   -44319.748     15.22446    13.184751    28.662363    5753.4167 
   13000       12.986    322.70533    13.264714   -439.02747   -425.76276   -13217.679    8468.5814     -4667.66   -43453.959    15.224462    13.184753    28.662345    5753.4149 
   13500       13.486    311.85786    12.818832   -438.57345   -425.75462    -13437.61    6364.0084   -12.110357   -46664.727    15.224465    13.184755    28.662328    5753.4132 
   14000       13.986    327.97517     13.48133   -439.22787   -425.74654   -13073.094     7589.513    -1308.888   -45499.908    15.224467    13.184757     28.66231    5753.4115 
   14500       14.486     315.0493    12.950015   -438.68773   -425.73772   -13233.028     7312.519   -2626.5987   -44385.004     15.22447    13.184759    28.662293    5753.4098 
   15000       14.986    324.12226    13.322957   -439.05141   -425.72846   -12900.915     8814.413   -3365.5126   -44151.646    15.224472    13.184761    28.662275    5753.4081 
   15500       15.486    327.99775    13.482258   -439.20188   -425.71962   -14106.031    6595.7052   -2407.5768   -46506.221    15.224474    13.184763    28.662258    5753.4064 
   16000       15.986    322.90818    13.273052   -438.98306   -425.71001    -14094.96    5347.2553   -761.87994   -46870.256    15.224477    13.184766     28.66224    5753.4047 
   16500       16.486    343.88543    14.135316   -439.83549   -425.70017   -13145.519    8405.0268   -1336.5864   -46504.997    15.224479    13.184768    28.662223     5753.403 
   17000       16.986    331.06033    13.608144   -439.29803   -425.68989   -13546.299    7750.8101     -3294.84   -45094.866    15.224482     13.18477    28.662205    5753.4013 
   17500       17.486    328.61854    13.507775   -439.18717    -425.6794   -13818.007    5533.1422   -4100.5386   -42886.624    15.224484    13.184772    28.662188    5753.3995 
   18000       17.986    315.39731     12.96432   -438.63266   -425.66834   -12685.535    8314.0605   -3017.9678   -43352.698    15.224486    13.184774     28.66217    5753.3978 
   18500       18.486    289.69064    11.907655   -437.56418   -425.65653   -11575.366    9590.4835    1355.5571   -45672.139    15.224489    13.184776    28.662153    5753.3961 
   19000       18.986    324.50829    13.338824   -438.98479   -425.64597   -13124.149    6472.6012   -1319.4495   -44525.599    15.224491    13.184778    28.662135    5753.3944 
   19500       19.486    323.11376    13.281502   -438.91593   -425.63442   -14619.642    4454.9086   -3298.3966   -45015.438    15.224494     13.18478    28.662118    5753.3927 
   20000       19.986    313.22866    12.875178   -438.49725   -425.62208   -13566.066    7953.7756   -4184.7336    -44467.24    15.224496    13.184782      28.6621     5753.391 
   20500       20.486    326.71315    13.429455   -439.03961   -425.61016   -13417.198    8061.4429   -1903.3195   -46409.717    15.224498    13.184784    28.662083    5753.3893 
   21000       20.986     342.3253    14.071188   -439.66915   -425.59796   -13964.014    6751.0787    -4495.845   -44147.275    15.224501    13.184786    28.662065    5753.3876 
   21500       21.486    322.28527    13.247448   -438.83202   -425.58457    -13768.35    6744.6499   -2147.8124   -45901.888    15.224503    13.184788    28.662048    5753.3858 
   22000       21.986    308.21638     12.66915   -438.24034   -425.57119   -11937.805     8742.905   -1418.2172   -43138.103    15.224506     13.18479     28.66203    5753.3841 
   22500       22.486    323.24101    13.286733   -438.84468   -425.55794   -13413.588    6987.6622   -3175.6097   -44052.815    15.224508    13.184792    28.662013    5753.3824 
   23000       22.986    325.74154    13.389517   -438.93423   -425.54472   -14439.876    5586.1328   -47.927085   -48857.833     15.22451    13.184794    28.661995    5753.3807 
   23500       23.486    316.35498    13.003685   -438.53476   -425.53108   -12160.754     8418.339   -3437.5452   -41463.055    15.224513    13.184796    28.661978     5753.379 
   24000       23.986    327.51269    13.462319   -438.97869   -425.51637   -13618.002    8237.0768   -3098.2332    -45992.85    15.224515    13.184798     28.66196    5753.3773 
   24500       24.486    328.29622    13.494526   -438.99644   -425.50191   -14057.445    5196.7984   -1950.9348     -45418.2    15.224518      13.1848    28.661943    5753.3756 
   25000       24.986    307.54512    12.641558   -438.12876    -425.4872   -12464.683    7861.1232   -346.08694   -44909.085     15.22452    13.184802    28.661925    5753.3739 
   25500       25.486     336.0784    13.814411   -439.28695   -425.47254   -13606.044    6636.1442   -3677.6686   -43776.609    15.224522    13.184804    28.661908    5753.3722 
   26000       25.986    330.48252    13.584394   -439.04138   -425.45699   -13675.809    6589.6549   -2378.4877   -45238.595    15.224525    13.184807     28.66189    5753.3704 
   26500       26.486    310.54966    12.765059    -438.2063   -425.44124   -12910.824    7805.5128    437.53973   -46975.525    15.224527    13.184809    28.661873    5753.3687 
   27000       26.986    320.09894    13.157579   -438.58346   -425.42588    -13879.56    6819.6661   -2705.6001   -45752.747     15.22453    13.184811    28.661855     5753.367 
   27500       27.486    338.27925    13.904876   -439.31484   -425.40996   -13663.936    5698.5413   -1664.7186   -45025.631    15.224532    13.184813    28.661838    5753.3653 
   28000       27.986    340.89562    14.012421   -439.40638   -425.39396   -12557.528    7995.4755    70.056538   -45738.115    15.224534    13.184815     28.66182    5753.3636 
   28500       28.486    324.27751    13.329338   -438.70645   -425.37711   -12599.596    9150.4999   -3068.9414   -43880.345    15.224537    13.184817    28.661803    5753.3619 
   29000       28.986    322.56658    13.259011   -438.61922    -425.3602   -13179.375    8185.5543   -995.19488   -46728.484    15.224539    13.184819    28.661785    5753.3602 
   29500       29.486    324.29942    13.330239   -438.67388   -425.34364   -13385.754    7769.6913   -4186.4179   -43740.536    15.224542    13.184821    28.661768    5753.3585 
   30000       29.986    304.47449    12.515341   -437.84159   -425.32625   -13259.705    5633.7923   -522.22553   -44890.682    15.224544    13.184823     28.66175    5753.3568 
   30500       30.486    315.05427    12.950219   -438.25969   -425.30947   -12393.018    7149.1777    162.44277   -44490.674    15.224546    13.184825    28.661733     5753.355 
   31000       30.986    330.69832    13.593264   -438.88532   -425.29206   -13353.851    8096.4171    -4241.773   -43916.198    15.224549    13.184827    28.661715    5753.3533 
   31500       31.486       333.76    13.719113   -438.99368   -425.27457   -14741.887    8132.6655   -4611.7145   -47746.613    15.224551    13.184829    28.661698    5753.3516 
   32000       31.986    328.49955    13.502884   -438.75984   -425.25696   -13638.339    5644.1486   -370.72631   -46188.438    15.224554    13.184831     28.66168    5753.3499 
   32500       32.486    331.00386    13.605823   -438.84488   -425.23906   -14121.346    6028.7503   -903.52132   -47489.267    15.224556    13.184833    28.661663    5753.3482 
   33000       32.986    327.25053    13.451543   -438.67257   -425.22103   -12352.438    8623.8292   -1833.3921   -43847.752    15.224558    13.184835    28.661645    5753.3465 
   33500       33.486    312.37263    12.839991   -438.04258   -425.20259   -13375.415    7784.6114   -1446.7628   -46464.093    15.224561    13.184837    28.661628    5753.3448 
   34000       33.986    332.29148     13.65875   -438.84332   -425.18457   -12972.812    5898.4924   -321.54735   -44495.381    15.224563    13.184839     28.66161    5753.3431 
   34500       34.486    311.96783    12.823352   -437.98881   -425.16546   -12902.504     7258.892   -1284.0115   -44682.393    15.224566    13.184841    28.661593    5753.3414 
   35000       34.986    314.89457    12.943655   -438.09077   -425.14712   -13150.028    6962.1183   -3134.8123    -43277.39    15.224568    13.184843    28.661575    5753.3396 
   35500       35.486    328.11358    13.487019   -438.61536   -425.12834   -12749.347    7553.0074   -2516.1675    -43284.88     15.22457    13.184845    28.661558    5753.3379 
   36000       35.986    345.54101    14.203369   -439.31377    -425.1104   -13406.419    5789.1333   -2112.7413    -43895.65    15.224573    13.184848     28.66154    5753.3362 
   36500       36.486    322.33326     13.24942   -438.33965   -425.09023   -13773.205    5907.6563   -1019.9684   -46207.303    15.224575     13.18485    28.661523    5753.3345 
   37000       36.986    319.80212    13.145379   -438.21696   -425.07158   -13558.323    7877.7205   -3568.1052   -44984.585    15.224578    13.184852    28.661505    5753.3328 
   37500       37.486    323.97393     13.31686   -438.36943   -425.05257   -13811.155    6727.5452   -2735.1948   -45425.815     15.22458    13.184854    28.661488    5753.3311 
   38000       37.986    309.74412    12.731947   -437.76504   -425.03309   -13669.416    6253.6218    133.51212   -47395.383    15.224582    13.184856     28.66147    5753.3294 
   38500       38.486    335.28846     13.78194   -438.79658   -425.01464   -12043.712    7644.3094    1246.9733   -45022.419    15.224585    13.184858    28.661453    5753.3277 
   39000       38.986    333.43649    13.705816    -438.7011   -424.99528   -12202.868    10191.738   -1868.8387   -44931.504    15.224587     13.18486    28.661435     5753.326 
   39500       39.486    314.21127    12.915568   -437.89158   -424.97601   -12450.963    8509.1277   -2583.3756   -43278.642     15.22459    13.184862    28.661418    5753.3242 
   40000       39.986    316.24652    12.999226   -437.95629   -424.95706   -12382.958    8717.7419    544.53967   -46411.154    15.224592    13.184864      28.6614    5753.3225 
   40500       40.486    334.47918    13.748675   -438.68678   -424.93811   -13212.781    6019.7465   -1495.6541   -44162.435    15.224594    13.184866    28.661383    5753.3208 
   41000       40.986    346.67554    14.250003   -439.16914   -424.91914   -14214.287    5227.0497   -3158.7216   -44711.189    15.224597    13.184868    28.661365    5753.3191 
   41500       41.486    316.71935    13.018662   -437.91821   -424.89955   -13533.578    7004.5834   -3923.9187     -43681.4    15.224599     13.18487    28.661348    5753.3174 
   42000       41.986    328.70936    13.511508   -438.39171   -424.88021    -13933.26    5335.2348   -3886.4335   -43248.582    15.224602    13.184872     28.66133    5753.3157 
   42500       42.486    336.87242    13.847049   -438.70852   -424.86147   -12683.231    8584.8239   -2243.2966    -44391.22    15.224604    13.184874    28.661313     5753.314 
   43000       42.986    316.48704    13.009113     -437.851   -424.84189   -12993.273    5942.9996   -1260.7883   -43662.031    15.224606    13.184876    28.661295    5753.3123 
   43500       43.486    337.05285    13.854465    -438.6781   -424.82363   -13652.669    7705.2484   -2852.6188   -45810.635    15.224609    13.184878    28.661278    5753.3106 
   44000       43.986    333.52174     13.70932    -438.5135   -424.80418   -11933.908     9625.569     483.7433   -45911.037    15.224611     13.18488     28.66126    5753.3088 
   44500       44.486    336.80973    13.844472   -438.62987    -424.7854   -13007.777    9793.0906   -3414.9248   -45401.498    15.224614    13.184882    28.661243    5753.3071 
   45000       44.986    341.02662    14.017806    -438.7845   -424.76669   -14010.739    6093.9996   -3362.2937   -44763.924    15.224616    13.184884    28.661225    5753.3054 
   45500       45.486    339.31029    13.947256    -438.6952   -424.74794    -12953.39    5404.2861    762.77731   -45027.233    15.224618    13.184886    28.661208    5753.3037 
   46000       45.986    346.31148    14.235039   -438.96413   -424.72909    -12444.18    9298.0046   -2201.5359   -44429.008    15.224621    13.184889     28.66119     5753.302 
   46500       46.486    316.46589    13.008244   -437.71808   -424.70983   -12079.355    8211.6298   -2610.6513   -41839.043    15.224623    13.184891    28.661173    5753.3003 
   47000       46.986    332.98547    13.687276   -438.37875   -424.69147   -12175.581     9679.284   -2510.8579   -43695.168    15.224626    13.184893    28.661155    5753.2986 
   47500       47.486     316.0797     12.99237    -437.6653   -424.67293   -12999.035    9213.4644   -356.19367   -47854.377    15.224628    13.184895    28.661138    5753.2969 
   48000       47.986    324.89505    13.354722   -438.00909   -424.65437    -12210.73    8968.9867   -1405.3945   -44195.782     15.22463    13.184897     28.66112    5753.2951 
   48500       48.486    341.22696    14.026041   -438.66173   -424.63569   -11794.335    9774.3916   -1602.1337   -43555.264    15.224633    13.184899    28.661103    5753.2934 
   49000       48.986    338.78358    13.925606   -438.54331    -424.6177   -11611.225    8112.0061    1133.5529   -44079.234    15.224635    13.184901    28.661085    5753.2917 
   49500       49.486    331.79574    13.638373   -438.23758   -424.59921   -12862.961     9663.282   -1420.6998   -46831.467    15.224638    13.184903    28.661068      5753.29 
   50000       49.986    317.20955    13.038812   -437.61963   -424.58082   -12239.092    8739.3059   -3193.7452   -42262.836     15.22464    13.184905     28.66105    5753.2883 
   50500       50.486    322.75437     13.26673   -437.83039   -424.56366   -13232.659    7040.8667    -340.9683   -46397.875    15.224642    13.184907    28.661033    5753.2866 
   51000       50.986    344.67579    14.167804   -438.71344   -424.54564   -14086.395    3233.1424   -684.04803    -44808.28    15.224645    13.184909    28.661015    5753.2849 
   51500       51.486    327.80242    13.474229   -438.00156   -424.52733    -13075.19    8104.9476   -1261.2519   -46069.266    15.224647    13.184911    28.660998    5753.2832 
   52000       51.986    343.02302    14.099867   -438.61006   -424.51019   -13637.775     6176.946   -3188.9025   -43901.369     15.22465    13.184913     28.66098    5753.2815 
   52500       52.486    330.89628    13.601401   -438.09353   -424.49213   -12776.209     8799.028    99.940105   -47227.595    15.224652    13.184915    28.660963    5753.2797 
   53000       52.986    320.05238    13.155666   -437.63028   -424.47462   -12361.997     7899.065   -2100.7235   -42884.333    15.224654    13.184917    28.660945     5753.278 
   53500       53.486    344.72058    14.169645   -438.62693   -424.45728   -13545.466      8094.46   -2464.1095   -46266.748    15.224657    13.184919    28.660928    5753.2763 
   54000       53.986    323.78544    13.309112   -437.74922   -424.44011   -12549.068    8467.6815   -426.73607   -45688.149    15.224659    13.184921     28.66091    5753.2746 
   54500       54.486    362.71655    14.909365   -439.33192   -424.42256   -13594.511     5208.053   -876.68005   -45114.906    15.224662    13.184923    28.660893    5753.2729 
   55000       54.986    331.55776    13.628591   -438.03379    -424.4052   -12565.563    7226.6642    1156.8442   -46080.197    15.224664    13.184925    28.660875    5753.2712 
   55500       55.486    357.59991    14.699047   -439.08761   -424.38856   -12735.748    7841.8915   -1724.7437   -44324.393    15.224666    13.184927    28.660858    5753.2695 
   56000       55.986    346.26964    14.233319   -438.60481   -424.37149    -12644.76    7764.4134   -1131.0935   -44567.599    15.224669     13.18493     28.66084    5753.2678 
   56500       56.486    324.20274    13.326265   -437.68079   -424.35452   -13020.298    5725.5745   -1202.1148   -43584.355    15.224671    13.184932    28.660823    5753.2661 
   57000       56.986    321.67509    13.222366   -437.55939   -424.33703    -12934.48    6685.7773   -1009.0137   -44480.205    15.224674    13.184934    28.660805    5753.2643 
   57500       57.486    336.07939    13.814451   -438.13548   -424.32103   -13178.764    8046.4753   -1674.4412   -45908.325    15.224676    13.184936    28.660788    5753.2626 
   58000       57.986    330.72171    13.594225   -437.89875   -424.30453   -13011.832    8557.2363   -1965.5831   -45627.149    15.224678    13.184938     28.66077    5753.2609 
   58500       58.486    320.15502    13.159884   -437.44793   -424.28804   -12544.205    8098.6791   -3135.0165   -42596.278    15.224681     13.18494    28.660753    5753.2592 
   59000       58.986    335.17959    13.777465   -438.04932   -424.27185   -13588.837    6500.8275   -2376.2058   -44891.131    15.224683    13.184942    28.660735    5753.2575 
   59500       59.486    355.11919    14.597077   -438.85271   -424.25564   -13415.463    7646.2973   -1688.2972    -46204.39    15.224686    13.184944    28.660718    5753.2558 
   60000       59.986    334.39625    13.745266   -437.98438   -424.23912   -12639.047    7703.3813   -1106.8282   -44513.695    15.224688    13.184946      28.6607    5753.2541 
   60500       60.486    358.63438    14.741568   -438.96492   -424.22335   -12920.979    8568.7013   -3057.2233   -44274.415     15.22469    13.184948    28.660683    5753.2524 
   61000       60.986    346.43055    14.239933   -438.44669   -424.20675   -12447.654    8458.4614   -1172.9057   -44628.518    15.224693     13.18495    28.660665    5753.2507 
   61500       61.486    339.14087    13.940292    -438.1308   -424.19051   -13013.294    7303.9576   -420.54377   -45923.297    15.224695    13.184952    28.660648    5753.2489 
   62000       61.986    351.45759    14.446568   -438.62125   -424.17468   -12976.071    5690.9241   -430.72548   -44188.411    15.224698    13.184954     28.66063    5753.2472 
   62500       62.486    315.64859    12.974649   -437.13297   -424.15832   -12703.702    6450.0564    715.44405   -45276.605      15.2247    13.184956    28.660613    5753.2455 
   63000       62.986    319.59253    13.136763   -437.27971   -424.14295   -12238.339    7969.2156   -1863.9804   -42820.252    15.224702    13.184958    28.660595    5753.2438 
   63500       63.486    341.14721    14.022763    -438.1502   -424.12744   -11748.754    8151.0127    -1502.472   -41894.804    15.224705     13.18496    28.660578    5753.2421 
   64000       63.986     353.9094    14.547349   -438.65899   -424.11164   -12277.345    7865.8003   -1484.8947   -43212.939    15.224707    13.184962     28.66056    5753.2404 
   64500       64.486    331.32004    13.618819    -437.7146   -424.09578   -13575.912    6215.1743     -2854.11   -44088.801     15.22471    13.184964    28.660543    5753.2387 
   65000       64.986    339.38137    13.950178    -438.0306   -424.08042   -12824.027    4325.0596    -440.2103   -42356.931    15.224712    13.184966    28.660525     5753.237 
   65500       65.486    355.23542    14.601855    -438.6668   -424.06494   -13325.074    5248.5812    -1301.952   -43921.852    15.224714    13.184968    28.660508    5753.2352 
   66000       65.986    329.20362    13.531825   -437.58041   -424.04859   -11301.935    8352.3012   -6.1422347   -42251.964    15.224717    13.184971     28.66049    5753.2335 
   66500       66.486    347.13016     14.26869   -438.30146   -424.03277   -12318.789    7795.8563   -1421.0954   -43331.127    15.224719    13.184973    28.660473    5753.2318 
   67000       66.986    346.67222    14.249867   -438.26712   -424.01725   -12624.898    8957.5681   -2393.3068   -44438.956    15.224722    13.184975    28.660455    5753.2301 
   67500       67.486    350.87713    14.422708   -438.42421    -424.0015   -12448.652    6804.7301    365.36832   -44516.055    15.224724    13.184977    28.660438    5753.2284 
   68000       67.986    358.97365    14.755514   -438.74172   -423.98621   -12757.394    7854.7146    66.839993   -46193.737    15.224726    13.184979     28.66042    5753.2267 
   68500       68.486    321.97479    13.234686   -437.20458   -423.96989   -11436.441    7906.0308    43.306195   -42258.659    15.224729    13.184981    28.660403     5753.225 
   69000       68.986    359.04611    14.758492   -438.71355   -423.95506   -13556.354    6918.5971   -2929.4653   -44658.194    15.224731    13.184983    28.660385    5753.2233 
   69500       69.486    347.95491    14.302591    -438.2417    -423.9391   -12203.422    9737.0226    655.04406   -47002.334    15.224734    13.184985    28.660368    5753.2216 
   70000       69.986    356.72579    14.663116   -438.58646   -423.92334   -12498.774    8947.4961   -4025.3504   -42418.468    15.224736    13.184987     28.66035    5753.2198 
   70500       70.486    340.74303    14.006149   -437.91316   -423.90701     -13121.6    7295.3805   -3767.6416   -42892.539    15.224738    13.184989    28.660333    5753.2181 
   71000       70.986    351.91632    14.465424   -438.35746   -423.89203   -12583.235    6433.0539   -911.65148   -43271.106    15.224741    13.184991    28.660315    5753.2164 
   71500       71.486    342.16179    14.064466   -437.94083   -423.87637   -13163.249    7536.9545     1028.726   -48055.428    15.224743    13.184993    28.660298    5753.2147 
   72000       71.986     343.1908    14.106764   -437.96757    -423.8608   -11952.926     8468.618    43.022211   -44370.418    15.224746    13.184995     28.66028     5753.213 
   72500       72.486    353.64687    14.536558   -438.38112   -423.84456   -12626.947    6381.4233   -2730.0126   -41532.251    15.224748    13.184997    28.660263    5753.2113 
   73000       72.986    353.31698    14.522998   -438.35182   -423.82882   -12092.488    8148.3943    -71.73532   -44354.124     15.22475    13.184999    28.660245    5753.2096 
   73500       73.486     351.4768    14.447358   -438.26031   -423.81295   -12377.073    8516.4179   -759.73457   -44887.903    15.224753    13.185001    28.660228    5753.2079 
   74000       73.986    354.88344    14.587386   -438.38455   -423.79716   -11799.522    8425.1361   -2470.1412   -41353.562    15.224755    13.185003     28.66021    5753.2062 
   74500       74.486    347.02669    14.264437   -438.04591   -423.78148   -12974.413    7767.1329   -1338.5835   -45351.788    15.224758    13.185005    28.660193    5753.2044 
   75000       74.986     343.2045    14.107327   -437.87228   -423.76495    -12157.17    10307.765   -832.93848   -45946.338     15.22476    13.185007    28.660175    5753.2027 
   75500       75.486    338.60371    13.918213   -437.66712    -423.7489   -12415.342    8348.7986    -1060.051   -44534.775    15.224762    13.185009    28.660158     5753.201 
   76000       75.986    332.32062    13.659948   -437.39263   -423.73268   -11607.617    8165.5141    395.68338   -43384.048    15.224765    13.185012     28.66014    5753.1993 
   76500       76.486    357.40997    14.691239   -438.40785   -423.71661   -12717.713    7480.6815   -2609.2495   -43024.571    15.224767    13.185014    28.660123    5753.1976 
   77000       76.986    331.80134    13.638603   -437.33835   -423.69975   -11026.786    10060.541   -1593.3699    -41547.53     15.22477    13.185016    28.660105    5753.1959 
   77500       77.486    339.90918    13.971874    -437.6556   -423.68372   -12313.046     6731.569     -1310.15   -42360.556    15.224772    13.185018    28.660088    5753.1942 
   78000       77.986    340.27247    13.986807   -437.65406   -423.66725   -12782.694    7433.1723   -988.21608   -44793.039    15.224774     13.18502     28.66007    5753.1925 
   78500       78.486    339.08682    13.938071   -437.58885   -423.65078   -13410.788    8023.4011   -3268.6783   -44987.088    15.224777    13.185022    28.660053    5753.1908 
   79000       78.986    333.08516    13.691374   -437.32699   -423.63562   -11970.452     8192.273    1025.6736   -45129.302    15.224779    13.185024    28.660035     5753.189 
   79500       79.486    361.15742    14.845277   -438.46427     -423.619    -11762.72    8634.8048    2110.0468    -46033.01    15.224782    13.185026    28.660018    5753.1873 
   80000       79.986    318.76332    13.102679   -436.70471   -423.60203   -11363.703     9107.586    552.40945   -43751.104    15.224784    13.185028        28.66    5753.1856 
   80500       80.486    341.66074    14.043871   -437.62925   -423.58538   -12559.963    7594.1162   -2913.0139    -42360.99    15.224786     13.18503    28.659983    5753.1839 
   81000       80.986    354.89516    14.587869   -438.15663   -423.56876   -14389.542    4237.2806   -3436.0053   -43969.901    15.224789    13.185032    28.659965    5753.1822 
   81500       81.486    356.30561    14.645844   -438.19799   -423.55214   -13002.256    8162.6504   -1415.3406   -45754.077    15.224791    13.185034    28.659948    5753.1805 
   82000       81.986    343.47284    14.118357   -437.65336     -423.535   -10489.166    11740.299   -1181.8622   -42025.934    15.224794    13.185036     28.65993    5753.1788 
   82500       82.486    343.25919    14.109575   -437.62767   -423.51809    -12725.81    7511.7805   -552.23061   -45136.979    15.224796    13.185038    28.659913    5753.1771 
   83000       82.986    344.35562    14.154644   -437.65531   -423.50067   -11978.297     10144.27   -1528.6528   -44550.507    15.224798     13.18504    28.659895    5753.1753 
   83500       83.486    351.53759    14.449856   -437.93366    -423.4838   -12403.878    7910.4626   -2467.8278   -42654.269    15.224801    13.185042    28.659878    5753.1736 
   84000       83.986    347.53357    14.285272   -437.75207    -423.4668   -12862.444    7716.9675    -672.2411    -45632.06    15.224803    13.185044     28.65986    5753.1719 
   84500       84.486    336.65703    13.838195   -437.28743   -423.44924   -12779.795    7779.3519   -2797.1354   -43321.602    15.224806    13.185046    28.659843    5753.1702 
   85000       84.986    343.39035    14.114966    -437.5469   -423.43193   -12094.607    8420.8488   -1307.3029   -43397.366    15.224808    13.185048    28.659825    5753.1685 
   85500       85.486    345.60762    14.206107   -437.62043   -423.41433   -12274.649    8378.7756   -2311.0358   -42891.686     15.22481     13.18505    28.659808    5753.1668 
   86000       85.986    368.87612    15.162552   -438.55996   -423.39741   -12623.802    6885.0987    150.90308   -44907.407    15.224813    13.185053     28.65979    5753.1651 
   86500       86.486     344.3535    14.154556   -437.53391   -423.37935   -12742.493    7975.5812   -950.27108   -45252.788    15.224815    13.185055    28.659773    5753.1634 
   87000       86.986    347.30086    14.275707   -437.63749   -423.36178   -12242.518    6789.6128    1202.1607   -44719.328    15.224818    13.185057    28.659755    5753.1617 
   87500       87.486    356.16151    14.639922   -437.98425   -423.34432   -12969.392    7460.2621   -1407.8298   -44960.609     15.22482    13.185059    28.659738    5753.1599 
   88000       87.986    337.86442    13.887824   -437.21414   -423.32631   -11773.081    7623.8172    200.25326   -43143.315    15.224822    13.185061     28.65972    5753.1582 
   88500       88.486    362.34402    14.894052   -438.20263   -423.30858   -12277.416    8343.8128   -4226.5248   -40949.537    15.224825    13.185063    28.659703    5753.1565 
   89000       88.986    363.62888    14.946866   -438.23775   -423.29089   -11314.465    9767.6554   -1584.3377   -42126.711    15.224827    13.185065    28.659685    5753.1548 
   89500       89.486    353.01773    14.510697   -437.78302   -423.27233   -12547.534    7108.4693   -657.26163    -44093.81     15.22483    13.185067    28.659668    5753.1531 
   90000       89.986    357.69921    14.703128    -437.9577   -423.25457   -12563.516    8102.4144   -1928.9498   -43864.013    15.224832    13.185069     28.65965    5753.1514 
   90500       90.486    359.07467    14.759666   -437.99579   -423.23613   -12306.669    6960.2374   -3674.0287   -40206.215    15.224834    13.185071    28.659633    5753.1497 
   91000       90.986    336.77433    13.843016   -437.06033   -423.21732    -11249.83    9952.5354    54.311303   -43756.337    15.224837    13.185073    28.659615     5753.148 
   91500       91.486    332.76694    13.678294   -436.87758   -423.19929    -10942.49    8075.3034    1579.9356   -42482.709    15.224839    13.185075    28.659598    5753.1463 
   92000       91.986    336.54097    13.833424   -437.01358   -423.18015   -12176.023    9951.2915   -3744.4522   -42734.908    15.224842    13.185077     28.65958    5753.1445 
   92500       92.486     344.0212    14.140897   -437.30257   -423.16168   -11827.316    10146.648   -356.68995   -45271.908    15.224844    13.185079    28.659563    5753.1428 
   93000       92.986    363.04147     14.92272    -438.0658   -423.14308   -12984.558    8896.1289    13.342172   -47863.145    15.224846    13.185081    28.659545    5753.1411 
   93500       93.486    341.54783     14.03923   -437.16331   -423.12408   -12482.747     7879.198   -1125.7869   -44201.653    15.224849    13.185083    28.659528    5753.1394 
   94000       93.986    336.29616    13.823362   -436.92812   -423.10476   -11907.396    5445.7306   -1147.7179   -40020.199    15.224851    13.185085     28.65951    5753.1377 
   94500       94.486    336.64165    13.837563   -436.92339   -423.08583   -11996.372     8529.563    909.90477   -45428.582    15.224854    13.185087    28.659493     5753.136 
   95000       94.986    345.26826    14.192157   -437.25896    -423.0668   -11460.175    10411.699   -2541.9683   -42250.256    15.224856    13.185089    28.659475    5753.1343 
   95500       95.486    355.84373    14.626859   -437.67466    -423.0478   -11797.169    7911.3627   -740.35406   -42562.515    15.224858    13.185091    28.659458    5753.1326 
   96000       95.986    353.30728    14.522599   -437.55111   -423.02851   -12388.143    5874.7044    -2349.221   -40689.911    15.224861    13.185094     28.65944    5753.1308 
   96500       96.486    348.25291    14.314841   -437.32396   -423.00912    -12237.97    8587.0956   -185.51729   -45115.489    15.224863    13.185096    28.659423    5753.1291 
   97000       96.986    367.79876    15.118267   -438.10843   -422.99017   -11776.401    7675.8249   -1838.6715   -41166.355    15.224866    13.185098    28.659405    5753.1274 
   97500       97.486    353.04647    14.511879   -437.48203   -422.97016   -12603.381     7420.767   -1739.1183   -43491.793    15.224868      13.1851    28.659388    5753.1257 
   98000       97.986    340.43736    13.993584    -436.9441   -422.95051   -12029.369    10786.184   -1165.6603   -45708.632     15.22487    13.185102     28.65937     5753.124 
   98500       98.486    337.84156    13.886885    -436.8176   -422.93071   -11625.381    9400.0784   -1352.7236   -42923.497    15.224873    13.185104    28.659353    5753.1223 
   99000       98.986    378.11412    15.542277   -438.45422   -422.91194   -12245.915    10087.239   -2265.9213   -44559.064    15.224875    13.185106    28.659335    5753.1206 
   99500       99.486    372.23149    15.300474   -438.19198   -422.89151   -11749.219    8530.1473   -788.52581   -42989.279    15.224878    13.185108    28.659318    5753.1189 
  100000       99.986    357.23461    14.684031   -437.55603   -422.87199   -13014.262    8125.8443   -2137.8602    -45030.77     15.22488     13.18511      28.6593    5753.1172 
  100500      100.486      354.904    14.588232   -437.43999   -422.85176   -12348.643    7266.2988    -1018.944   -43293.285    15.224882    13.185112    28.659283    5753.1154 
  101000      100.986    348.82614    14.338403   -437.16957   -422.83117   -11721.834    5533.6728   -1481.4444    -39217.73    15.224885    13.185114    28.659265    5753.1137 
  101500      101.486    371.19329    15.257798   -438.06914   -422.81135   -12991.161    6960.9456   -1640.1699   -44294.258    15.224887    13.185116    28.659248     5753.112 
  102000      101.986    365.01256    15.003741   -437.79569   -422.79195   -11039.507     9061.543   -554.72681   -41625.337     15.22489    13.185118     28.65923    5753.1103 
  102500      102.486    364.88415    14.998463   -437.76974   -422.77127   -11153.639    8115.2274    240.23886   -41816.383    15.224892     13.18512    28.659213    5753.1086 
  103000      102.986    364.70797    14.991221   -437.74179   -422.75057   -10922.754    9259.3003    953.03439   -42980.596    15.224894    13.185122    28.659195    5753.1069 
  103500      103.486    371.15438    15.256199   -437.98634   -422.73014   -11909.412    7734.2448   -1365.2552   -42097.227    15.224897    13.185124    28.659178    5753.1052 
  104000      103.986    348.67241    14.332084   -437.04184   -422.70976   -11218.224    9675.3596     1052.331   -44382.362    15.224899    13.185126     28.65916    5753.1035 
  104500      104.486    341.76064    14.047978   -436.73674   -422.68876   -11744.227    10170.364   -1184.8846   -44218.159    15.224902    13.185128    28.659143    5753.1017 
  105000      104.986    349.67387    14.373249    -437.0414   -422.66815   -11373.583    8001.1319   -1006.0472   -41115.834    15.224904     13.18513    28.659125       5753.1 
  105500      105.486    356.82726    14.667287   -437.31503   -422.64774   -11433.749     7898.363   -235.46979   -41964.139    15.224906    13.185132    28.659108    5753.0983 
  106000      105.986    354.28674    14.562859    -437.1896   -422.62674   -12478.966    7706.1195   -607.21861   -44535.799    15.224909    13.185135     28.65909    5753.0966 
  106500      106.486     354.8743    14.587011    -437.1928   -422.60579   -11950.415    7804.1971    174.05402   -43829.496    15.224911    13.185137    28.659073    5753.0949 
  107000      106.986    361.81445    14.872284   -437.45718   -422.58489   -11935.637    7856.3016   -389.00598   -43274.208    15.224914    13.185139    28.659055    5753.0932 
  107500      107.486    334.27547    13.740302   -436.30408   -422.56378   -12198.266    6963.1046    1213.5311   -44771.434    15.224916    13.185141    28.659038    5753.0915 
  108000      107.986    373.55492    15.354873   -437.89818   -422.54331    -11695.42    8300.7934   -123.60491   -43263.449    15.224918    13.185143     28.65902    5753.0898 
  108500      108.486    368.35663    15.141199   -437.66297   -422.52177   -11140.174     7798.742   -1102.6188   -40116.646    15.224921    13.185145    28.659003    5753.0881 
  109000      108.986    372.98747    15.331548   -437.83272   -422.50118   -12458.435    7905.8753    596.52205   -45877.701    15.224923    13.185147    28.658985    5753.0863 
  109500      109.486    362.74115    14.910376   -437.38988   -422.47951   -11768.949    9031.5717   -1202.8922   -43135.525    15.224926    13.185149    28.658968    5753.0846 
  110000      109.986    370.64808    15.235388   -437.69382   -422.45843    -11940.58     7347.723    745.89459   -43915.358    15.224928    13.185151     28.65895    5753.0829 
  110500      110.486    359.81024    14.789902   -437.22595   -422.43605   -10700.585    10808.319    2033.9739   -44944.048     15.22493    13.185153    28.658933    5753.0812 
  111000      110.986    363.89968    14.957997   -437.37301   -422.41502   -10477.241    10306.128    -939.0132   -40798.838    15.224933    13.185155    28.658915    5753.0795 
  111500      111.486    349.20693    14.354055   -436.74774   -422.39369   -10875.557    8117.4698    1144.7765   -41888.916    15.224935    13.185157    28.658898    5753.0778 
  112000      111.986    355.05784    14.594555   -436.96625   -422.37169   -11022.996    8962.4795    3266.2167   -45297.685    15.224938    13.185159     28.65888    5753.0761 
  112500      112.486    364.29319    14.974172   -437.32412   -422.34995   -12221.058    8847.6879   -2676.0221   -42834.839     15.22494    13.185161    28.658863    5753.0744 
  113000      112.986    353.90985    14.547367   -436.87514   -422.32778   -10725.721     9445.931     369.8491   -41992.944    15.224942    13.185163    28.658845    5753.0727 
  113500      113.486    360.67414    14.825412   -437.13155   -422.30613   -12223.457    8190.9233   -3292.4278   -41568.867    15.224945    13.185165    28.658828    5753.0709 
  114000      113.986    347.61191    14.288492   -436.57305   -422.28456   -11089.376    6647.2846    1096.0438   -41011.456    15.224947    13.185167     28.65881    5753.0692 
  114500      114.486    380.17121    15.626833   -437.88962   -422.26279   -12175.545    8015.3384    -2343.809   -42198.164     15.22495    13.185169    28.658793    5753.0675 
  115000      114.986    359.87676    14.792636   -437.03303   -422.24039   -11712.234     8106.852    2.4522829   -43246.007    15.224952    13.185171    28.658775    5753.0658 
  115500      115.486    359.63544    14.782716   -437.00116   -422.21845   -10448.456    12718.026   -1415.1255    -42648.27    15.224954    13.185173    28.658758    5753.0641 
  116000      115.986    373.42231    15.349422   -437.54589   -422.19647   -10875.276    8825.9103    1138.8053   -42590.544    15.224957    13.185176     28.65874    5753.0624 
  116500      116.486    370.07236    15.211723   -437.38629   -422.17457   -12121.769     10474.06    -2399.275   -44440.093    15.224959    13.185178    28.658723    5753.0607 
  117000      116.986    367.59349     15.10983   -437.26234   -422.15251   -11525.554    10165.384   -1781.6118   -42960.434    15.224962     13.18518    28.658705     5753.059 
  117500      117.486    347.21056    14.271995   -436.40163   -422.12964   -9716.1865    8483.9345    340.43999   -37972.934    15.224964    13.185182    28.658688    5753.0572 
  118000      117.986     369.8126    15.201046    -437.3086   -422.10756   -10722.182    9369.5232    1408.2546   -42944.323    15.224966    13.185184     28.65867    5753.0555 
  118500      118.486    363.13122    14.926409   -437.01184   -422.08543   -11518.241    11478.216    1478.2219   -47511.162    15.224969    13.185186    28.658653    5753.0538 
  119000      118.986    352.89132    14.505501   -436.56778   -422.06227    -13528.84    6458.6231   -1870.3653   -45174.778    15.224971    13.185188    28.658635    5753.0521 
  119500      119.486    366.74992    15.075155   -437.11522   -422.04007    -10904.17    9425.3252   -121.13655   -42016.697    15.224974     13.18519    28.658618    5753.0504 
  120000      119.986    389.38812    16.005692   -438.02317   -422.01747   -11841.841    8151.3588    1019.5529   -44696.434    15.224976    13.185192      28.6586    5753.0487 
  120500      120.486    357.86572    14.709972   -436.70419   -421.99422   -11381.802    10764.091    2490.2566   -47399.755    15.224978    13.185194    28.658583     5753.047 
  121000      120.986    363.01176    14.921499   -436.89348   -421.97198   -10956.481    10727.129   -1248.8515    -42347.72    15.224981    13.185196    28.658565    5753.0453 
  121500      121.486    364.31894     14.97523   -436.92416   -421.94893   -12044.731    8333.5978   -1341.9242   -43125.866    15.224983    13.185198    28.658548    5753.0436 
  122000      121.986    340.61544    14.000904   -435.92731    -421.9264   -11075.505    9473.9733    2002.5181   -44703.007    15.224986      13.1852     28.65853    5753.0418 
  122500      122.486    368.29889    15.138825   -437.04243   -421.90361   -11896.487    10009.471   -2540.5702   -43158.362    15.224988    13.185202    28.658513    5753.0401 
  123000      122.986    375.09328    15.418107   -437.29911     -421.881   -11431.545    12111.483    -1050.585   -45355.535     15.22499    13.185204    28.658495    5753.0384 
  123500      123.486    358.32535    14.728865   -436.58703   -421.85816   -10498.657    9223.8103    2862.9431   -43582.725    15.224993    13.185206    28.658478    5753.0367 
  124000      123.986    361.21603    14.847686   -436.68282   -421.83513   -10936.307    9942.0957   -422.08624   -42328.931    15.224995    13.185208     28.65846     5753.035 
  124500      124.486    362.86399    14.915425   -436.72778   -421.81236   -11540.667    7947.2426    926.38025   -43495.625    15.224998     13.18521    28.658443    5753.0333 
  125000      124.986    379.25891    15.589334   -437.37909   -421.78976   -12060.259    7360.3968    2318.7595   -45859.934       15.225    13.185212    28.658425    5753.0316 
  125500      125.486    376.03895    15.456978    -437.2239   -421.76692   -11103.313    8138.9685    1456.1706   -42905.078    15.225002    13.185214    28.658408    5753.0299 
  126000      125.986    356.90692    14.670561    -436.4139   -421.74334   -11516.198    7600.9147   -352.83161   -41796.678    15.225005    13.185217     28.65839    5753.0281 
  126500      126.486     396.3437    16.291599   -438.01238   -421.72078    -12240.67    7615.5468    -1198.573   -43138.983    15.225007    13.185219    28.658373    5753.0264 
  127000      126.986    381.00051    15.660922   -437.35876   -421.69784   -11239.569     6845.064    1740.4074   -42304.177     15.22501    13.185221    28.658355    5753.0247 
  127500      127.486    369.50478    15.188393   -436.86315   -421.67476   -10658.822    8636.5466    8.0908694   -40621.105    15.225012    13.185223    28.658338     5753.023 
  128000      127.986    378.00142    15.537645   -437.18933   -421.65168   -10575.417    11170.179   -300.48218   -42595.947    15.225014    13.185225     28.65832    5753.0213 
  128500      128.486    372.96306    15.330544   -436.95876   -421.62822   -11012.942    8097.1481    857.76259   -41993.737    15.225017    13.185227    28.658303    5753.0196 
  129000      128.986     375.4116    15.431191   -437.03678   -421.60559   -12060.004    7871.9735    -1997.454    -42054.53    15.225019    13.185229    28.658285    5753.0179 
  129500      129.486    368.00151    15.126601   -436.70873   -421.58213   -11836.731    5856.8991    699.26839   -42066.361    15.225022    13.185231    28.658268    5753.0162 
  130000      129.986    358.60346    14.740297   -436.29884   -421.55855   -11240.909    7754.8158    556.35767   -42033.901    15.225024    13.185233     28.65825    5753.0145 
  130500      130.486    361.82629    14.872771   -436.40793   -421.53516     -10867.1    8435.7198     1207.445   -42244.464    15.225026    13.185235    28.658233    5753.0127 
  131000      130.986    380.55184    15.642479   -437.15466   -421.51218   -10642.582    9128.4723    1582.4137   -42638.631    15.225029    13.185237    28.658215     5753.011 
  131500      131.486     381.7399    15.691314   -437.18041   -421.48909    -11997.39    7836.4591     1263.805   -45092.435    15.225031    13.185239    28.658198    5753.0093 
  132000      131.986    373.99112    15.372802   -436.83864   -421.46584   -12240.839    7688.0596    -713.5668   -43697.011    15.225034    13.185241     28.65818    5753.0076 
  132500      132.486    377.01519    15.497106   -436.93989   -421.44278   -12163.511    8338.2527   -3000.6347    -41828.15    15.225036    13.185243    28.658163    5753.0059 
  133000      132.986    382.49597    15.722392   -437.14205   -421.41966   -11411.363     10390.89   -3686.3585   -40938.622    15.225038    13.185245    28.658145    5753.0042 
  133500      133.486    368.44744    15.144931   -436.54099   -421.39605   -10574.402    10515.258     1282.818   -43521.281    15.225041    13.185247    28.658128    5753.0025 
  134000      133.986    389.33464    16.003494    -437.3761   -421.37261     -10842.8    10590.661      1496.99    -44616.05    15.225043    13.185249     28.65811    5753.0008 
  134500      134.486     352.7847    14.501118   -435.84998   -421.34886   -11204.273    8402.4808    359.37339   -42374.673    15.225046    13.185251    28.658093     5752.999 
  135000      134.986    387.43228    15.925298   -437.25139    -421.3261   -11032.912    9776.6576    1076.0769   -43951.471    15.225048    13.185253    28.658075    5752.9973 
  135500      135.486    392.74562    16.143701   -437.44646   -421.30276   -11943.319    7358.8172     1423.457   -44612.231     15.22505    13.185255    28.658058    5752.9956 
  136000      135.986    373.39618    15.348348   -436.62716   -421.27881   -11299.789    9424.9058   -127.19688   -43197.075    15.225053    13.185258     28.65804    5752.9939 
  136500      136.486    386.49795    15.886892   -437.14226   -421.25537   -11665.197    6499.4421   -136.47185   -41358.562    15.225055     13.18526    28.658023    5752.9922 
  137000      136.986    385.99464    15.866204   -437.09764   -421.23143   -12478.503    9092.8319   -2515.1769   -44013.164    15.225058    13.185262    28.658005    5752.9905 
  137500      137.486    392.12111    16.118031   -437.32575   -421.20772   -11789.603    9314.6469   -1766.5035   -42916.953     15.22506    13.185264    28.657988    5752.9888 
  138000      137.986    397.14168      16.3244   -437.50797   -421.18357   -11947.651    7290.9001   -2024.7356   -41109.116    15.225062    13.185266     28.65797    5752.9871 
  138500      138.486    362.66602    14.907288   -436.06647   -421.15918   -10673.256    12148.406    2405.9877   -46574.161    15.225065    13.185268    28.657953    5752.9854 
  139000      138.986    380.89751    15.656688   -436.79297   -421.13628   -11969.404    7614.9168    229.59697   -43752.726    15.225067     13.18527    28.657935    5752.9836 
  139500      139.486     378.9152    15.575206    -436.6878    -421.1126   -11858.633    7847.3034     489.6353   -43912.838     15.22507    13.185272    28.657918    5752.9819 
  140000      139.986    383.34014    15.757091    -436.8458   -421.08871   -10816.384    9408.1179     2455.291   -44312.561    15.225072    13.185274      28.6579    5752.9802 
  140500      140.486    377.71998    15.526076   -436.59055   -421.06448   -11626.048    9706.8431   -283.52259   -44301.465    15.225074    13.185276    28.657883    5752.9785 
  141000      140.986    371.44209    15.268025   -436.30878   -421.04075   -10920.678    10392.461   -969.77198   -42184.723    15.225077    13.185278    28.657865    5752.9768 
  141500      141.486    389.49684    16.010161   -437.02753   -421.01737   -11141.377    9334.7785    -701.8058   -42057.103    15.225079     13.18528    28.657848    5752.9751 
  142000      141.986    376.03066    15.456637   -436.44943   -420.99279   -11014.428    10784.902   -854.26788   -42973.918    15.225082    13.185282     28.65783    5752.9734 
  142500      142.486    383.35558    15.757726   -436.72693    -420.9692    -12534.35    9531.2311   -1053.3948   -46080.887    15.225084    13.185284    28.657813    5752.9717 
  143000      142.986    373.36252    15.346964   -436.29252   -420.94556   -12091.914    7888.0969   -1004.6296    -43159.21    15.225086    13.185286    28.657795    5752.9699 
  143500      143.486    389.63388    16.015794   -436.93758   -420.92178   -11670.617    8031.2946    -2191.017   -40852.127    15.225089    13.185288    28.657778    5752.9682 
  144000      143.986    391.78891    16.104376   -437.00197   -420.89759    -10505.64    11977.333    1173.9661   -44668.218    15.225091     13.18529     28.65776    5752.9665 
  144500      144.486    387.90659    15.944794   -436.81853   -420.87374   -10096.157    11447.722   -662.32725   -41073.867    15.225094    13.185292    28.657743    5752.9648 
  145000      144.986     394.8849    16.231636   -437.08163      -420.85    -11326.12    7988.5843     852.7863   -42819.731    15.225096    13.185294    28.657725    5752.9631 
  145500      145.486    382.84869     15.73689   -436.56271   -420.82582   -10633.412     9174.884     1314.837   -42389.958    15.225098    13.185296    28.657708    5752.9614 
  146000      145.986    391.98258    16.112337     -436.914   -420.80166   -11365.811     9871.944    -58.78925   -43910.587    15.225101    13.185299     28.65769    5752.9597 
  146500      146.486     396.1686    16.284402    -437.0623    -420.7779   -10999.683    8913.2393   -913.28385   -40999.004    15.225103    13.185301    28.657673     5752.958 
  147000      146.986    359.46287    14.775623   -435.52858   -420.75295   -11766.806    5770.6502    380.81967   -41451.889    15.225106    13.185303    28.657655    5752.9563 
  147500      147.486    375.56212    15.437378   -436.16667   -420.72929   -11541.139    7123.2389    648.92643   -42395.582    15.225108    13.185305    28.657638    5752.9545 
  148000      147.986     381.7708    15.692584   -436.39811   -420.70553   -12289.204    8625.1026   -1877.3602   -43615.354     15.22511    13.185307     28.65762    5752.9528 
  148500      148.486    394.25705    16.205828   -436.88729   -420.68146   -11546.041    8743.6085    646.92011   -44028.652    15.225113    13.185309    28.657603    5752.9511 
  149000      148.986    397.22236    16.327716   -436.98502    -420.6573   -11611.969    5654.5019    1064.6326   -41555.041    15.225115    13.185311    28.657585    5752.9494 
  149500      149.486    377.00095    15.496521   -436.12941   -420.63289   -11652.567    9478.8122    -393.9637   -44042.551    15.225118    13.185313    28.657568    5752.9477 
  150000      149.986    389.15461    15.996094   -436.60482   -420.60873   -11234.682    9362.7091   -1072.8776   -41993.877     15.22512    13.185315     28.65755     5752.946 
  150500      150.486    394.61113    16.220382   -436.80544   -420.58506   -11114.695    9735.0461   -224.85953   -42854.272    15.225122    13.185317    28.657533    5752.9443 
  151000      150.986    390.70907    16.059989   -436.62039    -420.5604   -11358.601    8413.3015    1184.1308   -43673.234    15.225125    13.185319    28.657515    5752.9426 
  151500      151.486    387.73808    15.937868   -436.47426   -420.53639   -10511.442    10155.825   -1020.1279   -40670.023    15.225127    13.185321    28.657498    5752.9408 
  152000      151.986    389.66787    16.017191   -436.52918   -420.51199    -11480.04    7764.9707    1545.2392   -43750.329     15.22513    13.185323     28.65748    5752.9391 
  152500      152.486    380.21011    15.628432   -436.11626   -420.48783   -11318.997    9303.3733    128.25961   -43388.625    15.225132    13.185325    28.657463    5752.9374 
  153000      152.986    380.73471    15.649996   -436.11317   -420.46318   -10972.154    10517.345    1261.5028    -44695.31    15.225134    13.185327    28.657445    5752.9357 
  153500      153.486    397.74341    16.349134   -436.78805   -420.43891   -10646.714    9584.2164    1501.2986   -43025.656    15.225137    13.185329    28.657428     5752.934 
  154000      153.986    380.15008    15.625965    -436.0405   -420.41454   -11681.905    9881.1949   -115.47148   -44811.437    15.225139    13.185331     28.65741    5752.9323 
  154500      154.486    383.21563    15.751974   -436.14222   -420.39024   -11840.161    8083.9934   -1245.6691   -42358.809    15.225142    13.185333    28.657393    5752.9306 
  155000      154.986    371.47247    15.269274   -435.63441   -420.36513   -11963.845    9313.0026   -1371.6506   -43832.887    15.225144    13.185335    28.657375    5752.9289 
  155500      155.486    365.16612    15.010053   -435.35069   -420.34064    -10784.16    11753.039    850.04768   -44955.566    15.225146    13.185337    28.657358    5752.9272 
  156000      155.986    397.26133    16.329318   -436.64527   -420.31595   -10468.376     10339.42    1037.2594   -42781.806    15.225149     13.18534     28.65734    5752.9254 
  156500      156.486    383.53576    15.765132   -436.05638   -420.29125   -9898.3116    11101.682    2059.4286   -42856.046    15.225151    13.185342    28.657323    5752.9237 
  157000      156.986    413.83786    17.010692   -437.27769     -420.267   -10859.116    8071.6953    1287.4046   -41936.449    15.225154    13.185344    28.657305     5752.922 
  157500      157.486     395.4935    16.256652   -436.49839   -420.24174   -11973.365     5930.445    142.81061   -41993.351    15.225156    13.185346    28.657288    5752.9203 
  158000      157.986    387.66682    15.934939   -436.15224    -420.2173    -10817.64    10540.215   -278.82482   -42714.309    15.225158    13.185348     28.65727    5752.9186 
  158500      158.486    391.19823    16.080096    -436.2728    -420.1927   -10167.086    11102.314    138.70937   -41742.282    15.225161     13.18535    28.657253    5752.9169 
  159000      158.986     404.2984    16.618575   -436.78652   -420.16794    -10987.04    9063.7335    1024.5262    -43049.38    15.225163    13.185352    28.657235    5752.9152 
  159500      159.486    401.97975    16.523267   -436.66685   -420.14358   -10374.826    11399.551    440.97342   -42965.003    15.225166    13.185354    28.657218    5752.9135 
  160000      159.986    398.82058    16.393411   -436.51242   -420.11901   -12333.097    8091.6496   -1810.4426   -43280.497    15.225168    13.185356      28.6572    5752.9117 
  160500      160.486     393.3146    16.167089   -436.26099    -420.0939   -11460.694    9953.1124   -2598.2525   -41736.942     15.22517    13.185358    28.657183      5752.91 
  161000      160.986    365.58613    15.027318   -435.09621   -420.06889   -11300.906    9101.1649    2569.1498   -45573.032    15.225173     13.18536    28.657165    5752.9083 
  161500      161.486    383.49166     15.76332   -435.80745   -420.04413    -10865.06    7985.1178    2813.3942   -43393.691    15.225175    13.185362    28.657148    5752.9066 
  162000      161.986    405.64894    16.674089    -436.6935   -420.01941   -11067.155    8356.3765   -291.62963   -41266.211    15.225178    13.185364     28.65713    5752.9049 
  162500      162.486    406.10892    16.692996   -436.68787   -419.99488   -12368.075    8725.8751    171.27737   -46001.378     15.22518    13.185366    28.657113    5752.9032 
  163000      162.986    405.47577     16.66697   -436.63739   -419.97042    -11465.81    6728.0703      575.899   -41701.399    15.225182    13.185368    28.657095    5752.9015 
  163500      163.486    393.08267    16.157556   -436.10248   -419.94492   -10716.528    10562.512   -1035.5408   -41676.556    15.225185     13.18537    28.657078    5752.8998 
  164000      163.986    394.18676    16.202939   -436.12265   -419.91971   -10909.339    9287.5014    -141.0292   -41874.488    15.225187    13.185372     28.65706    5752.8981 
  164500      164.486    394.16524    16.202054   -436.09658   -419.89452   -9443.4669    10260.107       1463.1   -40053.608     15.22519    13.185374    28.657043    5752.8963 
  165000      164.986    396.13401     16.28298   -436.15273   -419.86975   -10562.686    7949.1565   -156.10979   -39481.105    15.225192    13.185376    28.657025    5752.8946 
  165500      165.486    412.10208    16.939343   -436.78394   -419.84459    -11596.16    6728.5217    487.41914    -42004.42    15.225194    13.185378    28.657008    5752.8929 
  166000      165.986    401.14164    16.488817   -436.30774   -419.81892   -11221.228     9172.957   -541.19994    -42295.44    15.225197    13.185381     28.65699    5752.8912 
  166500      166.486    406.11731    16.693341   -436.48762   -419.79428   -11681.608    6475.4592   -194.62232   -41325.661    15.225199    13.185383    28.656973    5752.8895 
  167000      166.986    375.75343    15.445242   -435.21364   -419.76839   -11530.305    8089.0814    438.11227   -43118.109    15.225202    13.185385    28.656955    5752.8878 
  167500      167.486    415.03301    17.059818   -436.80316   -419.74334   -10770.452    10767.164     1718.043   -44796.563    15.225204    13.185387    28.656938    5752.8861 
  168000      167.986    391.37358    16.087304   -435.80493   -419.71763    -11518.12    8937.9905   -484.66929   -43007.681    15.225206    13.185389     28.65692    5752.8844 
  168500      168.486     392.4986    16.133547   -435.82624   -419.69269   -10980.741    7782.1454    2927.2787   -43651.646    15.225209    13.185391    28.656903    5752.8826 
  169000      168.986     413.2798    16.987753    -436.6551   -419.66735   -11336.382    9670.1544   -428.37797   -43250.921    15.225211    13.185393    28.656885    5752.8809 
  169500      169.486     374.5026    15.393827   -435.03536   -419.64154   -9461.8057    10140.006     2753.939   -41279.363    15.225214    13.185395    28.656868    5752.8792 
  170000      169.986    391.49148     16.09215   -435.70924   -419.61709   -9422.3964    12523.265    238.60465   -41029.059    15.225216    13.185397     28.65685    5752.8775 
  170500      170.486    380.10981     15.62431   -435.21567   -419.59136   -10876.517    10972.102   -1649.4128   -41952.242    15.225218    13.185399    28.656833    5752.8758 
  171000      170.986    411.21176    16.902747    -436.4691   -419.56635   -11301.321    8327.9645    1363.0393   -43594.968    15.225221    13.185401    28.656815    5752.8741 
  171500      171.486    419.43033    17.240569   -436.78156   -419.54099   -11668.025    6570.2475   -14.241976   -41560.079    15.225223    13.185403    28.656798    5752.8724 
  172000      171.986    404.94083    16.644982   -436.16068    -419.5157   -11269.138    10171.374    553.06626   -44531.855    15.225226    13.185405     28.65678    5752.8707 
  172500      172.486    397.69798    16.347266   -435.83683   -419.48957   -10150.085    10043.123    3259.5444   -43752.923    15.225228    13.185407    28.656763     5752.869 
  173000      172.986    410.07295    16.855936   -436.31958   -419.46364   -11411.357    8849.1219    272.17144   -43355.365     15.22523    13.185409    28.656745    5752.8672 
  173500      173.486     386.1955     15.87446   -435.31299   -419.43853   -10560.935    11247.237    411.51882   -43341.562    15.225233    13.185411    28.656728    5752.8655 
  174000      173.986    401.68609    16.511197   -435.92465   -419.41346   -9227.0514    9174.6014    4446.0329   -41301.789    15.225235    13.185413     28.65671    5752.8638 
  174500      174.486    387.12144    15.912521   -435.30029   -419.38777   -9392.6849     11467.72    2898.9947    -42544.77    15.225238    13.185415    28.656693    5752.8621 
  175000      174.986    391.63997    16.098254   -435.46061   -419.36235   -11699.942     8460.405   -2116.9786   -41443.252     15.22524    13.185417    28.656675    5752.8604 
  175500      175.486    409.37063    16.827068   -436.16416    -419.3371   -9743.0808    9882.2844    4437.9345   -43549.461    15.225242    13.185419    28.656658    5752.8587 
  176000      175.986    391.74408    16.102533   -435.41356   -419.31102   -11025.053    7459.9124    741.42247   -41276.495    15.225245    13.185422     28.65664     5752.857 
  176500      176.486    393.70259    16.183037   -435.46849   -419.28546   -10330.807    11504.817   -385.54279   -42111.694    15.225247    13.185424    28.656623    5752.8553 
  177000      176.986    403.14453    16.571145     -435.831   -419.25985   -10582.679    9935.4813    1500.4828   -43184.001     15.22525    13.185426    28.656605    5752.8535 
  177500      177.486    405.46693    16.666607   -435.90116   -419.23456   -9375.2132    9624.1527    3296.7492   -41046.542    15.225252    13.185428    28.656588    5752.8518 
  178000      177.986    392.04366    16.114847   -435.32318   -419.20834   -9479.5972    10154.615    2404.9905   -40998.397    15.225254     13.18543     28.65657    5752.8501 
  178500      178.486    399.03551    16.402246   -435.58485    -419.1826   -11140.798    9396.0519    2310.5228   -45128.969    15.225257    13.185432    28.656553    5752.8484 
  179000      178.986    412.71804    16.964662    -436.1213   -419.15664    -10420.15    10585.722    1209.3662   -43055.538    15.225259    13.185434    28.656535    5752.8467 
  179500      179.486     393.0334     16.15553   -435.28667   -419.13114   -10565.338    11987.176   -2574.9179   -41108.272    15.225262    13.185436    28.656518     5752.845 
  180000      179.986    407.89745    16.766513   -435.87226   -419.10575   -10683.458    9665.0782    672.43377   -42387.887    15.225264    13.185438      28.6565    5752.8433 
  180500      180.486    408.25643    16.781269   -435.86123   -419.07996   -10803.839    9477.4254    1998.6049   -43887.549    15.225266     13.18544    28.656483    5752.8416 
  181000      180.986      403.773    16.596979   -435.65073   -419.05375   -10430.704     9618.497    273.86095    -41184.47    15.225269    13.185442    28.656465    5752.8399 
  181500      181.486    418.15934    17.188325   -436.21725   -419.02893    -10890.52    7969.0491   -793.33967   -39847.269    15.225271    13.185444    28.656448    5752.8381 
  182000      181.986    433.87819    17.834444   -436.83729   -419.00284   -10591.916    9707.5793    1832.8852   -43316.212    15.225274    13.185446     28.65643    5752.8364 
  182500      182.486    377.57003    15.519912   -434.49539   -418.97548   -10589.451    13144.408    220.16363   -45132.924    15.225276    13.185448    28.656413    5752.8347 
  183000      182.986    386.83887    15.900906   -434.85031    -418.9494   -10087.471    9891.8599    3172.0917   -43326.363    15.225278     13.18545    28.656395     5752.833 
  183500      183.486    412.63392    16.961204   -435.88422   -418.92302   -8964.7132    12234.812    326.38549   -39455.337    15.225281    13.185452    28.656378    5752.8313 
  184000      183.986    405.00971    16.647813   -435.54482   -418.89701   -9554.8367    9810.7404    2074.1625   -40549.413    15.225283    13.185454     28.65636    5752.8296 
  184500      184.486    403.57506    16.588843   -435.46055   -418.87171   -9764.2221    10232.491    1616.8326   -41141.989    15.225286    13.185456    28.656343    5752.8279 
  185000      184.986    399.50429    16.421514   -435.26714   -418.84563   -9693.1809    10588.515    1056.6532   -40724.711    15.225288    13.185458    28.656325    5752.8262 
  185500      185.486    407.34212    16.743686    -435.5633   -418.81961   -9740.7474    10563.178   -264.24982    -39521.17     15.22529     13.18546    28.656308    5752.8244 
  186000      185.986      409.447    16.830207   -435.62451   -418.79431    -10208.74    9924.3756    2886.5251   -43437.122    15.225293    13.185463     28.65629    5752.8227 
  186500      186.486    390.30539    16.043396    -434.8107    -418.7673   -10326.565     10355.21    3314.0152   -44648.921    15.225295    13.185465    28.656273     5752.821 
  187000      186.986    399.47967    16.420502   -435.16183   -418.74132   -9626.6137    9806.8559    769.32457   -39456.021    15.225298    13.185467    28.656255    5752.8193 
  187500      187.486     409.0369     16.81335   -435.52816   -418.71481   -10487.664    9495.5362    2500.6447   -43459.172      15.2253    13.185469    28.656238    5752.8176 
  188000      187.986    399.92173    16.438673   -435.12765   -418.68898   -10877.121    10019.809    830.54724    -43481.72    15.225302    13.185471     28.65622    5752.8159 
  188500      188.486    430.67395    17.702735   -436.36599   -418.66326   -11567.133     8490.635     495.2106   -43687.245    15.225305    13.185473    28.656203    5752.8142 
  189000      188.986    422.34978    17.360572   -435.99685   -418.63628   -10286.693    10651.111    1459.5376   -42970.727    15.225307    13.185475    28.656185    5752.8125 
  189500      189.486     400.7893    16.474334   -435.08429   -418.60995   -9066.2495    9858.8227     3222.813   -40280.384     15.22531    13.185477    28.656168    5752.8107 
  190000      189.986    428.05198    17.594959    -436.1796   -418.58465   -10060.069    9380.8517    3060.8375   -42621.895    15.225312    13.185479     28.65615     5752.809 
  190500      190.486    415.82283    17.092284   -435.65022   -418.55794   -12445.882    8607.2731    -139.3802   -45805.538    15.225314    13.185481    28.656133    5752.8073 
  191000      190.986    411.54114    16.916286   -435.44803   -418.53175   -10263.035    11676.461    1177.6949   -43643.262    15.225317    13.185483    28.656115    5752.8056 
  191500      191.486    411.64971    16.920749   -435.42599   -418.50524   -10577.328    9822.4342    1394.6632   -42949.081    15.225319    13.185485    28.656098    5752.8039 
  192000      191.986    408.86877    16.806439   -435.28544     -418.479   -11450.543    7020.7118    1453.1044   -42825.445    15.225322    13.185487     28.65608    5752.8022 
  192500      192.486    406.60535    16.713402    -435.1656    -418.4522    -10480.03    11697.303   -761.91311   -42375.479    15.225324    13.185489    28.656063    5752.8005 
  193000      192.986    428.41619     17.60993    -436.0364   -418.42647   -10307.623    10180.122     314.9614   -41417.954    15.225326    13.185491    28.656045    5752.7988 
  193500      193.486    389.42321    16.007135   -434.40675   -418.39962   -8255.6132    11278.907    5924.4398   -41970.187    15.225329    13.185493    28.656028    5752.7971 
  194000      193.986    387.82953    15.941627   -434.31471   -418.37308   -10316.268    11134.289   -1324.6636   -40758.428    15.225331    13.185495     28.65601    5752.7953 
  194500      194.486    406.05703    16.690863   -435.03765   -418.34678   -10424.034     9568.436    1004.6764   -41845.213    15.225334    13.185497    28.655993    5752.7936 
  195000      194.986    380.89727    15.656678   -433.97745   -418.32077   -8909.3103    11901.824    2284.5246    -40914.28    15.225336    13.185499    28.655975    5752.7919 
  195500      195.486    426.78272    17.542787   -435.83765   -418.29486   -10740.362    8941.2728    1088.4954   -42250.853    15.225338    13.185501    28.655958    5752.7902 
  196000      195.986    383.86149    15.778522   -434.04616   -418.26764   -8760.1834    10923.559    1952.7954   -39156.905    15.225341    13.185504     28.65594    5752.7885 
  196500      196.486    411.47856    16.913714   -435.15516   -418.24144   -9872.6986    10201.159    3643.6005   -43462.856    15.225343    13.185506    28.655923    5752.7868 
  197000      196.986    433.86806    17.834028   -436.04985   -418.21582   -10463.339    10104.008    680.39794   -42174.423    15.225346    13.185508    28.655905    5752.7851 
  197500      197.486     420.5887    17.288183    -435.4763   -418.18811   -11239.673    8572.3484    2014.2451   -44305.613    15.225348     13.18551    28.655888    5752.7834 
  198000      197.986    404.93884      16.6449    -434.8062    -418.1613   -10493.891    10619.731    3782.7416   -45884.146     15.22535    13.185512     28.65587    5752.7816 
  198500      198.486      409.272    16.823014   -434.95816   -418.13515   -9516.8947    10792.233    385.79029   -39728.707    15.225353    13.185514    28.655853    5752.7799 
  199000      198.986    394.57185    16.218768   -434.32658   -418.10781   -9822.2378    8887.3914    2827.5028   -41181.608    15.225355    13.185516    28.655835    5752.7782 
  199500      199.486    412.67147    16.962748    -435.0446   -418.08185   -10115.221    9182.5093    980.96882   -40509.142    15.225358    13.185518    28.655818    5752.7765 
  200000      199.986     449.8709     18.49182   -436.54728   -418.05546   -9013.3781    10191.729    2703.9229   -39935.786     15.22536     13.18552      28.6558    5752.7748 
  200500      200.486    394.85067    16.230229   -434.25853   -418.02831   -9176.2998    9581.7973    1332.8137    -38443.51    15.225362    13.185522    28.655783    5752.7731 
  201000      200.986    436.58658    17.945772   -435.94763   -418.00186   -10297.366    9691.6316    1033.7775   -41617.506    15.225365    13.185524    28.655765    5752.7714 
  201500      201.486    408.71459    16.800101   -434.77494   -417.97484   -11282.746    7488.8679    744.10266   -42081.207    15.225367    13.185526    28.655748    5752.7697 
  202000      201.986     389.7011    16.018557   -433.96603   -417.94748    -9017.345    11986.179    3145.5377   -42183.751     15.22537    13.185528     28.65573    5752.7679 
  202500      202.486    424.34326    17.442513   -435.36382   -417.92131   -8442.9541     10217.97    2379.8556   -37926.688    15.225372     13.18553    28.655713    5752.7662 
  203000      202.986    424.26973    17.439491   -435.33447   -417.89498   -10220.049    9453.8741    1158.4427   -41272.463    15.225374    13.185532    28.655695    5752.7645 
  203500      203.486    428.79281    17.625411   -435.49351    -417.8681   -9999.4872    10344.496    2054.7761   -42397.734    15.225377    13.185534    28.655678    5752.7628 
  204000      203.986    451.62455    18.563903   -436.40534   -417.84144   -9215.9165    10819.067    1753.2626   -40220.079    15.225379    13.185536     28.65566    5752.7611 
  204500      204.486    429.62151    17.659475   -435.47376   -417.81428   -8558.8423    11262.008    2834.6817   -39773.216    15.225382    13.185538    28.655643    5752.7594 
  205000      204.986    424.35703    17.443079   -435.23097    -417.7879   -10776.496    10568.184   -1650.3478   -41247.324    15.225384     13.18554    28.655625    5752.7577 
  205500      205.486    425.69231    17.497966   -435.25927    -417.7613    -10416.76    9329.3019    2008.2448   -42587.826    15.225386    13.185542    28.655608     5752.756 
  206000      205.986     431.9064    17.753394    -435.4872    -417.7338   -8968.5352    9943.5733    2996.5747   -39845.754    15.225389    13.185545     28.65559    5752.7543 
  206500      206.486    429.36653    17.648993   -435.35577   -417.70678   -10728.064    8470.9129    1258.9418   -41914.046    15.225391    13.185547    28.655573    5752.7525 
  207000      206.986     430.4319    17.692785   -435.37302   -417.68023   -10416.808    9885.9139    1975.1526   -43111.491    15.225394    13.185549    28.655555    5752.7508 
  207500      207.486    432.67598    17.785028   -435.43819   -417.65316   -10274.526    8747.0776   -354.74442    -39215.91    15.225396    13.185551    28.655538    5752.7491 
  208000      207.986    402.29016    16.536027   -434.16178   -417.62575   -9780.1445    12579.561     1000.842   -42920.836    15.225398    13.185553     28.65552    5752.7474 
  208500      208.486    424.26756    17.439402   -435.03827   -417.59887   -10733.046    6894.3317      3392.24   -42485.711    15.225401    13.185555    28.655503    5752.7457 
  209000      208.986     427.5351    17.573713    -435.1452   -417.57149   -8777.7807    9168.8937    5439.5075   -40941.743    15.225403    13.185557    28.655485     5752.744 
  209500      209.486    423.88378    17.423627   -434.96814   -417.54451   -9353.1337    10752.602    1263.8813   -40075.885    15.225406    13.185559    28.655468    5752.7423 
  210000      209.986     430.0385    17.676615   -435.19406   -417.51744   -10643.402    11743.597   -982.68914   -42691.114    15.225408    13.185561     28.65545    5752.7406 
  210500      210.486    415.96653     17.09819   -434.58829    -417.4901   -10156.887    8921.3674    3869.6381   -43261.666     15.22541    13.185563    28.655433    5752.7388 
  211000      210.986    423.34303    17.401399    -434.8643    -417.4629   -10285.007    8438.1963    1730.2712   -41023.487    15.225413    13.185565    28.655415    5752.7371 
  211500      211.486    425.65655    17.496496   -434.93166   -417.43516   -9519.5279    12156.636    3725.6665   -44440.886    15.225415    13.185567    28.655398    5752.7354 
  212000      211.986     406.9399    16.727153   -434.13538   -417.40823   -9518.7944    10816.049    4295.4347   -43667.866    15.225418    13.185569     28.65538    5752.7337 
[...]
  948500      948.486    582.75078    23.953811   -430.16514   -406.21133    -4774.254      12244.7    2910.9501   -29478.412    15.228953    13.188589    28.629603    5750.2098 
  949000      948.986    564.35941    23.197839   -429.40426   -406.20642   -4541.7752    14060.212    10635.378   -38320.915    15.228955    13.188591    28.629585    5750.2081 
  949500      949.486    574.68158    23.622129   -429.82587   -406.20374   -4271.9829    13457.233    10297.934   -36571.116    15.228958    13.188593    28.629568    5750.2064 
  950000      949.986    563.10523    23.146286   -429.34517   -406.19888   -3923.5664    14545.084    7235.9297   -33551.712     15.22896    13.188595     28.62955    5750.2047 
  950500      950.486    548.73281    22.555512   -428.75004   -406.19453   -4882.4513    12165.676    8570.0239   -35383.054    15.228962    13.188597    28.629533     5750.203 
  951000      950.986    545.29849    22.414345   -428.60639   -406.19204   -4809.9902    13932.573    7131.4693   -35494.012    15.228965    13.188599    28.629515    5750.2012 
  951500      951.486    588.79859    24.202405    -430.3934   -406.19099   -4269.9928    11471.207     9488.096   -33769.282    15.228967    13.188601    28.629498    5750.1995 
  952000      951.986    565.62553    23.249883   -429.43597   -406.18609   -2053.7636    13219.704    11301.174   -30682.169     15.22897    13.188603     28.62948    5750.1978 
  952500      952.486    568.49827    23.367966   -429.54958   -406.18162   -4623.0825    12440.886    10420.821   -36730.955    15.228972    13.188605    28.629463    5750.1961 
  953000      952.986    571.86006    23.506151   -429.68418   -406.17803   -5700.0858    13084.789    9074.2121   -39259.259    15.228974    13.188607    28.629445    5750.1944 
  953500      953.486    590.80372    24.284825   -430.45842   -406.17359   -6241.0078    11834.304    5844.2201   -36401.548    15.228977    13.188609    28.629428    5750.1927 
  954000      953.986    543.73836    22.350216   -428.51738   -406.16716   -3483.9581     15199.99    10791.537   -36443.401    15.228979    13.188611     28.62941     5750.191 
  954500      954.486    567.80106    23.339307   -429.50274   -406.16343   -3845.6907    12690.659    10639.618   -34867.349    15.228982    13.188613    28.629393    5750.1892 
  955000      954.986    568.85939    23.382809   -429.54069   -406.15789   -4237.7641    13690.086    11316.105   -37719.483    15.228984    13.188615    28.629375    5750.1875 
  955500      955.486    573.14057    23.558786   -429.71279     -406.154   -4754.7486    9105.7698    11090.298   -34460.313    15.228986    13.188617    28.629358    5750.1858 
  956000      955.986    559.68094    23.005532   -429.15491   -406.14938   -5471.9782    7403.5816    14474.635   -38294.151    15.228989     13.18862     28.62934    5750.1841 
  956500      956.486    575.32422    23.648545   -429.79325   -406.14471   -5819.8931     13732.74    8436.9974   -39629.416    15.228991    13.188622    28.629323    5750.1824 
  957000      956.986    551.32405    22.662024   -428.80219   -406.14016   -4094.9315    9777.9387    10409.402   -32472.135    15.228994    13.188624    28.629305    5750.1807 
  957500      957.486    578.86035    23.793896   -429.93005   -406.13615   -4334.7801    10746.706    10529.679   -34280.725    15.228996    13.188626    28.629288     5750.179 
  958000      957.986    570.54168    23.451959   -429.58328   -406.13132   -3530.7989    12694.075    10826.899    -34113.37    15.228998    13.188628     28.62927    5750.1772 
  958500      958.486    572.56603     23.53517   -429.66309   -406.12792   -4187.3405    9594.9495    8775.9032   -30932.874    15.229001     13.18863    28.629253    5750.1755 
  959000      958.986    574.97014     23.63399    -429.7573   -406.12331   -4459.4656    13179.603    10595.084   -37153.084    15.229003    13.188632    28.629235    5750.1738 
  959500      959.486    598.57506    24.604264   -430.72485   -406.12059   -5308.4399    8813.5642    10868.563   -35607.447    15.229006    13.188634    28.629218    5750.1721 
  960000      959.986    603.40527    24.802809   -430.91815   -406.11534   -5517.7788    9682.6379    12400.847   -38636.822    15.229008    13.188636      28.6292    5750.1704 
  960500      960.486    552.52649     22.71145   -428.82219   -406.11074   -5481.3794    9830.5174    12441.327   -38715.983     15.22901    13.188638    28.629183    5750.1687 
  961000      960.986    585.44104    24.064394   -430.17154   -406.10715   -5082.9753      11684.3    10677.517   -37610.743    15.229013     13.18864    28.629165    5750.1669 
  961500      961.486    535.88422    22.027374   -428.12921   -406.10184   -3773.9973    11095.988    10457.334   -32875.314    15.229015    13.188642    28.629148    5750.1652 
  962000      961.986     568.7722    23.379225   -429.47585   -406.09663   -5354.7192    11881.983    8661.4712   -36607.612    15.229018    13.188644     28.62913    5750.1635 
  962500      962.486    552.61532    22.715101   -428.80675   -406.09165   -4609.4925    14170.731    13996.835   -41996.044     15.22902    13.188646    28.629113    5750.1618 
  963000      962.986    588.96726    24.209338   -430.29674    -406.0874   -4492.2674    12847.725    6789.0167   -33113.544    15.229022    13.188648    28.629095    5750.1601 
  963500      963.486    569.71418    23.417945   -429.50031   -406.08236   -4221.2442     11954.12    9551.1495   -34169.002    15.229025     13.18865    28.629078    5750.1584 
  964000      963.986    547.25086    22.494597   -428.56898   -406.07439   -4310.1007    13691.601    12359.473   -38981.377    15.229027    13.188652     28.62906    5750.1567 
  964500      964.486    584.52281     24.02665   -430.09666   -406.07001   -4007.9913    12644.396    13002.193   -37670.563     15.22903    13.188654    28.629043    5750.1549 
  965000      964.986    552.71816    22.719329   -428.78437   -406.06505   -3806.4762    10293.609     13648.52   -35361.558    15.229032    13.188656    28.629025    5750.1532 
  965500      965.486    579.67812     23.82751   -429.88707   -406.05956   -4277.9733    13044.587    12351.726   -38230.234    15.229034    13.188658    28.629008    5750.1515 
  966000      965.986    547.46581    22.503432   -428.55806   -406.05462    -4227.811    9004.1069     16642.22    -38329.76    15.229037    13.188661     28.62899    5750.1498 
  966500      966.486     592.0056    24.334228   -430.38372   -406.04949    -4033.418      11127.3     14554.83   -37782.384    15.229039    13.188663    28.628973    5750.1481 
  967000      966.986    568.62014    23.372975   -429.41611   -406.04313   -4320.8326    12042.533    12658.799    -37663.83    15.229042    13.188665    28.628955    5750.1464 
  967500      967.486    569.48444    23.408502   -429.44532   -406.03682   -5199.1194    13840.016    10143.029   -39580.403    15.229044    13.188667    28.628938    5750.1447 
  968000      967.986    576.08647    23.679877   -429.71048    -406.0306   -4031.3601    10437.052    9936.5719   -32467.704    15.229046    13.188669     28.62892    5750.1429 
  968500      968.486    560.11243    23.023268   -429.04841   -406.02515   -5940.7462    6502.6554    12367.017   -36691.912    15.229049    13.188671    28.628903    5750.1412 
  969000      968.986    599.21882    24.630725   -430.65066   -406.01994   -5007.6689    10378.331    10575.217   -35976.555    15.229051    13.188673    28.628885    5750.1395 
  969500      969.486    614.15491    25.244669   -431.25956   -406.01489   -4296.9562    9584.4554    9279.5901   -31754.914    15.229054    13.188675    28.628868    5750.1378 
  970000      969.986    579.78924    23.832078   -429.84016   -406.00808   -4355.7202    10358.025    10895.737   -34320.923    15.229056    13.188677     28.62885    5750.1361 
  970500      970.486    579.58275     23.82359   -429.82609    -406.0025    -4764.577     9265.134    13516.821   -37075.686    15.229058    13.188679    28.628833    5750.1344 
  971000      970.986    565.40313    23.240741   -429.23555   -405.99481   -4149.3434     14595.72    9847.9343   -36891.684    15.229061    13.188681    28.628815    5750.1326 
  971500      971.486    578.09806    23.762562   -429.75177   -405.98921   -4853.8833    13807.376    11565.446   -39934.471    15.229063    13.188683    28.628798    5750.1309 
  972000      971.986    557.66604     22.92271   -428.90637   -405.98366   -3440.3727    12976.925    13441.957       -36740    15.229066    13.188685     28.62878    5750.1292 
  972500      972.486    594.59406    24.440626   -430.41757   -405.97695   -6284.0417    10888.867    11052.398    -40793.39    15.229068    13.188687    28.628763    5750.1275 
  973000      972.986      594.762    24.447529   -430.41822   -405.97069   -5917.6958    7756.1484    13142.597   -38651.833     15.22907    13.188689    28.628745    5750.1258 
  973500      973.486    582.36848    23.938097   -429.90274   -405.96465   -5783.3343    10321.127    9675.3676   -37346.498    15.229073    13.188691    28.628728    5750.1241 
  974000      973.986    579.87029     23.83541   -429.79448   -405.95907   -4097.1206    9632.0394    12421.744   -34345.145    15.229075    13.188693     28.62871    5750.1224 
  974500      974.486    564.92423    23.221056    -429.1726   -405.95154   -4614.8851    10727.216    9358.7347   -33930.606    15.229078    13.188695    28.628693    5750.1206 
  975000      974.986    556.27947    22.865715   -428.81031   -405.94459   -5613.5938    7191.5587    12747.923   -36780.263     15.22908    13.188697    28.628675    5750.1189 
  975500      975.486    545.09207     22.40586   -428.34475   -405.93889   -3732.8832    10307.603    12821.728    -34327.98    15.229082    13.188699    28.628658    5750.1172 
  976000      975.986    576.34201     23.69038   -429.62406   -405.93368   -4539.4251    11220.768    9780.2724   -34619.316    15.229085    13.188702     28.62864    5750.1155 
  976500      976.486    544.64023    22.387288    -428.3143   -405.92702   -3777.5263    12654.304    10858.721   -34845.604    15.229087    13.188704    28.628623    5750.1138 
  977000      976.986    577.33117     23.73104   -429.65092   -405.91988   -3712.1652    13815.979    11432.412   -36384.887     15.22909    13.188706    28.628605    5750.1121 
  977500      977.486    568.03978     23.34912   -429.26301   -405.91389   -4743.5738    10431.534     13085.37   -37747.626    15.229092    13.188708    28.628588    5750.1104 
  978000      977.986    596.33328    24.512116   -430.41971   -405.90759   -6254.1343    9081.4228    10646.498   -38490.323    15.229094     13.18871     28.62857    5750.1086 
  978500      978.486    576.26687    23.687292   -429.58663   -405.89933   -3881.8579    14373.644    11437.253    -37456.47    15.229097    13.188712    28.628553    5750.1069 
  979000      978.986    555.41895    22.830344   -428.72248   -405.89213    -3860.251    13126.785    10992.636   -35700.175    15.229099    13.188714    28.628535    5750.1052 
  979500      979.486    580.45738    23.859542   -429.74607   -405.88652   -3459.2256     13271.23    11746.271   -35395.178    15.229102    13.188716    28.628518    5750.1035 
  980000      979.986     572.6129    23.537096   -429.41721   -405.88011   -3784.6743    10483.349     13719.86   -35557.232    15.229104    13.188718      28.6285    5750.1018 
  980500      980.486    566.04094    23.266958   -429.13955   -405.87259   -5377.6393    9140.7914    13710.732   -38984.441    15.229106     13.18872    28.628483    5750.1001 
  981000      980.986    563.05212    23.144103   -429.00892   -405.86481   -4630.8874    12754.672    7703.9214   -34351.255    15.229109    13.188722    28.628465    5750.0984 
  981500      981.486    585.43647    24.064206   -429.92149   -405.85729   -5077.3916    8393.6581     13099.94   -36725.773    15.229111    13.188724    28.628448    5750.0966 
  982000      981.986    592.99305    24.374817   -430.22615   -405.85134   -4542.9083    11166.757     11627.99   -36423.473    15.229114    13.188726     28.62843    5750.0949 
  982500      982.486    593.92264    24.413028   -430.25755   -405.84453   -5533.0098    11262.826    11315.243   -39177.098    15.229116    13.188728    28.628413    5750.0932 
  983000      982.986     582.7856    23.955243   -429.79184    -405.8366   -7034.8559    9096.6536    7397.5805   -37598.802    15.229118     13.18873    28.628395    5750.0915 
  983500      983.486    566.67533    23.293034   -429.12304   -405.83001   -4362.0837    12406.831    8898.8313   -34391.914    15.229121    13.188732    28.628378    5750.0898 
  984000      983.986    573.60371    23.577823   -429.40186   -405.82404   -4084.7382     12266.45    13005.119   -37525.784    15.229123    13.188734     28.62836    5750.0881 
  984500      984.486    584.24802    24.015355   -429.83143   -405.81608   -3489.4697    13185.688    13346.284   -37000.381    15.229126    13.188736    28.628343    5750.0863 
  985000      984.986    602.45303    24.763667   -430.57163   -405.80797    -4867.333    10778.694    8295.4998   -33676.193    15.229128    13.188738    28.628325    5750.0846 
  985500      985.486    589.98929    24.251348   -430.05167   -405.80032   -4861.6973    11681.622     10722.41   -36989.124     15.22913     13.18874    28.628308    5750.0829 
  986000      985.986    570.94919     23.46871   -429.26134   -405.79263   -4827.0004    10751.955    9740.2239    -34973.18    15.229133    13.188743     28.62829    5750.0812 
  986500      986.486    580.81749    23.874344   -429.65833   -405.78399   -6420.8796      10725.6    13571.991    -43560.23    15.229135    13.188745    28.628273    5750.0795 
  987000      986.986    580.99916    23.881811    -429.6583   -405.77649   -4315.2599    8863.8822    14284.631   -36094.292    15.229138    13.188747    28.628255    5750.0778 
  987500      987.486    605.25471    24.878829   -430.64871   -405.76988   -5132.0103    8613.9026    11389.523   -35399.456     15.22914    13.188749    28.628238    5750.0761 
  988000      987.986    580.40105    23.857226   -429.61833   -405.76111      -3601.8    12112.328    11896.155   -34813.883    15.229142    13.188751     28.62822    5750.0743 
  988500      988.486    579.17513    23.806835   -429.55927   -405.75243   -4414.1409    11893.751    11505.352   -36641.526    15.229145    13.188753    28.628203    5750.0726 
  989000      988.986    566.05785    23.267653   -429.01224   -405.74458   -4687.0647    11063.166    10479.199    -35603.56    15.229147    13.188755    28.628185    5750.0709 
  989500      989.486    565.04621     23.22607   -428.96193   -405.73586   -4188.4884    8286.4795    11578.279   -32430.223     15.22915    13.188757    28.628168    5750.0692 
  990000      989.986    568.32243    23.360738   -429.08887   -405.72814   -3162.5529    9951.2318    14350.457   -33789.347    15.229152    13.188759     28.62815    5750.0675 
  990500      990.486    601.75162    24.734836   -430.45732   -405.72248   -4363.7259    15914.043    12368.694   -41373.914    15.229154    13.188761    28.628133    5750.0658 
  991000      990.986    580.57982    23.864575   -429.57867   -405.71409   -3771.6195    16898.335    11641.249   -39854.442    15.229157    13.188763    28.628115    5750.0641 
  991500      991.486    550.46796    22.626835   -428.33273   -405.70589   -3702.2172    14498.002    14844.921   -40449.574    15.229159    13.188765    28.628098    5750.0623 
  992000      991.986    590.31596    24.264776   -429.96265   -405.69788   -5605.4671    8529.1096    12968.693   -38314.204    15.229162    13.188767     28.62808    5750.0606 
  992500      992.486    585.30094    24.058635   -429.74808   -405.68944   -5221.5036    10388.897    11098.105   -37151.513    15.229164    13.188769    28.628063    5750.0589 
  993000      992.986    557.38768    22.911268   -428.59199   -405.68072   -4340.9555    11126.861    9925.6984   -34075.426    15.229166    13.188771    28.628045    5750.0572 
  993500      993.486    576.42271    23.693698   -429.36767   -405.67397   -2132.0228    12978.219    14978.442   -34352.729    15.229169    13.188773    28.628028    5750.0555 
  994000      993.986    602.39685    24.761358   -430.42726    -405.6659   -5256.3585    11912.852    8498.6328    -36180.56    15.229171    13.188775     28.62801    5750.0538 
  994500      994.486    575.32604    23.648619   -429.30609   -405.65747     -5256.27    9788.2332    11261.844   -36818.887    15.229174    13.188777    28.627993     5750.052 
  995000      994.986     563.2659    23.152891   -428.80179    -405.6489   -4650.8181    11221.554    10221.076   -35395.084    15.229176    13.188779    28.627975    5750.0503 
  995500      995.486     593.9154     24.41273    -430.0531   -405.64037   -3841.2498    11006.292    10259.042   -32789.083    15.229178    13.188781    28.627958    5750.0486 
  996000      995.986    561.15995    23.066326   -428.69796   -405.63163   -4820.2978    14279.326    9675.9245   -38416.144    15.229181    13.188784     28.62794    5750.0469 
  996500      996.486    587.86439    24.164005   -429.78838   -405.62438   -3948.2606    11838.707    10815.772   -34499.261    15.229183    13.188786    28.627923    5750.0452 
  997000      996.986    567.25199    23.316738   -428.93237   -405.61564   -4776.4543    7334.6985    9731.8156   -31395.877    15.229186    13.188788    28.627905    5750.0435 
  997500      997.486    598.67882    24.608529   -430.21595   -405.60742   -5038.5443     11886.62    12379.803   -39382.056    15.229188     13.18879    28.627888    5750.0418 
  998000      997.986    535.94045    22.029685   -427.62825   -405.59856   -2740.8097    12706.335    12895.794   -33824.559     15.22919    13.188792     28.62787      5750.04 
  998500      998.486    553.08856    22.734554     -428.326   -405.59145   -4862.7869    12433.149    9773.5424   -36795.053    15.229193    13.188794    28.627853    5750.0383 
  999000      998.986    527.19007    21.670003   -427.25161    -405.5816   -3454.0772    8533.1663    14715.206   -33610.604    15.229195    13.188796    28.627835    5750.0366 
  999500      999.486     569.0292    23.389789   -428.96426   -405.57447   -5174.7207    7361.5103    16798.652   -39684.324    15.229198    13.188798    28.627818    5750.0349 
 1000000      999.986    555.57806    22.836884   -428.40128   -405.56439   -5362.5591    4918.0135    14795.021   -35800.712      15.2292      13.1888      28.6278    5750.0332 
 1000014         1000    551.11047    22.653245   -428.21711   -405.56387   -4858.7661    7429.7472    13285.552   -35291.598      15.2292      13.1888      28.6278    5750.0331 
Loop time of 884.124 on 28 procs for 1000000 steps with 319 atoms

Performance: 97.724 ns/day, 0.246 hours/ns, 1131.063 timesteps/s
87.0% CPU use with 28 MPI tasks x no OpenMP threads

MPI task timing breakdown:
Section |  min time  |  avg time  |  max time  |%varavg| %total
---------------------------------------------------------------
Pair    | 739.43     | 765.25     | 800.53     |  57.0 | 86.56
Neigh   | 0.030887   | 0.045489   | 0.059777   |   3.6 |  0.01
Comm    | 70.357     | 105.06     | 126.46     | 144.2 | 11.88
Output  | 0.10231    | 0.10465    | 0.12688    |   1.4 |  0.01
Modify  | 4.8801     | 8.5313     | 13.08      |  84.7 |  0.96
Other   |            | 5.133      |            |       |  0.58

Nlocal:    11.3929 ave 15 max 6 min
Histogram: 1 0 4 4 2 3 1 5 5 3
Nghost:    644.786 ave 704 max 592 min
Histogram: 5 2 3 3 2 2 3 2 2 4
Neighs:    690.964 ave 918 max 360 min
Histogram: 1 3 2 3 4 1 2 2 4 6
FullNghs:  1381.93 ave 1866 max 723 min
Histogram: 1 3 1 5 1 3 1 5 5 3

Total # of neighbors = 38694
Ave neighs/atom = 121.298
Neighbor list builds = 671
Dangerous builds = 0

write_restart   POSCAR_1x1x1.rest

#unfix    1
#undump   1
Total wall time: 0:14:44
