LAMMPS (7 Dec 2015)
#----------- Initialize Simulation ------------ restart01
#processors	2 2 2
units		metal
boundary	p p p     ## periodic boundary condition  on x y z axis ##
atom_style atomic
#atom_modify map array sort 0 0.0

read_data	POSCAR_1x1x1.lammps
  triclinic box = (0 0 0) to (15.291 13.2424 28.173) with tilt (-7.6454 0 0)
  2 by 2 by 7 MPI processor grid
  reading atoms ...
  319 atoms

#----------- Define Potential -----------------
pair_style meam
pair_coeff * * MgAlZn.library.meam Mg Al Zn MgAlZn.parameter.meam Mg Al Zn 	#1=Mg 2=Al 3=Zn	#atoms/mass

#----------- Neighbor List --------------------
neighbor 2.0 bin
neigh_modify delay 10 check yes

#--------------  Run a simulation (minimization) ---------------------------------------
minimize       1.0e-4   1.0e-6   100   1000          #結構優化的條件
WARNING: Resetting reneighboring criteria during minimization (../min.cpp:168)
Neighbor list info ...
  2 neighbor list requests
  update every 1 steps, delay 0 steps, check yes
  max neighbors/atom: 2000, page size: 100000
  master list distance cutoff = 8
  ghost atom cutoff = 8
  binsize = 4 -> bins = 6 4 8
Memory usage per processor = 8.64695 Mbytes
Step Temp E_pair E_mol TotEng Press 
       0            0   -433.72172            0   -433.72172   -9410.0232 
      13            0   -453.97207            0   -453.97207   -23424.769 
Loop time of 0.0210691 on 28 procs for 13 steps with 319 atoms

88.9% CPU use with 28 MPI tasks x no OpenMP threads

Minimization stats:
  Stopping criterion = energy tolerance
  Energy initial, next-to-last, final = 
        -433.721720439     -453.937070827     -453.972069963
  Force two-norm initial, final = 18.1037 0.753134
  Force max component initial, final = 1.92196 0.144273
  Final line search alpha, max atom move = 0.478498 0.0690342
  Iterations, force evaluations = 13 23

MPI task timing breakdown:
Section |  min time  |  avg time  |  max time  |%varavg| %total
---------------------------------------------------------------
Pair    | 0.016746   | 0.017725   | 0.019035   |   0.4 | 84.13
Neigh   | 0          | 0          | 0          |   0.0 |  0.00
Comm    | 0.0011748  | 0.0023922  | 0.0034164  |   1.1 | 11.35
Output  | 0          | 0          | 0          |   0.0 |  0.00
Modify  | 0          | 0          | 0          |   0.0 |  0.00
Other   |            | 0.000952   |            |       |  4.52

Nlocal:    11.3929 ave 16 max 6 min
Histogram: 1 1 4 0 4 2 6 4 3 3
Nghost:    649.857 ave 706 max 595 min
Histogram: 6 2 1 1 2 2 5 4 2 3
Neighs:    697.036 ave 961 max 341 min
Histogram: 1 1 4 2 2 5 3 3 4 3
FullNghs:  1394.07 ave 2024 max 728 min
Histogram: 2 4 0 4 2 6 2 5 2 1

Total # of neighbors = 39034
Ave neighs/atom = 122.364
Neighbor list builds = 0
Dangerous builds = 0
velocity all  create 600.0 4928459 #rot yes dist gaussian

#--------------  Run a simulation (Relaxation)  ----------------------------------------
fix  1  all  nvt   temp  600.0  600.0  100				#damping constant
#fix  2  all  npt   temp  393.0  393.0  50 iso 0.0 0.0 1000.0
fix  2  all deform 1 x final 0 15.2958 y final 0 13.2465 z final 0 28.138 xy final -7.6478 units lattice
#fix  3  all  npt   temp  393.0  393.0  50 z 0.0 0.0 1000.0

#variable b equal 1
#fix 2 all efield  0.0  0.0  v_b
#compute pot all pe/atom


#----------- Output --------------------------
thermo	 500
timestep  0.001		#1.0 fs
thermo_style	custom step time temp ke pe etotal press pxx pyy pzz lx ly lz vol

dump 1 all custom 10000 dump.eq id type x y z
dump_modify 1 sort  id

run        1000000	#1000 ps
Neighbor list info ...
  2 neighbor list requests
  update every 1 steps, delay 10 steps, check yes
  max neighbors/atom: 2000, page size: 100000
  master list distance cutoff = 8
  ghost atom cutoff = 8
  binsize = 4 -> bins = 6 4 8
Memory usage per processor = 7.55289 Mbytes
Step Time Temp KinEng PotEng TotEng Press Pxx Pyy Pzz Lx Ly Lz Volume 
      13            0          600    24.662836   -453.97207   -429.30923   -18807.061   -7851.8903   -7243.6619   -41325.632       15.291      13.2424       28.173    5704.7378 
     500        0.487    325.21174    13.367739   -442.67346   -429.30572   -11560.583   -874.52071    912.86321   -34720.093    15.291002    13.242402    28.172983     5704.736 
    1000        0.987    314.53821    12.929007   -442.23413   -429.30512    -12617.84    137.46614   -521.22072   -37469.766    15.291005    13.242404    28.172965    5704.7343 
    1500        1.487    302.93197    12.451936   -441.75621   -429.30428   -11012.387    580.74805    1874.7438   -35492.654    15.291007    13.242406    28.172948    5704.7325 
    2000        1.987    299.71799    12.319826   -441.62254   -429.30271   -11247.921   -1250.6795    1914.2337   -34407.316     15.29101    13.242408     28.17293    5704.7308 
    2500        2.487    313.00707     12.86607   -442.16783   -429.30176   -11904.679    583.47712    854.85461    -37152.37    15.291012     13.24241    28.172913     5704.729 
    3000        2.987    311.97938    12.823827   -442.12406   -429.30024   -12430.045   -1015.2139   -502.78134   -35772.138    15.291014    13.242412    28.172895    5704.7272 
    3500        3.487    314.25574    12.917396   -442.21608   -429.29869   -12001.758    655.50767   -2353.1268   -34307.655    15.291017    13.242414    28.172878    5704.7255 
    4000        3.987    306.51034    12.599024   -441.89534   -429.29632   -12661.199   -1218.3829    2131.7404   -38896.953    15.291019    13.242416     28.17286    5704.7237 
    4500        4.487    308.37997    12.675874    -441.9697   -429.29383    -12033.58   -611.54528   -2485.3452   -33003.849    15.291022    13.242418    28.172843    5704.7219 
    5000        4.987    305.68554     12.56512   -441.85613   -429.29101   -10880.469   -1561.5147   -1050.6146   -30029.279    15.291024     13.24242    28.172825    5704.7202 
    5500        5.487    302.11508    12.418357   -441.70582   -429.28746   -11778.322    600.69215     -225.615   -35710.044    15.291026    13.242422    28.172808    5704.7184 
    6000        5.987    324.66687    13.345343   -442.62974    -429.2844   -11582.174   -76.441087    351.58063    -35021.66    15.291029    13.242425     28.17279    5704.7166 
    6500        6.487    304.99685    12.536812   -441.81713   -429.28032   -11607.261   -2100.1942    2351.2481   -35072.837    15.291031    13.242427    28.172773    5704.7149 
    7000        6.987    309.55493    12.724171   -442.00068   -429.27651   -11556.044   -7.9963982   -409.80923   -34250.327    15.291034    13.242429    28.172755    5704.7131 
    7500        7.487    314.67826    12.934764   -442.20707    -429.2723   -12672.612   -662.18453    627.22301   -37982.873    15.291036    13.242431    28.172738    5704.7113 
    8000        7.987     291.0739    11.964513   -441.23149   -429.26698   -11085.734   -190.68834    2182.9082   -35249.421    15.291038    13.242433     28.17272    5704.7096 
    8500        8.487    329.64607    13.550011   -442.81252   -429.26251    -12335.49   -1590.8588   -1574.1007   -33841.511    15.291041    13.242435    28.172703    5704.7078 
    9000        8.987    297.35624    12.222747   -441.47961   -429.25687   -13107.062   -1967.2193   -2505.6235   -34848.344    15.291043    13.242437    28.172685     5704.706 
    9500        9.487    309.95558    12.740639    -441.9922   -429.25156   -12621.361   -837.44686    1402.1805   -38428.816    15.291046    13.242439    28.172668    5704.7043 
   10000        9.987     309.0559    12.703658    -441.9491   -429.24545   -12142.185   -2357.9422   -1223.2214   -32845.391    15.291048    13.242441     28.17265    5704.7025 
   10500       10.487    311.58852    12.807761   -442.04707   -429.23931   -13107.727   -1270.8054   -1801.9249    -36250.45     15.29105    13.242443    28.172633    5704.7007 
   11000       10.987    317.23144    13.039712   -442.27239   -429.23268   -11862.613   -96.730792    556.33498   -36047.442    15.291053    13.242445    28.172615     5704.699 
   11500       11.487    308.96512    12.699927   -441.92606   -429.22613   -11385.339    156.04565    2674.7376   -36986.801    15.291055    13.242447    28.172598    5704.6972 
   12000       11.987    313.29505    12.877907   -442.09666   -429.21875   -11385.573    635.93883   -1002.9234   -33789.736    15.291058    13.242449     28.17258    5704.6954 
   12500       12.487    315.70088    12.976798   -442.18809   -429.21129   -12896.884   -2122.9635    827.18925   -37394.878     15.29106    13.242451    28.172563    5704.6937 
   13000       12.987    297.70438    12.237057   -441.44045    -429.2034    -11428.98   -2035.5839    1160.4703   -33411.825    15.291062    13.242453    28.172545    5704.6919 
   13500       13.487    315.10618    12.952353   -442.14789   -429.19554   -12913.354   -1675.2626   -1200.6135   -35864.186    15.291065    13.242455    28.172528    5704.6902 
   14000       13.987    313.05916    12.868211   -442.05548   -429.18727    -11335.71   -575.52881    2474.8116   -35906.414    15.291067    13.242457     28.17251    5704.6884 
   14500       14.487    333.98858    13.728509   -442.90686   -429.17836   -12690.756   -752.01839   -1244.4678   -36075.783     15.29107    13.242459    28.172493    5704.6866 
   15000       14.987    299.18014    12.297718   -441.46667   -429.16895   -12063.043   -3096.7589    496.50006   -33588.869    15.291072    13.242461    28.172475    5704.6849 
   15500       15.487    339.38682    13.950402   -443.11078   -429.16038   -13034.109   -3192.3823   -1125.9894   -34783.954    15.291074    13.242463    28.172458    5704.6831 
   16000       15.987    312.78914    12.857112   -442.00712   -429.15001   -10513.772   -1415.8245    2815.7274    -32941.22    15.291077    13.242466     28.17244    5704.6813 
   16500       16.487    311.55508    12.806386   -441.94671   -429.14033   -12757.574    636.16948    961.11204   -39870.004    15.291079    13.242468    28.172423    5704.6796 
   17000       16.987    318.23803    13.081087   -442.21116   -429.13007    -12848.56   -1708.7772   -472.65172    -36364.25    15.291082     13.24247    28.172405    5704.6778 
   17500       17.487    332.22504    13.656019   -442.77548   -429.11946   -12260.463   -409.41991    236.68966   -36608.658    15.291084    13.242472    28.172388     5704.676 
   18000       17.987    302.45812    12.432458   -441.54095   -429.10849   -11780.649   -369.85515    406.33592   -35378.427    15.291086    13.242474     28.17237    5704.6743 
   18500       18.487    318.31924    13.084425   -442.18178   -429.09735   -11794.951   -817.54978    -1473.903     -33093.4    15.291089    13.242476    28.172353    5704.6725 
   19000       18.987    317.51762    13.051475   -442.13737    -429.0859   -13068.916   -2419.3183    96.420941   -36883.852    15.291091    13.242478    28.172335    5704.6707 
   19500       19.487    313.45159    12.884342   -441.95849   -429.07414   -12190.263    752.07288   -838.98087   -36483.882    15.291094     13.24248    28.172318     5704.669 
   20000       19.987    335.72827    13.800019   -442.86253   -429.06251   -12172.557   -2381.6249   -107.35935   -34028.685    15.291096    13.242482      28.1723    5704.6672 
   20500       20.487     289.2142     11.88807   -440.93735   -429.04928   -11981.623   -119.76563    1175.4349    -37000.54    15.291098    13.242484    28.172283    5704.6654 
   21000       20.987    333.32587    13.701269   -442.73872   -429.03745   -12237.836   -1267.8746   -2849.0786   -32596.556    15.291101    13.242486    28.172265    5704.6637 
   21500       21.487    302.81374    12.447076   -441.47136   -429.02429   -11626.783   -126.49813    1799.6638   -36553.514    15.291103    13.242488    28.172248    5704.6619 
   22000       21.987    330.25125    13.574887   -442.58658   -429.01169   -11443.225    1333.3413   -1022.4465   -34640.571    15.291106     13.24249     28.17223    5704.6601 
   22500       22.487    313.37153    12.881051   -441.87924   -428.99819   -12125.533   -173.21814    202.44394   -36405.824    15.291108    13.242492    28.172213    5704.6584 
   23000       22.987    334.02084    13.729835   -442.71468   -428.98484   -11386.462    886.17584   -740.93433   -34304.627     15.29111    13.242494    28.172195    5704.6566 
   23500       23.487    314.45278    12.925495   -441.89567   -428.97018   -12385.072   -2263.3302    266.65566   -35158.541    15.291113    13.242496    28.172178    5704.6549 
   24000       23.987    317.66625    13.057584   -442.01322   -428.95564   -12755.179   -2507.8437    434.20051   -36191.894    15.291115    13.242498     28.17216    5704.6531 
   24500       24.487    303.62044    12.480235   -441.42157   -428.94134   -11292.556    1001.8796   -519.98852   -34359.559    15.291118      13.2425    28.172143    5704.6513 
   25000       24.987    321.45247    13.213216   -442.13967   -428.92646   -11603.927   -1218.2694    2094.7635   -35688.275     15.29112    13.242502    28.172125    5704.6496 
   25500       25.487    309.80598     12.73449   -441.64609    -428.9116    -12309.06   -2000.2935    -1612.966   -33313.921    15.291122    13.242504    28.172108    5704.6478 
   26000       25.987    310.10892    12.746942    -441.6429   -428.89596   -11177.179   -118.23277    456.30786   -33869.611    15.291125    13.242507     28.17209     5704.646 
   26500       26.487    310.16602    12.749289   -441.62975   -428.88046   -11118.384    1713.0818   -908.83289     -34159.4    15.291127    13.242509    28.172073    5704.6443 
   27000       26.987    314.60306    12.931673   -441.79661   -428.86494   -12487.522   -2576.4731    1247.0177   -36133.112     15.29113    13.242511    28.172055    5704.6425 
   27500       27.487    304.31338    12.508718   -441.35766   -428.84894   -11471.985   -878.02943    259.74366    -33797.67    15.291132    13.242513    28.172038    5704.6407 
   28000       27.987    322.01617    13.236387   -442.06951   -428.83312   -13390.409   -1748.4184   -2639.3915   -35783.416    15.291134    13.242515     28.17202     5704.639 
   28500       28.487    335.05234    13.772235   -442.58924   -428.81701   -12739.311   -3255.5984     23.51201   -34985.848    15.291137    13.242517    28.172003    5704.6372 
   29000       28.987    316.81764    13.022702   -441.82246   -428.79976   -11933.497    392.55247   -118.39494   -36074.649    15.291139    13.242519    28.171985    5704.6354 
   29500       29.487    327.72575    13.471077   -442.25428    -428.7832   -11440.507    512.65111   -1063.4328   -33770.741    15.291142    13.242521    28.171968    5704.6337 
   30000       29.987    304.59821    12.520426   -441.28607   -428.76564   -12007.494   -2581.9947   -2232.9997   -31207.488    15.291144    13.242523     28.17195    5704.6319 
   30500       30.487    332.50888    13.667686   -442.41659    -428.7489   -12298.567     2079.706   -743.53609   -38231.871    15.291146    13.242525    28.171933    5704.6301 
   31000       30.987    321.83863    13.229089    -441.9605   -428.73142   -11598.021   -654.96317   -9.3301986    -34129.77    15.291149    13.242527    28.171915    5704.6284 
   31500       31.487    317.29641    13.042382   -441.75591   -428.71353   -11474.337    346.48959    1519.1866   -36288.687    15.291151    13.242529    28.171898    5704.6266 
   32000       31.987    310.65988    12.769589   -441.46533   -428.69574   -10772.885   -467.00193    1872.2689   -33723.923    15.291154    13.242531     28.17188    5704.6248 
   32500       32.487    332.05069    13.648853   -442.32659   -428.67774   -11624.255    646.83502   -1723.6072   -33795.993    15.291156    13.242533    28.171863    5704.6231 
   33000       32.987    326.89749    13.437032   -442.09688   -428.65985   -12948.795   -1130.3762    -1799.983   -35916.027    15.291158    13.242535    28.171845    5704.6213 
   33500       33.487    343.55388    14.121688   -442.76392   -428.64223   -11717.607   -1175.9682    328.07312   -34304.925    15.291161    13.242537    28.171828    5704.6195 
   34000       33.987    333.78154    13.719999   -442.34312   -428.62312   -11856.608   -81.756179   -2389.4055   -33098.662    15.291163    13.242539     28.17181    5704.6178 
   34500       34.487    320.56797    13.176858   -441.78131   -428.60445   -12420.097   -1113.2102   -2959.0806       -33188    15.291166    13.242541    28.171793     5704.616 
   35000       34.987    313.99782    12.906794   -441.49296   -428.58617   -11643.842    423.09195    1332.2519   -36686.871    15.291168    13.242543    28.171775    5704.6143 
   35500       35.487     318.3325     13.08497   -441.65164   -428.56667   -11947.674   -946.17566     55.23526   -34952.082     15.29117    13.242545    28.171758    5704.6125 
   36000       35.987    326.38015    13.415767   -441.96372   -428.54796     -12439.6   -1446.9665    -374.2425   -35497.592    15.291173    13.242548     28.17174    5704.6107 
   36500       36.487    322.14662    13.241749   -441.77066   -428.52892   -13262.951   -2297.9197    217.83244   -37708.766    15.291175     13.24255    28.171723     5704.609 
   37000       36.987    331.14753    13.611729   -442.12188   -428.51015    -12510.08   -1867.0983    664.11471   -36327.257    15.291178    13.242552    28.171705    5704.6072 
   37500       37.487    334.70051    13.757773   -442.24891   -428.49114   -11176.131    52.985886    1663.2488   -35244.629     15.29118    13.242554    28.171688    5704.6054 
   38000       37.987    327.75487    13.472274   -441.94438    -428.4721   -12175.098   -884.58842    437.89173   -36078.599    15.291182    13.242556     28.17167    5704.6037 
   38500       38.487    319.50799    13.133288   -441.58599    -428.4527   -12305.093   -742.81727    623.68865   -36796.152    15.291185    13.242558    28.171653    5704.6019 
   39000       38.987    351.53526    14.449761   -442.88452   -428.43476   -11649.896    484.16302   -442.43266   -34991.419    15.291187     13.24256    28.171635    5704.6001 
   39500       39.487    316.70893    13.018234   -441.43313   -428.41489    -11952.01   -91.386673     581.9496   -36346.594     15.29119    13.242562    28.171618    5704.5984 
   40000       39.987     326.2185    13.409122   -441.80471   -428.39559   -11957.442    -1300.414    518.57487   -35090.488    15.291192    13.242564      28.1716    5704.5966 
   40500       40.487    323.87461    13.312777   -441.68938    -428.3766   -11510.871   -1700.3091   -534.50003   -32297.805    15.291194    13.242566    28.171583    5704.5948 
   41000       40.987    315.76502    12.979435   -441.33677   -428.35734   -11777.088   -1350.4673   -1199.5626   -32781.234    15.291197    13.242568    28.171565    5704.5931 
   41500       41.487    338.32565    13.906783   -442.24529   -428.33851   -11382.327   -1005.8649   -409.91871   -32731.197    15.291199     13.24257    28.171548    5704.5913 
   42000       41.987    339.98048    13.974804   -442.29391    -428.3191    -13453.09   -1117.7701    1659.3855   -40900.887    15.291202    13.242572     28.17153    5704.5895 
   42500       42.487    319.33849    13.126321   -441.42624   -428.29992   -12212.615   -1527.3609    150.92154   -35261.406    15.291204    13.242574    28.171513    5704.5878 
   43000       42.987    350.66186     14.41386   -442.69477   -428.28091   -12290.121   -830.09495    585.93924   -36626.208    15.291206    13.242576    28.171495     5704.586 
   43500       43.487    340.82526    14.009529   -442.27113    -428.2616    -12775.77   -3657.1317   -1948.8968   -32721.282    15.291209    13.242578    28.171478    5704.5842 
   44000       43.987    338.26622     13.90434   -442.14723   -428.24289   -12477.347   -2412.5312   -384.20755   -34635.301    15.291211     13.24258     28.17146    5704.5825 
   44500       44.487    317.43765    13.048188   -441.27176   -428.22357    -11931.91   -946.28862     343.8422   -35193.283    15.291214    13.242582    28.171443    5704.5807 
   45000       44.987     337.3943      13.8685   -442.07388   -428.20538   -11711.817   -1151.6937    2624.4826    -36608.24    15.291216    13.242584    28.171425    5704.5789 
   45500       45.487    300.32677     12.34485   -440.53067   -428.18582   -11027.645    798.93563    1081.5852   -34963.455    15.291218    13.242586    28.171408    5704.5772 
   46000       45.987     313.8102    12.899082   -441.06646   -428.16738   -10818.319   -1458.2829     2416.496   -33413.169    15.291221    13.242589     28.17139    5704.5754 
   46500       46.487    326.21923    13.409152   -441.55828   -428.14913    -11693.33   -930.10055    2699.2481   -36849.138    15.291223    13.242591    28.171373    5704.5737 
   47000       46.987     319.2939    13.124488   -441.25461   -428.13012   -12319.711    410.41314    27.268949   -37396.817    15.291226    13.242593    28.171355    5704.5719 
   47500       47.487    324.88362    13.354252   -441.46625   -428.11199   -11156.177   -582.64468   -302.49957   -32583.387    15.291228    13.242595    28.171338    5704.5701 
   48000       47.987    320.99401    13.194371   -441.28823   -428.09386   -12398.663    567.60401    -632.0522   -37131.541     15.29123    13.242597     28.17132    5704.5684 
   48500       48.487    311.15605    12.789984   -440.86542   -428.07543   -12931.971   -1633.0401    353.48021   -37516.354    15.291233    13.242599    28.171303    5704.5666 
   49000       48.987    334.08297    13.732389   -441.78971   -428.05732   -11098.364    1113.7647    1471.8468   -35880.703    15.291235    13.242601    28.171285    5704.5648 
   49500       49.487    340.56249    13.998728   -442.03809   -428.03937   -12107.292   -36.670036   -312.63807   -35972.568    15.291238    13.242603    28.171268    5704.5631 
   50000       49.987    321.50114    13.215216   -441.23627   -428.02105   -11808.793    259.80235    1214.0188     -36900.2     15.29124    13.242605     28.17125    5704.5613 
   50500       50.487    334.23372    13.738585   -441.74214   -428.00356   -12046.835   -1509.7154    1902.6595   -36533.448    15.291242    13.242607    28.171233    5704.5595 
   51000       50.987     331.5823      13.6296   -441.61497   -427.98537   -11981.938    -1280.771   -2717.9499   -31947.094    15.291245    13.242609    28.171215    5704.5578 
   51500       51.487    340.24698    13.985759   -441.95321   -427.96745   -11419.502    960.30146    209.11603   -35427.924    15.291247    13.242611    28.171198     5704.556 
   52000       51.987    331.63736    13.631863   -441.58187   -427.95001    -13016.89   -568.03288   -512.98699    -37969.65     15.29125    13.242613     28.17118    5704.5542 
   52500       52.487    344.62841    14.165856   -442.09901   -427.93315   -12672.484   -36.516839   -207.32122   -37773.614    15.291252    13.242615    28.171163    5704.5525 
   53000       52.987    317.35209    13.044671   -440.95962   -427.91495   -11742.585    23.896223    237.26445   -35488.914    15.291254    13.242617    28.171145    5704.5507 
   53500       53.487    340.66875    14.003096    -441.9012   -427.89811    -12221.19   -159.87984    353.43534   -36857.127    15.291257    13.242619    28.171128    5704.5489 
   54000       53.987    327.98857     13.48188   -441.36239   -427.88051   -11082.206   -425.43499    797.03965   -33618.222    15.291259    13.242621     28.17111    5704.5472 
   54500       54.487    327.93239    13.479571   -441.34332   -427.86375   -12279.441   -1313.6074    1259.3649   -36784.079    15.291262    13.242623    28.171093    5704.5454 
   55000       54.987    343.31869    14.112021     -441.959   -427.84698   -13107.249   -1950.9095   -1115.4015   -36255.435    15.291264    13.242625    28.171075    5704.5436 
   55500       55.487    335.48527     13.79003   -441.62019   -427.83016   -12250.098   -2092.1502   -74.092049   -34584.053    15.291266    13.242627    28.171058    5704.5419 
   56000       55.987    331.28988     13.61758    -441.4301   -427.81252   -11788.212   -1650.9041    1269.2551   -34982.987    15.291269     13.24263     28.17104    5704.5401 
   56500       56.487    341.25789    14.027312   -441.82392   -427.79661   -12177.693    55.234328    1421.2322   -38009.545    15.291271    13.242632    28.171023    5704.5383 
   57000       56.987    332.49846    13.667258   -441.44717   -427.77991   -12802.845   -712.44048    27.939808   -37724.035    15.291274    13.242634    28.171005    5704.5366 
   57500       57.487    329.59328    13.547842   -441.31116   -427.76332   -10804.619    470.24149   -663.18035   -32220.918    15.291276    13.242636    28.170988    5704.5348 
   58000       57.987    336.29069    13.823137   -441.56954   -427.74641   -11799.214     1303.007     1405.965   -38106.614    15.291278    13.242638     28.17097    5704.5331 
   58500       58.487    348.34302    14.318544   -442.04884    -427.7303   -12097.984   -2749.2576    1547.2099   -35091.903    15.291281     13.24264    28.170953    5704.5313 
   59000       58.987    332.01076    13.647211   -441.36107   -427.71385    -10623.51    -1020.423    413.67301   -31263.779    15.291283    13.242642    28.170935    5704.5295 
   59500       59.487    331.58065    13.629532   -441.32728   -427.69775   -12450.197    478.59266    -15.44136   -37813.743    15.291286    13.242644    28.170918    5704.5278 
   60000       59.987    339.93808    13.973062   -441.65481   -427.68175   -12209.317   -1771.0925    418.52416   -35275.384    15.291288    13.242646      28.1709     5704.526 
   60500       60.487    337.39074    13.868354     -441.534   -427.66565    -10505.24     722.4495    69.370681    -32307.54     15.29129    13.242648    28.170883    5704.5242 
   61000       60.987    327.27497    13.452548   -441.10173   -427.64919   -12188.732   -860.16612    50.530116    -35756.56    15.291293     13.24265    28.170865    5704.5225 
   61500       61.487    316.15508    12.995468   -440.62821   -427.63274   -10974.966    778.01623    2448.4356   -36151.351    15.291295    13.242652    28.170848    5704.5207 
   62000       61.987    333.84555     13.72263   -441.34001   -427.61738   -10893.148   -714.53788    149.03328    -32113.94    15.291298    13.242654     28.17083    5704.5189 
   62500       62.487     354.9851    14.591565   -442.19346   -427.60189   -12162.907   -480.81911    1482.7312   -37490.632      15.2913    13.242656    28.170813    5704.5172 
   63000       62.987    331.77444    13.637497   -441.22287   -427.58537   -10691.082    2251.7657    587.93749   -34912.949    15.291302    13.242658    28.170795    5704.5154 
   63500       63.487    339.47867    13.954178    -441.5234   -427.56922   -10466.805    745.96511    487.57117    -32633.95    15.291305     13.24266    28.170778    5704.5136 
   64000       63.987    334.21148    13.737671   -441.29118   -427.55351   -10924.231   -456.60437    718.38988   -33034.478    15.291307    13.242662     28.17076    5704.5119 
   64500       64.487    329.34176    13.537503    -441.0747    -427.5372   -10820.571    117.93496    1462.4532   -34042.101     15.29131    13.242664    28.170743    5704.5101 
   65000       64.987    329.09867    13.527511   -441.04925   -427.52174   -12072.807   -2315.6267   -2552.1571   -31350.637    15.291312    13.242666    28.170725    5704.5083 
   65500       65.487    332.16279    13.653461   -441.15937   -427.50591   -12418.074   -2409.3935     -800.322   -34044.505    15.291314    13.242668    28.170708    5704.5066 
   66000       65.987    362.69844     14.90862    -442.3991   -427.49048   -11845.277    459.41006    1344.6152   -37339.855    15.291317    13.242671     28.17069    5704.5048 
   66500       66.487    337.38948    13.868302   -441.34277   -427.47447   -10395.111   -1914.4833    1986.8103   -31257.661    15.291319    13.242673    28.170673     5704.503 
   67000       66.987    328.19969    13.490559   -440.94943   -427.45887   -12166.324   -3805.5244    -592.5864   -32100.861    15.291322    13.242675    28.170655    5704.5013 
   67500       67.487    328.42139    13.499671   -440.94263   -427.44296   -12346.314   -240.97298    687.95755   -37485.926    15.291324    13.242677    28.170638    5704.4995 
   68000       67.987    342.06158    14.060348   -441.48776   -427.42741   -10932.766    1936.9304   -741.11827   -33994.111    15.291326    13.242679     28.17062    5704.4977 
   68500       68.487    344.04487     14.14187   -441.55352   -427.41165   -11562.425    36.665091    -305.3871   -34418.552    15.291329    13.242681    28.170603     5704.496 
   69000       68.987    341.34621    14.030943   -441.42709   -427.39615   -11372.558   -1470.4128    492.83693   -33140.098    15.291331    13.242683    28.170585    5704.4942 
   69500       69.487    323.93115    13.315101   -440.69503   -427.37993   -11931.026   -262.70465    1828.7451   -37359.118    15.291334    13.242685    28.170568    5704.4925 
   70000       69.987    333.20004    13.696096   -441.06039    -427.3643   -10953.589   -1904.8501    1567.2588   -32523.174    15.291336    13.242687     28.17055    5704.4907 
   70500       70.487    351.50848     14.44866   -441.79763   -427.34897   -10853.442    2639.6577    1198.6918   -36398.676    15.291338    13.242689    28.170533    5704.4889 
   71000       70.987    326.94415     13.43895   -440.77215    -427.3332   -11434.314   -1745.8235    1397.4379   -33954.555    15.291341    13.242691    28.170515    5704.4872 
   71500       71.487    334.13431    13.734499   -441.05206   -427.31756    -11499.44   -685.27046     1050.244   -34863.293    15.291343    13.242693    28.170498    5704.4854 
   72000       71.987    331.08732    13.609253   -440.91111   -427.30186   -10373.037   -715.26643    896.50174   -31300.347    15.291346    13.242695     28.17048    5704.4836 
   72500       72.487     335.1729     13.77719   -441.06314   -427.28595   -11351.447     647.8624    1280.4295   -35982.632    15.291348    13.242697    28.170463    5704.4819 
   73000       72.987    337.22645    13.861601   -441.13168   -427.27008   -11227.169    507.25823    2368.7152   -36557.481     15.29135    13.242699    28.170445    5704.4801 
   73500       73.487    325.73119    13.389091     -440.643   -427.25391   -10750.243   -1658.2686   -986.76816   -29605.693    15.291353    13.242701    28.170428    5704.4783 
   74000       73.987    335.92312    13.808028   -441.04607   -427.23804   -10606.746    1037.9648    2500.9319   -35359.134    15.291355    13.242703     28.17041    5704.4766 
   74500       74.487    340.70906    14.004753   -441.22699   -427.22224   -10722.016   -785.88434    2121.2048   -33501.367    15.291358    13.242705    28.170393    5704.4748 
   75000       74.987    357.79101    14.706901   -441.91288   -427.20598   -11034.654    464.93607     1563.589   -35132.488     15.29136    13.242707    28.170375     5704.473 
   75500       75.487    341.22795    14.026081   -441.21616   -427.19008   -11080.567   -1386.3392    1391.2541   -33246.617    15.291362    13.242709    28.170358    5704.4713 
   76000       75.987    336.23413    13.820812   -440.99439   -427.17357    -11609.04   -2687.0534    3005.1716   -35145.239    15.291365    13.242712     28.17034    5704.4695 
   76500       76.487    320.62372     13.17915    -440.3365   -427.15735   -11141.016   -67.073201    612.39419    -33968.37    15.291367    13.242714    28.170323    5704.4677 
   77000       76.987    349.31559    14.358522   -441.50002   -427.14149   -11670.634    649.78816   -1406.6668   -34255.023     15.29137    13.242716    28.170305     5704.466 
   77500       77.487    351.98433    14.468219   -441.59391   -427.12569   -10703.058    1434.6746    1058.4824   -34602.332    15.291372    13.242718    28.170288    5704.4642 
   78000       77.987    370.04529     15.21061   -442.31981    -427.1092   -11736.889   -797.03743    441.97208   -34855.601    15.291374     13.24272     28.17027    5704.4624 
   78500       78.487    330.84192    13.599166   -440.69158   -427.09242   -10999.329   -1932.2587    1963.7863   -33029.515    15.291377    13.242722    28.170253    5704.4607 
   79000       78.987    336.46293    13.830216   -440.90635   -427.07613   -11848.435   -3586.7176     4065.775   -36024.362    15.291379    13.242724    28.170235    5704.4589 
   79500       79.487    317.94346    13.068979   -440.12865   -427.05967   -11073.075   -1197.9152    3152.3519   -35173.661    15.291382    13.242726    28.170218    5704.4571 
   80000       79.987     340.2186    13.984592   -441.02768   -427.04309    -10864.23    1647.1374    1273.6163   -35513.445    15.291384    13.242728      28.1702    5704.4554 
   80500       80.487    341.94935    14.055734   -441.08215   -427.02642    -10352.38   -765.04408     1187.468   -31479.564    15.291386     13.24273    28.170183    5704.4536 
   81000       80.987    334.44835    13.747408   -440.75671    -427.0093   -11738.185   -1290.4653   -84.886322   -33839.204    15.291389    13.242732    28.170165    5704.4518 
   81500       81.487    347.35244    14.277827   -441.27053    -426.9927   -12272.579    52.158637   -1522.8862   -35347.009    15.291391    13.242734    28.170148    5704.4501 
   82000       81.987    354.09377    14.554927   -441.53064   -426.97572   -10895.955   -689.08313    2356.8553   -34355.636    15.291394    13.242736     28.17013    5704.4483 
   82500       82.487    336.80649    13.844339     -440.803   -426.95866   -11356.847   -367.23627    133.22727   -33836.532    15.291396    13.242738    28.170113    5704.4466 
   83000       82.987    362.85648    14.915116   -441.85713   -426.94201   -11884.626   -2524.7352    128.65499   -33257.799    15.291398     13.24274    28.170095    5704.4448 
   83500       83.487    347.41507    14.280401   -441.20482   -426.92442   -12017.522    581.69523    690.44048     -37324.7    15.291401    13.242742    28.170078     5704.443 
   84000       83.987    338.93833    13.931967   -440.83923   -426.90726   -12098.828   -1109.6069   -1884.9738   -33301.903    15.291403    13.242744     28.17006    5704.4413 
   84500       84.487    341.59597    14.041209    -440.9311   -426.88989   -11152.972   -232.62337    2297.4264    -35523.72    15.291406    13.242746    28.170043    5704.4395 
   85000       84.987    335.91081    13.807522    -440.6799   -426.87238    -10192.06    3055.0422    1481.9532   -35113.175    15.291408    13.242748    28.170025    5704.4377 
   85500       85.487    356.02172    14.634175    -441.4897   -426.85552   -11387.361    176.91824     787.5489   -35126.551     15.29141     13.24275    28.170008     5704.436 
   86000       85.987    343.61345    14.124137   -440.96117   -426.83704   -10593.686    1080.5793    -445.3019   -32416.336    15.291413    13.242753     28.16999    5704.4342 
   86500       86.487    347.17275    14.270441    -441.0899   -426.81946   -11229.683    -1296.848     3299.767   -35691.967    15.291415    13.242755    28.169973    5704.4324 
   87000       86.987    347.02085    14.264197   -441.06588   -426.80168   -10714.015   -1566.3067    4494.9082   -35070.645    15.291418    13.242757    28.169955    5704.4307 
   87500       87.487    339.91665    13.972181   -440.75606   -426.78388       -11506   -2497.3789    1790.1382   -33810.758     15.29142    13.242759    28.169938    5704.4289 
   88000       87.987    337.08184    13.855657    -440.6217   -426.76605   -10861.973    3.4891296    780.92387   -33370.332    15.291422    13.242761     28.16992    5704.4271 
   88500       88.487    354.01853    14.551835   -441.30007   -426.74824   -11586.513   -778.41654    838.02237   -34819.146    15.291425    13.242763    28.169903    5704.4254 
   89000       88.987    337.67379    13.879989   -440.60949    -426.7295   -11323.672    871.98633     2048.343   -36891.347    15.291427    13.242765    28.169885    5704.4236 
   89500       89.487    348.01711    14.305148   -441.01703   -426.71188   -10947.211    502.42714   -1157.3682   -32186.693     15.29143    13.242767    28.169868    5704.4218 
   90000       89.987     348.5973    14.328996   -441.02272   -426.69372     -11010.9    71.831553   -386.09519   -32718.437    15.291432    13.242769     28.16985    5704.4201 
   90500       90.487    369.71768    15.197144   -441.87282   -426.67568   -11379.305     577.9759    2171.4958   -36887.388    15.291434    13.242771    28.169833    5704.4183 
   91000       90.987    375.11697     15.41908   -442.07597   -426.65689   -11454.914    -477.7734   -353.47464   -33533.495    15.291437    13.242773    28.169815    5704.4165 
   91500       91.487    377.04517    15.498338   -442.13706   -426.63872   -10450.174    672.10755    1768.4219   -33791.053    15.291439    13.242775    28.169798    5704.4148 
   92000       91.987    352.10711    14.473266   -441.09326   -426.61999   -11539.783   -1781.4939    2167.9779   -35005.833    15.291442    13.242777     28.16978     5704.413 
   92500       92.487     339.3048    13.947031   -440.54795   -426.60092   -10002.489    1864.1514    1272.3975   -33144.017    15.291444    13.242779    28.169763    5704.4112 
   93000       92.987    349.11688    14.350354   -440.93265   -426.58229   -11665.995   -2522.1565    1557.1261   -34032.953    15.291446    13.242781    28.169745    5704.4095 
   93500       93.487    345.79547    14.213828   -440.77709   -426.56326   -10188.365    1915.5985    2401.9894   -34882.684    15.291449    13.242783    28.169728    5704.4077 
   94000       93.987    337.43554    13.870195    -440.4145    -426.5443   -11275.722   -1270.2666     405.1639   -32962.063    15.291451    13.242785     28.16971    5704.4059 
   94500       94.487    355.07401     14.59522   -441.12064   -426.52542    -10810.79    2120.9116    1083.8614   -35637.143    15.291454    13.242787    28.169693    5704.4042 
   95000       94.987    358.79516    14.748177   -441.25451   -426.50634   -10912.476    3463.1227     916.3891   -37116.939    15.291456    13.242789    28.169675    5704.4024 
   95500       95.487     341.9811    14.057039   -440.54373   -426.48669   -9913.9635    60.622303    2520.0198   -32322.533    15.291458    13.242791    28.169658    5704.4007 
   96000       95.987    351.13962    14.433498   -440.90124   -426.46774   -11620.852   -975.00624     2125.419   -36012.969    15.291461    13.242794     28.16964    5704.3989 
   96500       96.487    359.62332    14.782218   -441.23051   -426.44829   -11311.844   -1523.4857    960.36696   -33372.415    15.291463    13.242796    28.169623    5704.3971 
   97000       96.987    360.28825     14.80955    -441.2383   -426.42875   -11519.242   -1105.6512    849.59545   -34301.669    15.291466    13.242798    28.169605    5704.3954 
   97500       97.487    354.80473    14.584151    -440.9931   -426.40895   -11984.514   -68.936186    450.29368   -36334.899    15.291468      13.2428    28.169588    5704.3936 
   98000       97.987    361.36629    14.853863   -441.24288   -426.38902   -11557.634   -1453.8829    2128.0975   -35347.117     15.29147    13.242802     28.16957    5704.3918 
   98500       98.487    377.41811    15.513668   -441.88366   -426.36999   -12005.646   -601.81893    843.81095    -36258.93    15.291473    13.242804    28.169553    5704.3901 
   99000       98.987    347.80002    14.296225   -440.64587   -426.34964   -11202.696   -106.65095    2057.1449   -35558.581    15.291475    13.242806    28.169535    5704.3883 
   99500       99.487    331.27946    13.617151   -439.94648   -426.32932   -10280.688   -296.80782    3445.6938   -33990.951    15.291478    13.242808    28.169518    5704.3865 
  100000       99.987     349.8859    14.381964   -440.69139   -426.30943   -10505.769    690.67928    1729.0805   -33937.066     15.29148     13.24281      28.1695    5704.3848 
  100500      100.487    349.92395    14.383528   -440.67276   -426.28923   -11421.518     1595.951    1852.8786   -37713.384    15.291482    13.242812    28.169483     5704.383 
  101000      100.987    369.42483    15.185106   -441.45413   -426.26903   -11633.392   -1272.6494   -595.53451   -33031.993    15.291485    13.242814    28.169465    5704.3812 
  101500      101.487    356.19017    14.641099   -440.88952   -426.24842   -11657.984   -295.09592    1636.5689   -36315.424    15.291487    13.242816    28.169448    5704.3795 
  102000      101.987    340.37769    13.991132   -440.21931   -426.22818    -10434.85    4110.6242   -1168.3897   -34246.783     15.29149    13.242818     28.16943    5704.3777 
  102500      102.487    343.94026     14.13757   -440.34526   -426.20769   -9611.6162    3557.2589   -1148.1563   -31243.951    15.291492     13.24282    28.169413    5704.3759 
  103000      102.987    359.01473    14.757202   -440.94465   -426.18744   -11362.118   -592.80948    482.23843   -33975.783    15.291494    13.242822    28.169395    5704.3742 
  103500      103.487    336.50964    13.832137   -439.99858   -426.16645   -11949.241    156.43028    832.66482   -36836.819    15.291497    13.242824    28.169378    5704.3724 
  104000      103.987    363.54003    14.943214   -441.08949   -426.14627   -10640.024    1823.2921    61.991766   -33805.357    15.291499    13.242826     28.16936    5704.3706 
  104500      104.487     358.7259     14.74533   -440.87031   -426.12498   -11534.904    793.54053    789.09483   -36187.348    15.291502    13.242828    28.169343    5704.3689 
  105000      104.987     351.0926    14.431565   -440.53586   -426.10429     -11431.9   -1968.2459    752.69932   -33080.155    15.291504     13.24283    28.169325    5704.3671 
  105500      105.487    364.37152    14.977392   -441.06082   -426.08342    -11045.33   -539.01479    1982.2849   -34579.262    15.291506    13.242832    28.169308    5704.3653 
  106000      105.987    359.43371    14.774424   -440.83699   -426.06257   -10294.155    1651.3026    1183.5978   -33717.367    15.291509    13.242835     28.16929    5704.3636 
  106500      106.487    355.63322    14.618206   -440.65925   -426.04104   -11677.947   -271.30568    2200.4608   -36962.996    15.291511    13.242837    28.169273    5704.3618 
  107000      106.987    359.09727    14.760595   -440.78098   -426.02038   -11220.264   -1772.5954    81.181783   -31969.377    15.291514    13.242839    28.169255      5704.36 
  107500      107.487    370.66155    15.235941   -441.23558   -425.99964    -10155.64    417.75486    2369.5587   -33254.233    15.291516    13.242841    28.169238    5704.3583 
  108000      107.987    372.76562    15.322429   -441.30052   -425.97809   -11984.042     656.0962   -496.60524   -36111.616    15.291518    13.242843     28.16922    5704.3565 
  108500      108.487    349.51336    14.366651   -440.32323   -425.95658    -10737.13    576.31483     1303.385   -34091.091    15.291521    13.242845    28.169203    5704.3547 
  109000      108.987    368.08416    15.129999   -441.06544   -425.93545    -12182.02   -476.53626    888.52958   -36958.054    15.291523    13.242847    28.169185     5704.353 
  109500      109.487    345.81686    14.214707   -440.12841    -425.9137   -10129.886    -1107.182     4808.363   -34090.839    15.291526    13.242849    28.169168    5704.3512 
  110000      109.987    349.02724    14.346669   -440.23901   -425.89234   -10300.483    1332.7697    2482.5973   -34716.816    15.291528    13.242851     28.16915    5704.3495 
  110500      110.487    365.23623    15.012935   -440.88418   -425.87124   -11097.292    154.41255    912.14109   -34358.429     15.29153    13.242853    28.169133    5704.3477 
  111000      110.987    349.65178    14.372341   -440.22166   -425.84932   -11125.368   -1668.6584    2796.9751   -34504.421    15.291533    13.242855    28.169115    5704.3459 
  111500      111.487     350.9763    14.426785   -440.25464   -425.82785   -10135.819   -1812.3382    1710.9429   -30306.063    15.291535    13.242857    28.169098    5704.3442 
  112000      111.987    339.29882    13.946785   -439.75259   -425.80581   -10472.128   -2082.9572    3207.2814   -32540.709    15.291538    13.242859     28.16908    5704.3424 
  112500      112.487    345.93822    14.219696   -440.00358   -425.78388   -9790.1723    1541.1315     4399.265   -35310.913     15.29154    13.242861    28.169063    5704.3406 
  113000      112.987    375.83991    15.448797   -441.21105   -425.76226    -11490.61   -252.54411    517.26661   -34736.553    15.291542    13.242863    28.169045    5704.3389 
  113500      113.487    364.01631    14.962791   -440.70323   -425.74044   -10574.356   -1964.1727    44.861818   -29803.758    15.291545    13.242865    28.169028    5704.3371 
  114000      113.987    371.16469    15.256623   -440.97476   -425.71814   -11128.311    758.42371   -547.88069   -33595.477    15.291547    13.242867     28.16901    5704.3353 
  114500      114.487    363.31386    14.933917   -440.63033   -425.69642   -11721.081    37.085672    1637.6053   -36837.935     15.29155    13.242869    28.168993    5704.3336 
  115000      114.987    341.39831    14.033084   -439.70733   -425.67425   -9178.6869    632.54309    1693.1938   -29861.798    15.291552    13.242871    28.168975    5704.3318 
  115500      115.487    357.67296    14.702049   -440.35403   -425.65198   -10886.298   -2966.7296    231.82801   -29923.992    15.291554    13.242873    28.168958      5704.33 
  116000      115.987    364.41019    14.978981   -440.60937   -425.63039   -11399.572   -117.38195    609.97691    -34691.31    15.291557    13.242876     28.16894    5704.3283 
  116500      116.487    356.62158    14.658832   -440.26612   -425.60728   -10980.678   -1921.7867    806.33885   -31826.587    15.291559    13.242878    28.168923    5704.3265 
  117000      116.987    354.84233    14.585697   -440.17113   -425.58543   -10372.353    27.197029    3802.3019   -34946.557    15.291562     13.24288    28.168905    5704.3247 
  117500      117.487    346.17927    14.229604    -439.7929    -425.5633   -10567.313   -911.70731    1253.5063   -32043.739    15.291564    13.242882    28.168888     5704.323 
  118000      117.987    358.42656    14.733026   -440.27431   -425.54129    -11087.73   -1100.5252    1400.2241   -33562.888    15.291566    13.242884     28.16887    5704.3212 
  118500      118.487    363.22955    14.930451   -440.44972   -425.51927   -9584.3657    2664.0859    3333.4929   -34750.676    15.291569    13.242886    28.168853    5704.3194 
  119000      118.987    375.92473    15.452283   -440.94868    -425.4964    -10837.11   -826.55458    1981.9879   -33666.763    15.291571    13.242888    28.168835    5704.3177 
  119500      119.487    362.22314    14.889083   -440.36254   -425.47346   -11459.638    -2550.528    1399.7361   -33228.122    15.291574     13.24289    28.168818    5704.3159 
  120000      119.987    356.97457    14.673342   -440.12451   -425.45117   -10513.812    353.32711    3786.2452   -35681.007    15.291576    13.242892      28.1688    5704.3141 
  120500      120.487    354.38846    14.567041   -439.99557   -425.42853   -10316.422    -705.5879     3354.939   -33598.618    15.291578    13.242894    28.168783    5704.3124 
  121000      120.987     375.8325    15.448492   -440.85455   -425.40606   -10892.112    -423.2185    1090.6726   -33343.789    15.291581    13.242896    28.168765    5704.3106 
  121500      121.487    345.43691     14.19909   -439.58166   -425.38257   -9979.4068     870.0149    2237.9506   -33046.186    15.291583    13.242898    28.168748    5704.3088 
  122000      121.987    351.32424    14.441087   -439.80083   -425.35974   -9871.0785   -1888.8878     1587.652       -29312    15.291586      13.2429     28.16873    5704.3071 
  122500      122.487    379.13208     15.58412   -440.92197   -425.33785   -11296.986   -638.86855   -1529.2427   -31722.846    15.291588    13.242902    28.168713    5704.3053 
  123000      122.987    352.00383    14.469021   -439.78385   -425.31483   -9733.9022    698.49063    3107.2048   -33007.402     15.29159    13.242904    28.168695    5704.3035 
  123500      123.487    382.58949    15.726236    -441.0184   -425.29216   -10609.378    805.97987    163.98089   -32798.094    15.291593    13.242906    28.168678    5704.3018 
  124000      123.987    362.53342    14.901837   -440.17118   -425.26934   -10009.069    791.68952    2276.5134    -33095.41    15.291595    13.242908     28.16866       5704.3 
  124500      124.487    376.53221    15.477253   -440.72355   -425.24629   -9909.2535    2221.5021    764.10257   -32713.365    15.291598     13.24291    28.168643    5704.2983 
  125000      124.987    386.23539      15.8761    -441.0996    -425.2235   -10502.864    162.19154    833.71532   -32504.499      15.2916    13.242912    28.168625    5704.2965 
  125500      125.487    389.33501    16.003509   -441.20387   -425.20036   -10394.814   -2237.4211     1279.921   -30226.942    15.291602    13.242914    28.168608    5704.2947 
  126000      125.987    363.40374    14.937611   -440.11476   -425.17715   -9705.5286     1961.225    3957.4431   -35035.254    15.291605    13.242917     28.16859     5704.293 
  126500      126.487    389.21182    15.998445   -441.15267   -425.15422    -10740.47   -937.02501    1768.2049    -33052.59    15.291607    13.242919    28.168573    5704.2912 
  127000      126.987    372.04901    15.292973   -440.42413   -425.13116   -11803.576   -1507.3277   -1642.1389   -32261.262     15.29161    13.242921    28.168555    5704.2894 
  127500      127.487    374.81692    15.406747   -440.51513   -425.10838   -11071.036      289.997   -418.59897   -33084.505    15.291612    13.242923    28.168538    5704.2877 
  128000      127.987    365.20781    15.011767   -440.09645   -425.08468   -10365.772    424.94358   -970.50772   -30551.752    15.291614    13.242925     28.16852    5704.2859 
  128500      128.487    367.81893    15.119096    -440.1806    -425.0615   -10115.685    1441.2483   -272.20906   -31516.094    15.291617    13.242927    28.168503    5704.2841 
  129000      128.987      369.488    15.187703    -440.2257   -425.03799   -10280.959    916.45083    1902.2676   -33661.597    15.291619    13.242929    28.168485    5704.2824 
  129500      129.487    364.69628    14.990741   -440.00579   -425.01505   -11298.118   -2097.6839    2852.9869   -34649.657    15.291622    13.242931    28.168468    5704.2806 
  130000      129.987     357.2021    14.682695   -439.67429    -424.9916   -9443.6275    1743.9705    2313.7271    -32388.58    15.291624    13.242933     28.16845    5704.2788 
  130500      130.487    379.09689    15.582674   -440.55096   -424.96829   -9765.0916   -86.367837    162.50491   -29371.412    15.291626    13.242935    28.168433    5704.2771 
  131000      130.987    363.07068    14.923921    -439.8684   -424.94448   -10983.955    280.24648   -344.83609   -32887.275    15.291629    13.242937    28.168415    5704.2753 
  131500      131.487    369.56502    15.190869   -440.11227    -424.9214   -11158.015   -197.82526   -277.34377   -32998.877    15.291631    13.242939    28.168398    5704.2735 
  132000      131.987    359.63053    14.782514      -439.68   -424.89748   -9775.4486    484.86668    574.40203   -30385.614    15.291634    13.242941     28.16838    5704.2718 
  132500      132.487    369.64703     15.19424   -440.06834    -424.8741   -10185.205   -1820.1242    3230.3692   -31965.861    15.291636    13.242943    28.168363      5704.27 
  133000      132.987    381.59038    15.685168   -440.53608   -424.85092   -10421.883   -1035.3506    1119.2382   -31349.537    15.291638    13.242945    28.168345    5704.2682 
  133500      133.487     352.3751    14.484282   -439.31147   -424.82719    -9818.199    2437.1534    1842.0073   -33733.758    15.291641    13.242947    28.168328    5704.2665 
  134000      133.987    367.80393     15.11848   -439.92282   -424.80434   -10421.029    -454.8443    2239.5536   -33047.795    15.291643    13.242949     28.16831    5704.2647 
  134500      134.487    366.76632    15.075829   -439.85649   -424.78066   -8340.5047    1936.5889     1163.253   -28121.356    15.291646    13.242951    28.168293    5704.2629 
  135000      134.987    369.44575    15.185966   -439.94285   -424.75689   -10663.083    2620.3936    1066.5248   -35676.167    15.291648    13.242953    28.168275    5704.2612 
  135500      135.487    363.93218    14.959333   -439.69289   -424.73356   -11243.489   -1703.5196    742.29566   -32769.242     15.29165    13.242955    28.168258    5704.2594 
  136000      135.987     386.9529    15.905593   -440.61601   -424.71042   -9177.4423    3716.8377    1384.9125   -32634.077    15.291653    13.242958     28.16824    5704.2576 
  136500      136.487    375.35812    15.428993   -440.11548   -424.68649   -10863.516   -963.39015    3897.9436   -35525.102    15.291655     13.24296    28.168223    5704.2559 
  137000      136.987    374.55569    15.396009   -440.05936   -424.66335   -11599.126    673.20654    247.95891   -35718.542    15.291658    13.242962    28.168205    5704.2541 
  137500      137.487    361.67364    14.866496   -439.50614   -424.63964   -9917.2489    1440.2605    1066.6707   -32258.678     15.29166    13.242964    28.168188    5704.2523 
  138000      137.987    375.04421     15.41609   -440.03213   -424.61604   -8688.4972    705.67605     3194.607   -29965.775    15.291662    13.242966     28.16817    5704.2506 
  138500      138.487    366.03077    15.045594   -439.63783   -424.59224   -10881.268   -2000.9301    1817.9641   -32460.839    15.291665    13.242968    28.168153    5704.2488 
  139000      138.987    370.74643     15.23943   -439.80775   -424.56832   -8894.3696    2508.6342    5168.5988   -34360.342    15.291667     13.24297    28.168135    5704.2471 
  139500      139.487    374.31317     15.38604   -439.93087   -424.54483   -10779.259    134.19921    2045.6055   -34517.583     15.29167    13.242972    28.168118    5704.2453 
  140000      139.987      383.972    15.783064   -440.30419   -424.52113   -10275.643   -604.88775    1499.2844   -31721.327    15.291672    13.242974      28.1681    5704.2435 
  140500      140.487    370.59784    15.233323    -439.7304   -424.49708   -9475.5283    1583.1091    2879.5162    -32889.21    15.291674    13.242976    28.168083    5704.2418 
  141000      140.987     354.8486    14.585955   -439.05872   -424.47276   -6608.3484    4702.1947    3439.0582   -27966.298    15.291677    13.242978    28.168065      5704.24 
  141500      141.487    404.14564    16.612296   -441.06199   -424.44969   -10306.445    2324.3875    361.46702   -33605.189    15.291679     13.24298    28.168048    5704.2382 
  142000      141.987    364.71502    14.991511   -439.41678   -424.42527   -9176.0716    4385.8475    1369.9575    -33284.02    15.291682    13.242982     28.16803    5704.2365 
  142500      142.487    386.62021    15.891918   -440.29403   -424.40211   -10594.121   -1369.7049    1854.2881   -32266.946    15.291684    13.242984    28.168013    5704.2347 
  143000      142.987    358.24753    14.725667   -439.10316   -424.37749   -10104.896   -554.34984    2311.1513    -32071.49    15.291686    13.242986    28.167995    5704.2329 
  143500      143.487    375.28203    15.425865   -439.77961   -424.35374   -9390.5518    1063.9338    2592.0859   -31827.675    15.291689    13.242988    28.167978    5704.2312 
  144000      143.987    381.45057    15.679421    -440.0092   -424.32978   -10167.283    2410.5314    1124.1874   -34036.567    15.291691     13.24299     28.16796    5704.2294 
  144500      144.487    384.62459    15.809888    -440.1158   -424.30591   -10274.264     1667.694    2171.8556   -34662.342    15.291694    13.242992    28.167943    5704.2276 
  145000      144.987      353.533    14.531877   -438.81298    -424.2811   -10404.101    388.56703    3362.6919   -34963.562    15.291696    13.242994    28.167925    5704.2259 
  145500      145.487    393.35127    16.168596   -440.42633   -424.25773   -10205.334     443.5471    117.31625   -31176.867    15.291698    13.242996    28.167908    5704.2241 
  146000      145.987    369.35016    15.182037   -439.41578   -424.23374   -9705.8889    2501.7383    2197.9474   -33817.352    15.291701    13.242999     28.16789    5704.2223 
  146500      146.487    376.59422    15.479802   -439.68914   -424.20934   -9204.8454    3609.8803    366.94113   -31591.358    15.291703    13.243001    28.167873    5704.2206 
  147000      146.987    392.22494    16.122299   -440.30794   -424.18564   -9002.6086    3108.7924    1674.9354   -31791.553    15.291706    13.243003    28.167855    5704.2188 
  147500      147.487    392.32749    16.126514   -440.28762   -424.16111    -10807.27   -103.99138    3615.9417    -35933.76    15.291708    13.243005    28.167838     5704.217 
  148000      147.987    373.26577    15.342987    -439.4798   -424.13681   -9552.0569    1420.9443    2943.8807   -33020.996     15.29171    13.243007     28.16782    5704.2153 
  148500      148.487    393.09637    16.158119   -440.27098   -424.11286   -9447.2769   -267.16367    1048.9626    -29123.63    15.291713    13.243009    28.167803    5704.2135 
  149000      148.987    393.28781    16.165988    -440.2544   -424.08842   -10462.332    664.35823    3137.5226   -35188.877    15.291715    13.243011    28.167785    5704.2117 
  149500      149.487    385.16184    15.831972   -439.89607    -424.0641   -9566.1521    2262.9826    5266.4615   -36227.901    15.291718    13.243013    28.167768      5704.21 
  150000      149.987    397.89715    16.355453   -440.39561   -424.04016   -9537.2096    789.66431    114.07705    -29515.37     15.29172    13.243015     28.16775    5704.2082 
  150500      150.487    377.75246    15.527411   -439.54238   -424.01496   -10027.364    398.62478    1772.6109   -32253.327    15.291722    13.243017    28.167733    5704.2064 
  151000      150.987    366.41952    15.061574   -439.05191   -423.99033   -8164.2171    2377.8498    5199.4744   -32069.976    15.291725    13.243019    28.167715    5704.2047 
  151500      151.487    396.70262    16.306353   -440.27271   -423.96636    -10205.85   -1522.8602    4779.4446   -33874.134    15.291727    13.243021    28.167698    5704.2029 
  152000      151.987    384.49205     15.80444   -439.74564    -423.9412   -10288.244    308.86874    2712.6974   -33886.299     15.29173    13.243023     28.16768    5704.2011 
  152500      152.487    398.11535    16.364422   -440.28127   -423.91685   -11191.197    701.32378    1780.2943    -36055.21    15.291732    13.243025    28.167663    5704.1994 
  153000      152.987    373.32146    15.345276   -439.23732   -423.89205   -8644.0528    1609.1969    5000.0965   -32541.452    15.291734    13.243027    28.167645    5704.1976 
  153500      153.487    373.72619    15.361913   -439.22948   -423.86757   -9198.0162    1370.7009    2352.4285   -31317.178    15.291737    13.243029    28.167628    5704.1958 
  154000      153.987     372.2492    15.301202   -439.14457   -423.84337   -9573.5571    2353.8108    3494.4262   -34568.908    15.291739    13.243031     28.16761    5704.1941 
  154500      154.487    372.06441    15.293606   -439.11196   -423.81835   -9312.5978    1963.2565    3678.7106   -33579.761    15.291742    13.243033    28.167593    5704.1923 
  155000      154.987    383.25853    15.753737   -439.54722   -423.79348   -8996.2504    533.84335    3670.3138   -31192.908    15.291744    13.243035    28.167575    5704.1906 
  155500      155.487     373.5384    15.354194   -439.12279    -423.7686   -9437.1567    582.27041    5182.3484   -34076.089    15.291746    13.243037    28.167558    5704.1888 
  156000      155.987    389.25421    16.000188   -439.74477   -423.74458   -10635.846    3405.3654    1611.6125   -36924.515    15.291749     13.24304     28.16754     5704.187 
  156500      156.487    379.67123    15.606282   -439.32562   -423.71934   -9495.6532    291.86889    2213.3886   -30992.217    15.291751    13.243042    28.167523    5704.1853 
  157000      156.987    392.27264    16.124259    -439.8192   -423.69494   -9296.8758    1753.6854    2395.0279   -32039.341    15.291754    13.243044    28.167505    5704.1835 
  157500      157.487    392.09799     16.11708   -439.78683   -423.66975   -10758.073   -593.49144    1168.9133   -32849.641    15.291756    13.243046    28.167488    5704.1817 
  158000      157.987    395.39451    16.252583   -439.89749   -423.64491   -10949.583   -871.40278    2784.5376   -34761.885    15.291758    13.243048     28.16747      5704.18 
  158500      158.487    374.07794    15.376371   -438.99639   -423.62002   -10251.188    375.93365    4844.0019   -35973.499    15.291761     13.24305    28.167453    5704.1782 
  159000      158.987    399.29068    16.412734   -440.00831   -423.59558   -10038.276    1510.6975    1422.7868   -33048.314    15.291763    13.243052    28.167435    5704.1764 
  159500      159.487    382.40681    15.718727   -439.28919   -423.57046   -10016.989   -471.01457   -305.35752   -29274.596    15.291766    13.243054    28.167418    5704.1747 
  160000      159.987    421.00131    17.305144   -440.85092   -423.54578   -10393.844   -1009.2218    2871.3965   -33043.707    15.291768    13.243056      28.1674    5704.1729 
  160500      160.487    383.46962    15.762414   -439.28226   -423.51984    -9512.923   -306.14932    4093.6913   -32326.311     15.29177    13.243058    28.167383    5704.1711 
  161000      160.987    384.13073    15.789589   -439.28505   -423.49547   -9971.5269   -537.66867    2822.7126   -32199.625    15.291773     13.24306    28.167365    5704.1694 
  161500      161.487    387.59318    15.931911    -439.4028   -423.47089   -10034.596    2745.3092    1794.8926   -34643.991    15.291775    13.243062    28.167348    5704.1676 
  162000      161.987    368.69182    15.154976   -438.60055   -423.44558   -9550.1322   -5.8292197    3234.2348   -31878.802    15.291778    13.243064     28.16733    5704.1658 
  162500      162.487    406.81773    16.722131    -440.1427   -423.42056   -9371.8429    565.82263    3310.9588    -31992.31     15.29178    13.243066    28.167313    5704.1641 
  163000      162.987    376.54461    15.477763   -438.87321   -423.39544   -9636.6034    2995.9471    2620.3377   -34526.095    15.291782    13.243068    28.167295    5704.1623 
  163500      163.487    412.26425    16.946009    -440.3171   -423.37109   -9901.0515   -361.88416    1123.7586   -30465.029    15.291785     13.24307    28.167278    5704.1605 
  164000      163.987    411.60424     16.91888   -440.26454   -423.34566   -10542.771    2526.0835    2435.5881   -36589.983    15.291787    13.243072     28.16726    5704.1588 
  164500      164.487    410.38522    16.868772      -440.19   -423.32123   -10434.492     2146.547     2967.934   -36417.957     15.29179    13.243074    28.167243     5704.157 
  165000      164.987    410.43256    16.870718   -440.16667   -423.29595   -9722.3221    1822.3095    1368.1041    -32357.38    15.291792    13.243076    28.167225    5704.1552 
  165500      165.487    389.24395    15.999766   -439.26976      -423.27   -9708.9044    1289.7806     3236.889   -33653.383    15.291794    13.243078    28.167208    5704.1535 
  166000      165.987    395.87541     16.27235   -439.51756   -423.24521   -9105.3776    577.57111    4566.2627   -32459.967    15.291797    13.243081     28.16719    5704.1517 
  166500      166.487    392.12451    16.118171   -439.33781   -423.21964   -9537.4068    1472.6096    2617.2484   -32702.079    15.291799    13.243083    28.167173    5704.1499 
  167000      166.987    403.62558    16.590919   -439.78588   -423.19496   -8579.8444    1161.7952    3194.8379   -30096.166    15.291802    13.243085    28.167155    5704.1482 
  167500      167.487    380.55577     15.64264   -438.81048   -423.16784   -10742.775    2060.1731    2084.0086   -36372.507    15.291804    13.243087    28.167138    5704.1464 
  168000      167.987    383.42184     15.76045   -438.90344   -423.14299   -7961.9396    4767.9383    5049.6166   -33703.374    15.291806    13.243089     28.16712    5704.1446 
  168500      168.487    387.98534    15.948031   -439.06537   -423.11734   -8995.5833    306.17925    3482.2363   -30775.166    15.291809    13.243091    28.167103    5704.1429 
  169000      168.987    380.29007    15.631719   -438.72362   -423.09191   -9308.9068   -1232.5551    3688.7647    -30382.93    15.291811    13.243093    28.167085    5704.1411 
  169500      169.487    380.66787    15.647249   -438.71393   -423.06668   -9585.3579    1637.1605     2855.593   -33248.827    15.291814    13.243095    28.167068    5704.1393 
  170000      169.987    398.28069    16.371219   -439.41294   -423.04172     -8995.34    834.81437    3731.3596   -31552.194    15.291816    13.243097     28.16705    5704.1376 
  170500      170.487    400.76092    16.473168    -439.4898   -423.01663   -9471.1089    2953.5401    5058.7804   -36425.647    15.291818    13.243099    28.167033    5704.1358 
  171000      170.987    382.62147    15.727551   -438.71811   -422.99056   -9232.0761    1124.2753    5662.3857    -34482.89    15.291821    13.243101    28.167015    5704.1341 
  171500      171.487    390.55399    16.053615   -439.01897   -422.96535    -9441.899    2298.2877     3734.176   -34358.161    15.291823    13.243103    28.166998    5704.1323 
  172000      171.987    424.56584    17.451663   -440.39152   -422.93986   -10205.599    214.53342     2099.697   -32931.027    15.291826    13.243105     28.16698    5704.1305 
  172500      172.487    382.42342     15.71941    -438.6332   -422.91379    -9493.995    1794.0718    13.074129   -30289.131    15.291828    13.243107    28.166963    5704.1288 
  173000      172.987    400.18625    16.449546   -439.33825   -422.88871   -9024.0664    3461.4955    539.82749   -31073.522     15.29183    13.243109    28.166945     5704.127 
  173500      173.487    413.66404    17.003547   -439.86625    -422.8627   -8550.3632    1409.5934    1999.0776   -29059.761    15.291833    13.243111    28.166928    5704.1252 
  174000      173.987    386.35904    15.881182   -438.71865   -422.83746   -9678.8951    428.68787    1813.5325   -31278.906    15.291835    13.243113     28.16691    5704.1235 
  174500      174.487    405.59804    16.671996   -439.48331   -422.81132   -10537.213   -203.43731    1643.6271   -33051.829    15.291838    13.243115    28.166893    5704.1217 
  175000      174.987    378.44605    15.555921   -438.34147   -422.78554    -8716.138   -1063.7137    3596.8948   -28681.595     15.29184    13.243117    28.166875    5704.1199 
  175500      175.487    399.60489    16.425649   -439.18547   -422.75982    -9574.513    1416.8137    899.85713    -31040.21    15.291842    13.243119    28.166858    5704.1182 
  176000      175.987    374.78669    15.405504   -438.13844   -422.73294   -9533.8596    1902.2576    1067.7956   -31571.632    15.291845    13.243122     28.16684    5704.1164 
  176500      176.487    412.20661     16.94364    -439.6521   -422.70846   -8877.2025    3762.6321    1054.3268   -31448.566    15.291847    13.243124    28.166823    5704.1146 
  177000      176.987    406.25015    16.698801   -439.38082   -422.68202   -10840.177   -2438.7612      4268.38   -34350.149     15.29185    13.243126    28.166805    5704.1129 
  177500      177.487    393.87877    16.190279   -438.84715   -422.65687    -9488.348    2064.3824    4427.2474   -34956.674    15.291852    13.243128    28.166788    5704.1111 
  178000      177.987     407.6385    16.755869   -439.38671   -422.63084   -9663.1979    1283.7957    831.63527   -31105.025    15.291854     13.24313     28.16677    5704.1093 
  178500      178.487    430.78431    17.707271   -440.31306   -422.60579   -9097.1632    1403.8005     2445.355   -31140.645    15.291857    13.243132    28.166753    5704.1076 
  179000      178.987    399.82317    16.434622   -439.01385   -422.57923   -9219.1573   -670.71563    4544.7031   -31531.459    15.291859    13.243134    28.166735    5704.1058 
  179500      179.487    375.72421    15.444041   -437.99692   -422.55288   -9499.4865    2270.6238    1777.8267    -32546.91    15.291862    13.243136    28.166718     5704.104 
  180000      179.987    389.32627     16.00315   -438.53055    -422.5274   -9108.2135    2772.9681    3783.9027   -33881.511    15.291864    13.243138      28.1667    5704.1023 
  180500      180.487    404.40151    16.622813   -439.12452    -422.5017    -10779.23    376.34058    963.05834    -33677.09    15.291866     13.24314    28.166683    5704.1005 
  181000      180.987    418.97833     17.22199   -439.69818   -422.47619   -9776.9556    971.93855    5258.1083   -35560.914    15.291869    13.243142    28.166665    5704.0987 
  181500      181.487    384.36555    15.799241   -438.24872   -422.44948   -10708.502   -467.56265    1332.6397   -32990.584    15.291871    13.243144    28.166648     5704.097 
  182000      181.987    407.84642    16.764415   -439.18854   -422.42413    -9998.237   -49.775237    4149.7689   -34094.705    15.291874    13.243146     28.16663    5704.0952 
  182500      182.487    401.44382    16.501238   -438.89971   -422.39847   -8785.2755    2353.9169    3567.9327   -32277.676    15.291876    13.243148    28.166613    5704.0934 
  183000      182.987    406.85302    16.723582   -439.09599   -422.37241   -9313.6567    2427.3517    956.05859    -31324.38    15.291878     13.24315    28.166595    5704.0917 
  183500      183.487     429.6138    17.659158   -440.00573   -422.34657   -9774.1225    2136.7297   -190.63745    -31268.46    15.291881    13.243152    28.166578    5704.0899 
  184000      183.987    422.22429    17.355414    -439.6759   -422.32048   -9570.2593    1763.4434    3055.8997   -33530.121    15.291883    13.243154     28.16656    5704.0881 
  184500      184.487    413.39881    16.992645   -439.28705    -422.2944   -9278.9951    3397.8953     5063.663   -36298.544    15.291886    13.243156    28.166543    5704.0864 
  185000      184.987    400.60355    16.466699    -438.7346    -422.2679   -9175.7941    2871.7561    1402.7091   -31801.848    15.291888    13.243158    28.166525    5704.0846 
  185500      185.487    408.07345    16.773747   -439.01551   -422.24176   -8351.3961    2369.0306    3254.3676   -30677.586     15.29189     13.24316    28.166508    5704.0828 
  186000      185.987    397.76172    16.349887   -438.56624   -422.21636   -7556.0841    2668.0472    3256.8197   -28593.119    15.291893    13.243163     28.16649    5704.0811 
  186500      186.487    404.46935    16.625602   -438.81613   -422.19052   -9034.3704    2305.1835    3659.0553    -33067.35    15.291895    13.243165    28.166473    5704.0793 
  187000      186.987    427.21757    17.560661    -439.7257   -422.16504   -10314.086   -56.108364    17.872361   -30904.021    15.291898    13.243167    28.166455    5704.0775 
  187500      187.487     434.9866    17.880005   -440.01804   -422.13803    -9891.601    1937.9357    4011.6995   -35624.438      15.2919    13.243169    28.166438    5704.0758 
  188000      187.987    390.61655    16.056186   -438.16818   -422.11199   -9628.8552   -248.56803    3244.9818   -31882.979    15.291902    13.243171     28.16642     5704.074 
  188500      188.487    398.55475    16.382484   -438.46846   -422.08598   -8005.8036    1366.4568    5505.8724    -30889.74    15.291905    13.243173    28.166403    5704.0722 
  189000      188.987    397.38864    16.334551   -438.39431   -422.05976   -9109.0692    2294.5129    4633.8081   -34255.528    15.291907    13.243175    28.166385    5704.0705 
  189500      189.487    409.28913    16.823718   -438.85615   -422.03243   -9510.3915    2063.8283    3987.9822   -34582.985     15.29191    13.243177    28.166368    5704.0687 
  190000      189.987    400.18746    16.449596   -438.45595   -422.00636   -7228.6878    3949.9915     5213.565    -30849.62    15.291912    13.243179     28.16635     5704.067 
  190500      190.487    415.51387    17.079584   -439.05969    -421.9801   -10094.375    2169.5905    1598.4512   -34051.166    15.291914    13.243181    28.166333    5704.0652 
  191000      190.987    432.64361    17.783697   -439.73776   -421.95406   -9007.8121    2083.8138    3245.7762   -32353.026    15.291917    13.243183    28.166315    5704.0634 
  191500      191.487    384.92739    15.822335   -437.74885   -421.92652   -8850.2336    4098.1831    2474.0968   -33122.981    15.291919    13.243185    28.166298    5704.0617 
  192000      191.987    416.17843      17.1069   -439.00721   -421.90031   -8145.7106    3288.7482    5621.7741   -33347.654    15.291922    13.243187     28.16628    5704.0599 
  192500      192.487    420.60682    17.288928   -439.16335   -421.87442   -10230.162   -944.94221    4496.9146   -34242.458    15.291924    13.243189    28.166263    5704.0581 
  193000      192.987    409.14827    16.817928   -438.66573   -421.84781   -8359.7516    2189.8015     4848.217   -32117.273    15.291926    13.243191    28.166245    5704.0564 
  193500      193.487    412.74201    16.965647   -438.78677   -421.82112   -9006.7953    1118.1368    3817.8673    -31956.39    15.291929    13.243193    28.166228    5704.0546 
  194000      193.987    408.79468    16.803393   -438.59758   -421.79419   -8803.2497    956.25359    2073.5788   -29439.581    15.291931    13.243195     28.16621    5704.0528 
  194500      194.487    411.62405    16.919694   -438.68748   -421.76779   -8514.8041    2866.8795    5486.5381    -33897.83    15.291934    13.243197    28.166193    5704.0511 
  195000      194.987     401.1036    16.487254   -438.22831   -421.74106    -8505.954    1756.4398    4991.5472   -32265.849    15.291936    13.243199    28.166175    5704.0493 
  195500      195.487    407.17729    16.736911    -438.4515   -421.71459   -8963.0857    2153.7368     4225.965   -33268.959    15.291938    13.243201    28.166158    5704.0475 
  196000      195.987     406.2226    16.697669   -438.38576   -421.68809   -8999.6142    1539.1444    3433.2197   -31971.207    15.291941    13.243204     28.16614    5704.0458 
  196500      196.487    421.12726    17.310321   -438.97174   -421.66142   -9213.4085    2088.2037    1507.9453   -31236.374    15.291943    13.243206    28.166123     5704.044 
  197000      196.987    407.66377    16.756908   -438.39198   -421.63507   -8617.4755    234.32615    4378.2206   -30464.973    15.291946    13.243208    28.166105    5704.0422 
  197500      197.487    396.01982    16.278286    -437.8867   -421.60841   -9847.7084    1040.7069    3422.4515   -34006.283    15.291948     13.24321    28.166088    5704.0405 
  198000      197.987     423.5917    17.411621   -438.99371   -421.58209   -8900.1342    1678.5832    4067.6362   -32446.622     15.29195    13.243212     28.16607    5704.0387 
  198500      198.487    437.39201    17.978879   -439.53444   -421.55556   -10117.722   -4178.4695    7685.1056   -33859.804    15.291953    13.243214    28.166053    5704.0369 
  199000      198.987    401.89799    16.519907    -438.0488   -421.52889   -8926.4937    510.90065    2964.1151   -30254.497    15.291955    13.243216    28.166035    5704.0352 
  199500      199.487    413.04294    16.978017   -438.48034   -421.50232   -9364.8424    2206.3982    1611.6958   -31912.621    15.291958    13.243218    28.166018    5704.0334 
  200000      199.987    412.82778    16.969173   -438.44483   -421.47565   -8711.9336    2607.3741    2671.3494   -31414.524     15.29196     13.24322       28.166    5704.0316 
  200500      200.487    416.90586    17.136801   -438.58512   -421.44832   -9145.0497    2321.8224    4381.8942   -34138.866    15.291962    13.243222    28.165983    5704.0299 
  201000      200.987    437.84165    17.997361   -439.41923   -421.42187   -9813.8028    2044.5502    3207.9685   -34693.927    15.291965    13.243224    28.165965    5704.0281 
  201500      201.487    428.47959    17.612536   -439.00739   -421.39485    -8855.039    1603.8708    4395.0967   -32564.085    15.291967    13.243226    28.165948    5704.0263 
  202000      201.987    415.24789    17.068651   -438.43671   -421.36806   -9473.9557    1293.9017    1472.9145   -31188.683     15.29197    13.243228     28.16593    5704.0246 
  202500      202.487    403.91174    16.602681     -437.944   -421.34132   -10230.065    1077.9626    5354.6744   -37122.833    15.291972     13.24323    28.165913    5704.0228 
  203000      202.987    401.26724     16.49398   -437.80809   -421.31411   -8409.4698    2979.0532    5840.8373     -34048.3    15.291974    13.243232    28.165895     5704.021 
  203500      203.487    438.52451     18.02543   -439.31319   -421.28776   -9637.5476    747.51818    2872.2699   -32532.431    15.291977    13.243234    28.165878    5704.0193 
  204000      203.987    422.78709    17.378548   -438.63948   -421.26093   -9524.2709     2133.176    1358.2654   -32064.254    15.291979    13.243236     28.16586    5704.0175 
  204500      204.487    411.53091    16.915865    -438.1494   -421.23353    -7849.495    3570.6875      3363.62   -30482.793    15.291982    13.243238    28.165843    5704.0157 
  205000      204.987    416.56334    17.122722   -438.32999   -421.20727   -7052.6678    2794.6711    4883.2849   -28835.959    15.291984     13.24324    28.165825     5704.014 
  205500      205.487    443.50932    18.230329   -439.41048   -421.18015   -9253.7897    2146.6663    692.84477    -30600.88    15.291986    13.243242    28.165808    5704.0122 
  206000      205.987    404.21013    16.614947   -437.76737   -421.15242   -7551.7059    3170.5275     4646.851   -30472.496    15.291989    13.243245     28.16579    5704.0104 
  206500      206.487    422.59126    17.370498   -438.49656   -421.12606   -9622.5495     167.8169    5475.0127   -34510.478    15.291991    13.243247    28.165773    5704.0087 
  207000      206.987    429.37231    17.649231    -438.7478   -421.09857   -7920.1829     2846.099    3710.3079   -30316.956    15.291994    13.243249    28.165755    5704.0069 
  207500      207.487     414.2822    17.028956   -438.10017   -421.07121   -8577.7592    2284.0532    2204.7664   -30222.097    15.291996    13.243251    28.165738    5704.0051 
  208000      207.987    433.37488    17.813756   -438.85813   -421.04437   -7849.0688    2794.7291    4744.2773   -31086.213    15.291998    13.243253     28.16572    5704.0034 
  208500      208.487    418.58874    17.205976   -438.22251   -421.01654   -8787.5324    4044.6145    3380.8483    -33788.06    15.292001    13.243255    28.165703    5704.0016 
  209000      208.987     406.6802    16.716478   -437.70644   -420.98996   -9932.2429   -861.31705    3433.7153   -32369.127    15.292003    13.243257    28.165685    5703.9999 
  209500      209.487    418.76101    17.213057   -438.17557   -420.96252   -8155.0585    1333.6727    5853.9692   -31652.818    15.292006    13.243259    28.165668    5703.9981 
  210000      209.987    419.90341    17.260015   -438.19601     -420.936   -8567.6104    1733.7565    7060.7681   -34497.356    15.292008    13.243261     28.16565    5703.9963 
  210500      210.487    422.14893    17.352316   -438.26119   -420.90887   -9063.6089    1904.9329    2619.2431   -31715.003     15.29201    13.243263    28.165633    5703.9946 
  211000      210.987    413.42138    16.993573   -437.87472   -420.88114   -8285.0055    358.00529    4009.0353   -29222.057    15.292013    13.243265    28.165615    5703.9928 
  211500      211.487    418.15854    17.188292    -438.0415   -420.85321   -7791.3805    3228.1846    4104.7832   -30707.109    15.292015    13.243267    28.165598     5703.991 
  212000      211.987    408.75912    16.801932   -437.62819   -420.82626    -8137.497    3861.9677    3096.6584   -31371.117    15.292018    13.243269     28.16558    5703.9893 
[...]
  948500      948.487    541.89829    22.274581   -431.71592   -409.44134   -1586.4156    7511.0565    9268.9762    -21539.28    15.295553    13.246289    28.139803     5701.386 
  949000      948.987    563.12064     23.14692   -432.58583   -409.43891   -3327.3368    8207.6688    9361.1034   -27550.783    15.295555    13.246291    28.139785    5701.3843 
  949500      949.487    559.68508    23.005702   -432.44188   -409.43618   -4506.0625    7093.8568    10883.832   -31495.877    15.295558    13.246293    28.139768    5701.3825 
  950000      949.987    595.50672    24.478141    -433.9125   -409.43436   -3495.9118    7612.9068    9990.8429   -28091.485     15.29556    13.246295     28.13975    5701.3807 
  950500      950.487    585.10328     24.05051   -433.48258   -409.43207   -2977.9631     7636.876    9375.4869   -25946.252    15.295562    13.246297    28.139733     5701.379 
  951000      950.987    563.80915    23.175221    -432.6028   -409.42758   -5105.5682    2343.3785    10508.191   -28168.274    15.295565    13.246299    28.139715    5701.3772 
  951500      951.487    542.70426     22.30771   -431.73257   -409.42486   -3465.2013     4301.282    10076.427   -24773.313    15.295567    13.246301    28.139698    5701.3754 
  952000      951.987    552.27656    22.701177   -432.12261   -409.42143   -4216.3237    8217.0331    9077.6733   -29943.678     15.29557    13.246303     28.13968    5701.3736 
  952500      952.487    555.63551    22.839245   -432.25567   -409.41642   -2285.1825    6891.2142    9419.3783    -23166.14    15.295572    13.246305    28.139663    5701.3719 
  953000      952.987    544.36648    22.376035   -431.78924    -409.4132    -2216.399    9965.9103    10933.961   -27549.068    15.295574    13.246307    28.139645    5701.3701 
  953500      953.487    573.51512    23.574182   -432.98381   -409.40963    -3997.177    6805.1609    11145.443   -29942.135    15.295577    13.246309    28.139628    5701.3683 
  954000      953.987     548.7745    22.557225   -431.96487   -409.40764   -4823.7323    7308.5575    6512.4474   -28292.202    15.295579    13.246311     28.13961    5701.3666 
  954500      954.487    565.18786    23.231892   -432.63635   -409.40446   -1878.1248     8655.227    10944.529   -25234.131    15.295582    13.246313    28.139593    5701.3648 
  955000      954.987    599.72962    24.651722   -434.05385   -409.40213   -4103.9528    6931.0146    7895.8453   -27138.718    15.295584    13.246315    28.139575     5701.363 
  955500      955.487    558.63168    22.962402   -432.36176   -409.39936   -4355.3093    6303.6824    8255.1519   -27624.762    15.295586    13.246317    28.139558    5701.3613 
  956000      955.987    571.44756    23.489195   -432.88617   -409.39697   -1868.7808    6926.3564    10581.997   -23114.695    15.295589     13.24632     28.13954    5701.3595 
  956500      956.487    597.38807    24.555473   -433.94982   -409.39435   -5276.6638    2986.4503    8918.4925   -27734.934    15.295591    13.246322    28.139523    5701.3577 
  957000      956.987    596.12282    24.503465   -433.89488   -409.39141   -3980.6276    3532.5919    7659.3467   -23133.821    15.295594    13.246324    28.139505     5701.356 
  957500      957.487    523.00956    21.498165   -430.88497   -409.38681   -2310.8423    10982.186    9210.0397   -27124.753    15.295596    13.246326    28.139488    5701.3542 
  958000      957.987    590.46446     24.27088   -433.65553   -409.38465   -4756.7209    7708.7705    7929.1421   -29908.075    15.295598    13.246328     28.13947    5701.3524 
  958500      958.487    571.97994    23.511079   -432.89247   -409.38139    -2031.794    3302.7122    14640.015    -24038.11    15.295601     13.24633    28.139453    5701.3507 
  959000      958.987    539.32819    22.168938   -431.54655   -409.37761   -2866.2092    5019.9907    11055.367   -24673.986    15.295603    13.246332    28.139435    5701.3489 
  959500      959.487    554.19223     22.77992   -432.15527   -409.37535   -4076.7036    6940.6414    7802.8475     -26973.6    15.295606    13.246334    28.139418    5701.3471 
  960000      959.987    565.12277    23.229217   -432.60108   -409.37186   -4071.8198    10421.907    6734.1443   -29371.511    15.295608    13.246336      28.1394    5701.3453 
  960500      960.487    544.97655    22.401112   -431.76985   -409.36874   -1304.0614    12879.345     7505.719   -24297.248     15.29561    13.246338    28.139383    5701.3436 
  961000      960.987    566.79042    23.297765   -432.66232   -409.36455   -3974.4024    6163.7422    10175.646   -28262.596    15.295613     13.24634    28.139365    5701.3418 
  961500      961.487    563.04779    23.143925   -432.50439   -409.36046   -4306.7645    7125.0576    5675.9906   -25721.342    15.295615    13.246342    28.139348      5701.34 
  962000      961.987    541.84073    22.272215   -431.62961   -409.35739   -3938.8096    5082.5565    10715.634   -27614.619    15.295618    13.246344     28.13933    5701.3383 
  962500      962.487    582.92411    23.960936   -433.31454    -409.3536   -5869.6577    4607.5976    6460.4719   -28677.042     15.29562    13.246346    28.139313    5701.3365 
  963000      962.987    575.74293    23.665755   -433.01475     -409.349   -1733.9759    8847.7699    7175.5484   -21225.246    15.295622    13.246348    28.139295    5701.3347 
  963500      963.487    559.29072    22.989492   -432.33307   -409.34358   -2921.0582    7940.1009    7325.2375   -24028.513    15.295625     13.24635    28.139278     5701.333 
  964000      963.987     554.5765    22.795715   -432.13503   -409.33931   -3901.7144    9650.6067    6288.2118   -27643.962    15.295627    13.246352     28.13926    5701.3312 
  964500      964.487    607.66474    24.977893   -434.31225   -409.33436   -5385.1492    6408.2427    6718.1524   -29281.843     15.29563    13.246354    28.139243    5701.3294 
  965000      964.987    564.89985    23.220053   -432.55128   -409.33123   -1922.4585    7153.8043    11432.177   -24353.357    15.295632    13.246356    28.139225    5701.3277 
  965500      965.487    549.29987    22.578821   -431.90535   -409.32653   -2903.1458    5486.4697    12282.572   -26478.479    15.295634    13.246358    28.139208    5701.3259 
  966000      965.987    551.52103    22.670121    -431.9907   -409.32057   -2122.0198    10597.843     9853.632   -26817.534    15.295637    13.246361     28.13919    5701.3241 
  966500      966.487     567.6668    23.333788   -432.65177   -409.31798   -3792.2357    3415.6314     10331.94   -25124.279    15.295639    13.246363    28.139173    5701.3224 
  967000      966.987    551.11473     22.65342   -431.96782    -409.3144   -2430.8284    6184.0992    7258.6116   -20735.196    15.295642    13.246365    28.139155    5701.3206 
  967500      967.487    566.58256    23.289221   -432.59893   -409.30971     -1599.02     12225.87     11656.81    -28679.74    15.295644    13.246367    28.139138    5701.3188 
  968000      967.987    555.96313    22.852712   -432.15808   -409.30537   -3329.6738    7908.4449    11077.681   -28975.147    15.295646    13.246369     28.13912     5701.317 
  968500      968.487    596.38508    24.514245   -433.81398   -409.29973   -4072.0552    5461.8569    8825.6588   -26503.681    15.295649    13.246371    28.139103    5701.3153 
  969000      968.987    586.52454    24.108931   -433.40304   -409.29411   -2721.2773    7680.8567    8228.9799   -24073.668    15.295651    13.246373    28.139085    5701.3135 
  969500      969.487    571.02701    23.471909   -432.76229   -409.29038   -1680.9414    7547.3185    11790.065   -24380.208    15.295654    13.246375    28.139068    5701.3117 
  970000      969.987    600.36111    24.677679   -433.96193   -409.28425   -3917.7753    7992.0893    9909.9243   -29655.339    15.295656    13.246377     28.13905      5701.31 
  970500      970.487    550.63182     22.63357   -431.91282   -409.27925   -2254.7361    8326.5938    13034.494   -28125.296    15.295658    13.246379    28.139033    5701.3082 
  971000      970.987    553.91879     22.76868    -432.0426   -409.27392    -1927.367    9620.8779    9389.4931   -24792.472    15.295661    13.246381    28.139015    5701.3064 
  971500      971.487      567.783    23.338565   -432.60776   -409.26919   -3369.3314    7072.6662    7621.6736   -24802.334    15.295663    13.246383    28.138998    5701.3047 
  972000      971.987    590.62728    24.277573   -433.54246   -409.26489   -4858.6727    5643.4698     9458.857   -29678.345    15.295666    13.246385     28.13898    5701.3029 
  972500      972.487     574.3231    23.607394   -432.86684   -409.25945    -3286.358     5640.388    12109.815   -27609.277    15.295668    13.246387    28.138963    5701.3011 
  973000      972.987    533.20673    21.917317    -431.1721   -409.25478   -3075.7243    7137.8561    8163.1929   -24528.222     15.29567    13.246389    28.138945    5701.2994 
  973500      973.487    590.36141    24.266644   -433.51712   -409.25048    -3838.126    5603.2821    10496.358   -27614.018    15.295673    13.246391    28.138928    5701.2976 
  974000      973.987    603.15353    24.792461   -434.03705   -409.24459   -4209.6523    5942.4473    9283.1074   -27854.511    15.295675    13.246393     28.13891    5701.2958 
  974500      974.487    584.95937    24.044595   -433.28319    -409.2386   -2126.9147    4916.4578    7375.1546   -18672.356    15.295678    13.246395    28.138893    5701.2941 
  975000      974.987    583.26717    23.975037    -433.2091   -409.23406   -2599.4476    10431.249    5799.2019   -24028.793     15.29568    13.246397    28.138875    5701.2923 
  975500      975.487    555.96248    22.852686    -432.0818   -409.22912   -2991.6123    6184.9637    10623.541   -25783.341    15.295682    13.246399    28.138858    5701.2905 
  976000      975.987    537.84129    22.107819   -431.32986   -409.22204   -3867.7795    6987.2007    7884.6951   -26475.234    15.295685    13.246402     28.13884    5701.2887 
  976500      976.487     531.1706    21.833622   -431.05069   -409.21707   -1798.5106    9995.8676    9123.2543   -24514.654    15.295687    13.246404    28.138823     5701.287 
  977000      976.987    580.33403    23.854471   -433.06684   -409.21236   -3412.8844    5469.1754    9625.1072   -25332.936     15.29569    13.246406    28.138805    5701.2852 
  977500      977.487     593.4095    24.391935   -433.59918   -409.20724   -5067.5334    4142.0713     7682.835   -27027.507    15.295692    13.246408    28.138788    5701.2834 
  978000      977.987    613.20772    25.205736   -434.40734    -409.2016    -3524.127    5685.0459    9899.9412   -26157.368    15.295694     13.24641     28.13877    5701.2817 
  978500      978.487    558.25308     22.94684   -432.14239   -409.19555   -2858.1832    5323.9449    10660.723   -24559.218    15.295697    13.246412    28.138753    5701.2799 
  979000      978.987     590.2086    24.260363   -433.45062   -409.19026   -2790.8232    7471.7803    9352.9444   -25197.194    15.295699    13.246414    28.138735    5701.2781 
  979500      979.487    598.80021    24.613519   -433.79768   -409.18416   -5289.0584    4873.9087    9035.2671   -29776.351    15.295702    13.246416    28.138718    5701.2764 
  980000      979.987    581.57616    23.905529   -433.08098   -409.17545   -2382.8378    9735.6038    9871.5637   -26755.681    15.295704    13.246418      28.1387    5701.2746 
  980500      980.487    601.86475    24.739486   -433.90958    -409.1701   -4115.5287    5403.3552    9714.8658   -27464.807    15.295706     13.24642    28.138683    5701.2728 
  981000      980.987    573.38689    23.568911   -432.73202   -409.16311   -2275.7866    7628.6264    9094.0214   -23550.008    15.295709    13.246422    28.138665    5701.2711 
  981500      981.487    582.17154    23.930002   -433.08763   -409.15763   -2494.1436    7104.7438    10738.207   -25325.382    15.295711    13.246424    28.138648    5701.2693 
  982000      981.987    561.73378    23.089913   -432.24025   -409.15034    -2699.136    8946.8631    11887.131   -28931.402    15.295714    13.246426     28.13863    5701.2675 
  982500      982.487    594.31787    24.429273   -433.57276   -409.14349   -4253.8433    5951.5899    7872.1825   -26585.302    15.295716    13.246428    28.138613    5701.2658 
  983000      982.987    559.84388    23.012229   -432.14913    -409.1369   -2744.7565    7442.5374      9249.71   -24926.517    15.295718     13.24643    28.138595     5701.264 
  983500      983.487    562.91247    23.138363   -432.26925   -409.13089    -3734.579    8230.7376    5568.7835   -25003.258    15.295721    13.246432    28.138578    5701.2622 
  984000      983.987    584.65785    24.032201   -433.15717   -409.12497   -2702.4769    8202.8098    10491.623   -26801.864    15.295723    13.246434     28.13856    5701.2604 
  984500      984.487    578.78415    23.790764    -432.9083   -409.11753   -2364.9063    9894.6083    9832.8699   -26822.197    15.295726    13.246436    28.138543    5701.2587 
  985000      984.987    584.81183     24.03853   -433.15072   -409.11219   -4757.7115     4826.795    6232.5147   -25332.444    15.295728    13.246438    28.138525    5701.2569 
  985500      985.487    592.73371    24.364157   -433.47012   -409.10596   -2408.5335    9390.2678    8314.8751   -24930.743     15.29573     13.24644    28.138508    5701.2551 
  986000      985.987    582.25412    23.933396   -433.03301   -409.09961   -2992.1149    7007.7382    9089.1216   -25073.204    15.295733    13.246443     28.13849    5701.2534 
  986500      986.487    579.65415    23.826525   -432.91853     -409.092   -3293.5515    4243.0642    10691.484   -24815.203    15.295735    13.246445    28.138473    5701.2516 
  987000      986.987    572.34126    23.525931     -432.612   -409.08607   -3952.8379    7120.0197    10544.652   -29523.185    15.295738    13.246447    28.138455    5701.2498 
  987500      987.487    584.62779    24.030965   -433.10984   -409.07887   -2219.3451    6612.6925    8974.9355   -22245.663     15.29574    13.246449    28.138438    5701.2481 
  988000      987.987     602.9185      24.7828   -433.85535   -409.07255   -4253.1214    5889.9969    10062.581   -28711.942    15.295742    13.246451     28.13842    5701.2463 
  988500      988.487    556.17823    22.861554   -431.92696   -409.06541   -3186.6535    6581.2759    9654.9268   -25796.163    15.295745    13.246453    28.138403    5701.2445 
  989000      988.987    574.92878     23.63229   -432.68899    -409.0567    -335.3588    8785.4894    11157.778   -20949.343    15.295747    13.246455    28.138385    5701.2428 
  989500      989.487    561.16524    23.066544   -432.11589   -409.04934   -2613.2532    7099.9025    10484.326   -25423.988     15.29575    13.246457    28.138368     5701.241 
  990000      989.987    589.06093    24.213188   -433.25434   -409.04115   -2742.8885     6021.678    9492.0665    -23742.41    15.295752    13.246459     28.13835    5701.2392 
  990500      990.487    588.04324    24.171356   -433.20577   -409.03442   -3169.4044    5671.2188    8770.6258   -23950.058    15.295754    13.246461    28.138333    5701.2374 
  991000      990.987    576.54862    23.698873   -432.72544   -409.02656   -3177.3806     5796.139    10314.059    -25642.34    15.295757    13.246463    28.138315    5701.2357 
  991500      991.487    586.90191    24.124442   -433.14417   -409.01973    -4350.902    5286.6178    7727.2502   -26066.574    15.295759    13.246465    28.138298    5701.2339 
  992000      991.987    556.53186     22.87609   -431.88807   -409.01198      -1906.4    4231.7094    10283.348   -20234.258    15.295762    13.246467     28.13828    5701.2321 
  992500      992.487    567.44373    23.324619    -432.3281   -409.00348   -2531.6008    10986.192    9433.7928   -28014.787    15.295764    13.246469    28.138263    5701.2304 
  993000      992.987    533.81466    21.942305   -430.93897   -408.99667   -1509.1803    8572.3138    10194.301   -23294.155    15.295766    13.246471    28.138245    5701.2286 
  993500      993.487    596.76097    24.529696   -433.52002   -408.99032   -4335.9833    2924.0477    11826.302   -27758.299    15.295769    13.246473    28.138228    5701.2268 
  994000      993.987    574.88791     23.63061   -432.61311    -408.9825   -3596.6425    5566.7253    6601.9507   -22958.603    15.295771    13.246475     28.13821    5701.2251 
  994500      994.487    590.36764      24.2669   -433.24083   -408.97393   -2082.0595    7304.4774    11883.788   -25434.444    15.295774    13.246477    28.138193    5701.2233 
  995000      994.987    543.71166    22.349119    -431.3161   -408.96698   -3119.9811    5163.9446    12206.777   -26730.665    15.295776    13.246479    28.138175    5701.2215 
  995500      995.487     572.5333    23.533824   -432.49333   -408.95951   -3919.0178    7467.1539    8968.9628    -28193.17    15.295778    13.246481    28.138158    5701.2198 
  996000      995.987    592.53602    24.356031   -433.30775   -408.95172   -3627.4141    4199.9622    7888.7879   -22970.992    15.295781    13.246484     28.13814     5701.218 
  996500      996.487    569.44069    23.406704   -432.35047   -408.94376    -3138.651    7470.8967    9998.2242   -26885.074    15.295783    13.246486    28.138123    5701.2162 
  997000      996.987    534.40306    21.966491   -430.90259    -408.9361   -3771.2753    5130.7264    13037.425   -29481.978    15.295786    13.246488    28.138105    5701.2145 
  997500      997.487    595.16126    24.463941   -433.39328   -408.92934   -4316.8202     2950.839    11904.746   -27806.046    15.295788     13.24649    28.138088    5701.2127 
  998000      997.987    566.86747    23.300932   -432.22234   -408.92141   -3384.5599    5120.7483     10067.73   -25342.159     15.29579    13.246492     28.13807    5701.2109 
  998500      998.487    570.59509    23.454155   -432.36767   -408.91352    -2547.492    9596.9524     9982.161   -27221.589    15.295793    13.246494    28.138053    5701.2091 
  999000      998.987    584.14959    24.011309   -432.91699   -408.90568   -3115.1802    5746.6562    9461.6142   -24553.811    15.295795    13.246496    28.138035    5701.2074 
  999500      999.487    542.96645    22.318487   -431.21444   -408.89595   -1924.1988    10163.217    8963.5799   -24899.394    15.295798    13.246498    28.138018    5701.2056 
 1000000      999.987    585.27099    24.057404   -432.94558   -408.88818   -3244.4205    6270.2127    10439.718   -26443.192      15.2958      13.2465       28.138    5701.2038 
 1000013         1000    565.53635    23.246217   -432.13425   -408.88804    -2534.235    7458.5073    11088.593   -26149.806      15.2958      13.2465       28.138    5701.2038 
Loop time of 867.277 on 28 procs for 1000000 steps with 319 atoms

Performance: 99.622 ns/day, 0.241 hours/ns, 1153.034 timesteps/s
86.8% CPU use with 28 MPI tasks x no OpenMP threads

MPI task timing breakdown:
Section |  min time  |  avg time  |  max time  |%varavg| %total
---------------------------------------------------------------
Pair    | 716.32     | 751.67     | 789.73     |  59.5 | 86.67
Neigh   | 0.026187   | 0.037683   | 0.048227   |   3.3 |  0.00
Comm    | 67.443     | 101.56     | 137.56     | 170.9 | 11.71
Output  | 0.10087    | 0.10328    | 0.13018    |   1.6 |  0.01
Modify  | 4.5866     | 8.7927     | 18.623     | 139.6 |  1.01
Other   |            | 5.108      |            |       |  0.59

Nlocal:    11.3929 ave 15 max 6 min
Histogram: 1 3 0 3 3 3 5 3 2 5
Nghost:    650 ave 698 max 595 min
Histogram: 3 5 0 2 4 2 0 1 5 6
Neighs:    695.821 ave 951 max 342 min
Histogram: 2 2 0 4 2 3 6 2 1 6
FullNghs:  1391.64 ave 1881 max 721 min
Histogram: 2 2 1 3 3 2 5 3 1 6

Total # of neighbors = 38966
Ave neighs/atom = 122.15
Neighbor list builds = 561
Dangerous builds = 0

write_restart   POSCAR_1x1x1.rest

#unfix    1
#undump   1
Total wall time: 0:14:27
