LAMMPS (7 Dec 2015)
#----------- Initialize Simulation ------------ restart01
#processors	2 2 2
units		metal
boundary	p p p     ## periodic boundary condition  on x y z axis ##
atom_style atomic
#atom_modify map array sort 0 0.0

read_data	POSCAR_1x1x1.lammps
  triclinic box = (0 0 0) to (15.2625 13.2177 28.3829) with tilt (-7.63115 0 0)
  2 by 2 by 7 MPI processor grid
  reading atoms ...
  319 atoms

#----------- Define Potential -----------------
pair_style meam
pair_coeff * * MgAlZn.library.meam Mg Al Zn MgAlZn.parameter.meam Mg Al Zn 	#1=Mg 2=Al 3=Zn	#atoms/mass

#----------- Neighbor List --------------------
neighbor 2.0 bin
neigh_modify delay 10 check yes

#--------------  Run a simulation (minimization) ---------------------------------------
minimize       1.0e-4   1.0e-6   100   1000          #結構優化的條件
WARNING: Resetting reneighboring criteria during minimization (../min.cpp:168)
Neighbor list info ...
  2 neighbor list requests
  update every 1 steps, delay 0 steps, check yes
  max neighbors/atom: 2000, page size: 100000
  master list distance cutoff = 8
  ghost atom cutoff = 8
  binsize = 4 -> bins = 6 4 8
Memory usage per processor = 8.64807 Mbytes
Step Temp E_pair E_mol TotEng Press 
       0            0   -429.84964            0   -429.84964   -8824.7605 
      13            0   -451.64091            0   -451.64091   -23855.401 
Loop time of 0.0208887 on 28 procs for 13 steps with 319 atoms

86.8% CPU use with 28 MPI tasks x no OpenMP threads

Minimization stats:
  Stopping criterion = energy tolerance
  Energy initial, next-to-last, final = 
        -429.849643829     -451.595960431     -451.640905006
  Force two-norm initial, final = 19.2563 0.932791
  Force max component initial, final = 2.47796 0.178988
  Final line search alpha, max atom move = 0.367323 0.0657464
  Iterations, force evaluations = 13 23

MPI task timing breakdown:
Section |  min time  |  avg time  |  max time  |%varavg| %total
---------------------------------------------------------------
Pair    | 0.016829   | 0.017646   | 0.018887   |   0.4 | 84.48
Neigh   | 0          | 0          | 0          |   0.0 |  0.00
Comm    | 0.0011549  | 0.0023001  | 0.0031562  |   0.9 | 11.01
Output  | 0          | 0          | 0          |   0.0 |  0.00
Modify  | 0          | 0          | 0          |   0.0 |  0.00
Other   |            | 0.0009424  |            |       |  4.51

Nlocal:    11.3929 ave 15 max 6 min
Histogram: 2 0 2 4 3 1 4 5 4 3
Nghost:    648.893 ave 695 max 601 min
Histogram: 7 1 2 2 2 2 0 5 1 6
Neighs:    691.571 ave 951 max 344 min
Histogram: 2 0 4 3 3 3 1 5 2 5
FullNghs:  1383.14 ave 1835 max 714 min
Histogram: 2 0 2 4 3 1 4 3 4 5

Total # of neighbors = 38728
Ave neighs/atom = 121.404
Neighbor list builds = 0
Dangerous builds = 0
velocity all  create 600.0 4928459 #rot yes dist gaussian

#--------------  Run a simulation (Relaxation)  ----------------------------------------
fix  1  all  nvt   temp  600.0  600.0  100				#damping constant
#fix  2  all  npt   temp  393.0  393.0  50 iso 0.0 0.0 1000.0
fix  2  all deform 1 x final 0 15.2672 y final 0 13.2218 z final 0 28.3479 xy final -7.6335 units lattice
#fix  3  all  npt   temp  393.0  393.0  50 z 0.0 0.0 1000.0

#variable b equal 1
#fix 2 all efield  0.0  0.0  v_b
#compute pot all pe/atom


#----------- Output --------------------------
thermo	 500
timestep  0.001		#1.0 fs
thermo_style	custom step time temp ke pe etotal press pxx pyy pzz lx ly lz vol

dump 1 all custom 10000 dump.eq id type x y z
dump_modify 1 sort  id

run        1000000	#1000 ps
Neighbor list info ...
  2 neighbor list requests
  update every 1 steps, delay 10 steps, check yes
  max neighbors/atom: 2000, page size: 100000
  master list distance cutoff = 8
  ghost atom cutoff = 8
  binsize = 4 -> bins = 6 4 8
Memory usage per processor = 7.55523 Mbytes
Step Time Temp KinEng PotEng TotEng Press Pxx Pyy Pzz Lx Ly Lz Volume 
      13            0          600    24.662836   -451.64091   -426.97807   -19254.703    -4751.593   -9404.5226   -43607.993      15.2625      13.2177      28.3829    5725.8285 
     500        0.487    337.03932    13.853909   -440.82898   -426.97507   -12379.555    1506.4008    1528.1568   -40173.221    15.262502    13.217702    28.382883    5725.8268 
    1000        0.987    310.44097    12.760591    -439.7349   -426.97431   -13708.214    390.37691   -402.52869   -41112.489    15.262505    13.217704    28.382865     5725.825 
    1500        1.487    309.82987    12.735472   -439.70894   -426.97347   -12931.766    2079.5729   -2212.0606   -38662.812    15.262507    13.217706    28.382848    5725.8232 
    2000        1.987    307.69059    12.647537   -439.61966   -426.97212   -13287.305    832.88081    -1612.052   -39082.742    15.262509    13.217708     28.38283    5725.8215 
    2500        2.487    315.83634    12.982366   -439.95308   -426.97071   -12977.319    2185.9475   -1535.0298   -39582.875    15.262512     13.21771    28.382813    5725.8197 
    3000        2.987    309.40238      12.7179   -439.68724   -426.96934   -12991.504    3371.3594    418.37085   -42764.242    15.262514    13.217712    28.382795     5725.818 
    3500        3.487    317.88095    13.066409   -440.03386   -426.96745    -13322.54    828.72184   -3082.7253   -37713.618    15.262516    13.217714    28.382778    5725.8162 
    4000        3.987    309.46393     12.72043   -439.68546   -426.96503    -13063.09    2964.4626   -610.68859   -41543.045    15.262519    13.217716     28.38276    5725.8144 
    4500        4.487    308.62523    12.685956   -439.64809   -426.96214   -12674.405    1639.1207   -157.93831   -39504.396    15.262521    13.217718    28.382743    5725.8127 
    5000        4.987    317.52639    13.051835   -440.01119   -426.95936    -13075.28    2072.2336   -1316.3296   -39981.745    15.262523     13.21772    28.382725    5725.8109 
    5500        5.487    312.11501    12.829402   -439.78552   -426.95612   -12302.473    1263.8616   -48.952229   -38122.329    15.262526    13.217722    28.382708    5725.8092 
    6000        5.987    327.24929    13.451493    -440.4044   -426.95291   -13093.939    253.37647   -1192.5554   -38342.638    15.262528    13.217725     28.38269    5725.8074 
    6500        6.487    312.25621    12.835206   -439.78447   -426.94927    -13370.38    2842.9392   -1903.2949   -41050.784     15.26253    13.217727    28.382673    5725.8056 
    7000        6.987    315.42479     12.96545   -439.91077   -426.94532   -12557.193    1660.8304    2068.6591   -41401.068    15.262533    13.217729    28.382655    5725.8039 
    7500        7.487     319.9207    13.150253   -440.09082   -426.94057   -12132.147    3219.7593   -1090.0095    -38526.19    15.262535    13.217731    28.382638    5725.8021 
    8000        7.987    298.14826    12.255303   -439.19132   -426.93602   -11702.291    3376.0555   -1861.5144   -36621.413    15.262538    13.217733     28.38262    5725.8004 
    8500        8.487    322.14826    13.241816   -440.17296   -426.93114    -12222.03    4239.6699   -313.82397   -40591.937     15.26254    13.217735    28.382603    5725.7986 
    9000        8.987    306.90614    12.615293   -439.54089    -426.9256   -12790.856     2867.117   -331.72811   -40907.956    15.262542    13.217737    28.382585    5725.7968 
    9500        9.487    332.06892    13.649602   -440.56989   -426.92029   -13115.262    1420.5861    1582.6673   -42349.041    15.262545    13.217739    28.382568    5725.7951 
   10000        9.987    321.40495    13.211262   -440.12553   -426.91427   -12619.748    1921.0681   -464.44534   -39315.866    15.262547    13.217741     28.38255    5725.7933 
   10500       10.487    310.66812    12.769928   -439.67792   -426.90799   -12559.214    2524.2091    -1655.963   -38545.888    15.262549    13.217743    28.382533    5725.7916 
   11000       10.987    334.61928    13.754434   -440.65625   -426.90181   -12965.217    3414.7486    -1679.821   -40630.579    15.262552    13.217745    28.382515    5725.7898 
   11500       11.487     299.5391    12.312473   -439.20704   -426.89457    -12677.06    1202.0469    -953.6308   -38279.597    15.262554    13.217747    28.382498     5725.788 
   12000       11.987    319.05003    13.114464   -440.00179   -426.88733   -12511.947     882.7702   -477.27061    -37941.34    15.262556    13.217749     28.38248    5725.7863 
   12500       12.487    323.17123    13.283865   -440.16431   -426.88045   -14045.915   -80.733737   -457.23032   -41599.782    15.262559    13.217751    28.382463    5725.7845 
   13000       12.987    324.04881    13.319938   -440.19261   -426.87267   -13262.987    1164.6062   -2127.3065   -38826.262    15.262561    13.217753    28.382445    5725.7827 
   13500       13.487     312.0698    12.827544   -439.69199   -426.86444   -12861.549    1249.6355   -1552.3822     -38281.9    15.262563    13.217755    28.382428     5725.781 
   14000       13.987    310.90405    12.779626    -439.6354   -426.85577   -13177.221    1348.1597   -1174.7768   -39705.047    15.262566    13.217757     28.38241    5725.7792 
   14500       14.487    320.41265    13.170474   -440.01779   -426.84732   -11355.434    2882.6672   -421.61721   -36527.353    15.262568    13.217759    28.382393    5725.7775 
   15000       14.987    309.60643    12.726287   -439.56474   -426.83846   -12394.988    2289.1703   -195.08927   -39279.045     15.26257    13.217761    28.382375    5725.7757 
   15500       15.487    314.74876    12.937661   -439.76682   -426.82916   -12448.399     1346.769    374.74154   -39066.708    15.262573    13.217763    28.382358    5725.7739 
   16000       15.987    328.43959    13.500419   -440.32027   -426.81985   -12538.279    2618.6682    1769.9082   -42003.414    15.262575    13.217766     28.38234    5725.7722 
   16500       16.487    319.65575    13.139362   -439.94895   -426.80959   -11274.842    4973.1265    253.10365   -39050.755    15.262577    13.217768    28.382323    5725.7704 
   17000       16.987    327.74816    13.471998    -440.2714   -426.79941   -12062.024     1903.077    1017.0313    -39106.18     15.26258     13.21777    28.382305    5725.7687 
   17500       17.487     318.7892    13.103743   -439.89237   -426.78863    -13020.77    239.00678   -1249.7621   -38051.554    15.262582    13.217772    28.382288    5725.7669 
   18000       17.987    318.45474    13.089995   -439.86742   -426.77743   -12991.197    3188.6576    -731.7088    -41430.54    15.262585    13.217774     28.38227    5725.7651 
   18500       18.487     319.0757    13.115519   -439.88172    -426.7662   -12128.621    3331.9399    470.89223   -40188.694    15.262587    13.217776    28.382253    5725.7634 
   19000       18.987    326.78379    13.432358   -440.18737   -426.75501   -13285.455    3022.1134    -3672.657    -39205.82    15.262589    13.217778    28.382235    5725.7616 
   19500       19.487    305.14158    12.542761   -439.28568   -426.74292   -11885.417    2895.4584    371.46887   -38923.179    15.262592     13.21778    28.382218    5725.7599 
   20000       19.987     319.5137    13.133523   -439.86526   -426.73174   -12654.594    1669.1598   -172.61024   -39460.332    15.262594    13.217782      28.3822    5725.7581 
   20500       20.487    341.32399    14.030029   -440.74938   -426.71936   -11909.364    2636.6022    22.023173   -38386.718    15.262596    13.217784    28.382183    5725.7563 
   21000       20.987    323.74579    13.307482   -440.01394   -426.70646   -12745.527    1088.3576   -484.58201   -38840.358    15.262599    13.217786    28.382165    5725.7546 
   21500       21.487     307.6355    12.645273   -439.33869   -426.69341   -12516.271     4408.435   -1070.6184   -40886.629    15.262601    13.217788    28.382148    5725.7528 
   22000       21.987    342.61113    14.082937   -440.76362   -426.68068   -13545.771    5849.6648   -2402.1355   -44084.843    15.262603     13.21779     28.38213    5725.7511 
   22500       22.487      318.932    13.109613   -439.77669   -426.66707   -12887.034    835.15822   -3086.2513   -36410.009    15.262606    13.217792    28.382113    5725.7493 
   23000       22.987    315.31057    12.960755   -439.61346    -426.6527    -12243.67    1814.0824   -1002.6891   -37542.404    15.262608    13.217794    28.382095    5725.7475 
   23500       23.487    306.18074    12.585476    -439.2243   -426.63883   -12382.132    3990.1855    -643.9213   -40492.662     15.26261    13.217796    28.382078    5725.7458 
   24000       23.987    308.56964     12.68367   -439.30835   -426.62468   -12013.152    2638.1009   -1995.7743   -36681.781    15.262613    13.217798     28.38206     5725.744 
   24500       24.487     316.0694    12.991946   -439.60199   -426.61004   -11818.934    4713.9783   -1958.8874   -38211.894    15.262615      13.2178    28.382043    5725.7423 
   25000       24.987    328.33091    13.495952    -440.0914   -426.59545   -12796.643    3029.2293   -1024.4292    -40394.73    15.262617    13.217802    28.382025    5725.7405 
   25500       25.487    315.37095    12.963237   -439.54352   -426.58029   -12034.359    2388.5794    892.87709   -39384.534     15.26262    13.217804    28.382008    5725.7387 
   26000       25.987    319.56106     13.13547   -439.70019   -426.56471   -12972.308    3893.1333   -841.64824   -41968.409    15.262622    13.217807     28.38199     5725.737 
   26500       26.487    349.46106    14.364501   -440.91409   -426.54959   -13168.311    1052.4602   -1038.6341   -39518.758    15.262624    13.217809    28.381973    5725.7352 
   27000       26.987    335.89698    13.806953   -440.34088   -426.53392   -13447.176   -790.04519   -1791.1386   -37760.343    15.262627    13.217811    28.381955    5725.7334 
   27500       27.487    325.63024    13.384942   -439.90255   -426.51761   -11689.971    4586.3942   -3140.8996   -36515.406    15.262629    13.217813    28.381938    5725.7317 
   28000       27.987    313.94535    12.904637   -439.40543   -426.50079   -12252.634    3648.2568   -618.61746   -39787.542    15.262632    13.217815     28.38192    5725.7299 
   28500       28.487    308.16692    12.667117   -439.15136   -426.48424   -11722.563    1224.5021   -962.95898   -35429.231    15.262634    13.217817    28.381903    5725.7282 
   29000       28.987    331.06522    13.608345     -440.076   -426.46765   -12466.577    3476.7552   -3241.4516   -37635.034    15.262636    13.217819    28.381885    5725.7264 
   29500       29.487    317.68543    13.058373    -439.5092   -426.45082   -11558.897     2806.699     476.9042   -37960.295    15.262639    13.217821    28.381868    5725.7246 
   30000       29.987    331.26539    13.616573   -440.05067    -426.4341   -12591.576    3661.6084    714.74148   -42151.079    15.262641    13.217823     28.38185    5725.7229 
   30500       30.487    330.65544    13.591501   -440.00851   -426.41701   -13217.368    907.53134   -3407.1498   -37152.484    15.262643    13.217825    28.381833    5725.7211 
   31000       30.987    333.38306    13.703619   -440.10319   -426.39957   -11943.941    4703.8931    1.7164568   -40537.433    15.262646    13.217827    28.381815    5725.7194 
   31500       31.487    310.58178    12.766379   -439.14824   -426.38186    -12839.34    3163.4646    402.35442   -42083.839    15.262648    13.217829    28.381798    5725.7176 
   32000       31.987    318.78747    13.103672   -439.46768   -426.36401   -12701.339    911.00027   -1809.5244   -37205.493     15.26265    13.217831     28.38178    5725.7158 
   32500       32.487    331.33759    13.619541   -439.96549   -426.34595   -11916.357     2865.135   -1980.9657   -36633.241    15.262653    13.217833    28.381763    5725.7141 
   33000       32.987    330.14112     13.57036   -439.89847   -426.32811   -11593.892    6445.9641   -20.863371   -41206.778    15.262655    13.217835    28.381745    5725.7123 
   33500       33.487    321.31819    13.207696   -439.51739    -426.3097     -13321.8    326.85793    2003.2902   -42295.549    15.262657    13.217837    28.381728    5725.7106 
   34000       33.987    324.24632    13.328056   -439.61948   -426.29143   -11547.405    983.42593   -49.923919   -35575.718     15.26266    13.217839     28.38171    5725.7088 
   34500       34.487    328.37105    13.497602   -439.77068   -426.27308   -11710.977    3821.3805   -1027.1145   -37927.198    15.262662    13.217841    28.381693     5725.707 
   35000       34.987    328.40828    13.499133   -439.75368   -426.25454    -12776.06    2775.6602   -1292.6514    -39811.19    15.262664    13.217843    28.381675    5725.7053 
   35500       35.487    323.47567    13.296379   -439.53198    -426.2356   -12758.004    1520.5822   -1613.4391   -38181.155    15.262667    13.217845    28.381658    5725.7035 
   36000       35.987    326.37656    13.415619   -439.63243   -426.21681   -12516.236    1950.7545    1017.2728   -40516.736    15.262669    13.217848     28.38164    5725.7018 
   36500       36.487    319.88891    13.148946   -439.34667   -426.19772   -11590.486     4230.345   -190.64103   -38811.162    15.262671     13.21785    28.381623       5725.7 
   37000       36.987    322.12336    13.240792   -439.41983   -426.17904   -13063.252    3126.2227   -2056.9993   -40258.979    15.262674    13.217852    28.381605    5725.6982 
   37500       37.487    327.56999    13.464675   -439.62433   -426.15965   -11456.298    1350.8663    2180.0435   -37899.803    15.262676    13.217854    28.381588    5725.6965 
   38000       37.987    328.32426    13.495679   -439.63699   -426.14131   -12583.393    2202.7471    1860.5464   -41813.471    15.262679    13.217856     28.38157    5725.6947 
   38500       38.487    327.79492     13.47392   -439.59642    -426.1225   -12820.547    1344.4419   -2056.5691   -37749.513    15.262681    13.217858    28.381553    5725.6929 
   39000       38.987    333.95341    13.727063   -439.82999   -426.10293   -11623.874    5896.9739    -2257.257    -38511.34    15.262683     13.21786    28.381535    5725.6912 
   39500       39.487    334.78799    13.761369   -439.84544   -426.08407   -13351.035     2630.129   -1343.8792   -41339.354    15.262686    13.217862    28.381518    5725.6894 
   40000       39.987     329.1015    13.527627   -439.59253    -426.0649   -12778.692    3473.1816   -1334.8634   -40474.395    15.262688    13.217864      28.3815    5725.6877 
   40500       40.487    325.85164    13.394042   -439.43993   -426.04589   -12408.133    331.04545     1596.137   -39151.582     15.26269    13.217866    28.381483    5725.6859 
   41000       40.987    316.84592    13.023865   -439.05014   -426.02628   -11620.009    2024.4156    2667.2026   -39551.644    15.262693    13.217868    28.381465    5725.6841 
   41500       41.487    337.26902    13.863351   -439.87088   -426.00753    -12190.16    3187.1032   -12.199592   -39745.383    15.262695     13.21787    28.381448    5725.6824 
   42000       41.987    334.93918    13.767583   -439.75611   -425.98853   -13797.109    1511.3892   -932.61792   -41970.097    15.262697    13.217872     28.38143    5725.6806 
   42500       42.487    327.59235    13.465594   -439.43484   -425.96925   -11882.182    3819.3256   -2030.7302   -37435.141      15.2627    13.217874    28.381413    5725.6789 
   43000       42.987    330.43176    13.582307   -439.53318   -425.95087   -11907.369    2948.8204    131.99231    -38802.92    15.262702    13.217876    28.381395    5725.6771 
   43500       43.487    322.87286      13.2716   -439.20329   -425.93169   -12361.444    1583.6672    1408.9699    -40076.97    15.262704    13.217878    28.381378    5725.6753 
   44000       43.987    310.66183     12.76967   -438.68253   -425.91286   -12547.179    1381.8847   -1945.2506   -37078.171    15.262707     13.21788     28.38136    5725.6736 
   44500       44.487    331.52775    13.627358   -439.52164   -425.89429   -11081.785    4652.3173   -2201.8242   -35695.847    15.262709    13.217882    28.381343    5725.6718 
   45000       44.987    343.12998    14.104264   -439.98039   -425.87612   -12948.262    2685.4701   -834.84654   -40695.408    15.262711    13.217884    28.381325    5725.6701 
   45500       45.487    323.42603    13.294338   -439.15103   -425.85669   -12074.579    3626.1877    1422.2724   -41272.196    15.262714    13.217886    28.381308    5725.6683 
   46000       45.987    328.59895     13.50697   -439.34544   -425.83847   -12824.771    3664.7474   -4253.7115   -37885.348    15.262716    13.217889     28.38129    5725.6665 
   46500       46.487    305.91441    12.574528   -438.39365   -425.81912   -11569.179    5423.0206   -54.023025   -40076.534    15.262718    13.217891    28.381273    5725.6648 
   47000       46.987     333.6232     13.71349   -439.51461   -425.80112   -11661.861    3529.8684     590.0092   -39105.461    15.262721    13.217893    28.381255     5725.663 
   47500       47.487    318.23965    13.081154   -438.86337   -425.78222   -12411.708    3117.6537   -1830.3648   -38522.413    15.262723    13.217895    28.381238    5725.6613 
   48000       47.987    333.43484    13.705748   -439.47011   -425.76436   -13293.747    1787.0482   -2653.5408   -39014.749    15.262726    13.217897     28.38122    5725.6595 
   48500       48.487    324.29771    13.330169   -439.07605   -425.74588   -12708.196    3870.4961   -1977.5928   -40017.491    15.262728    13.217899    28.381203    5725.6577 
   49000       48.987    341.77038    14.048378   -439.77642   -425.72805    -12366.03    1600.7865   -962.97514   -37735.902     15.26273    13.217901    28.381185     5725.656 
   49500       49.487    326.34139    13.414174   -439.12378   -425.70961    -11387.18    3555.0252     1781.735     -39498.3    15.262733    13.217903    28.381168    5725.6542 
   50000       49.987    325.79037    13.391524   -439.08325   -425.69173   -12110.813    3588.5689   -561.25569   -39359.752    15.262735    13.217905     28.38115    5725.6524 
   50500       50.487    330.23873    13.574372   -439.24797    -425.6736   -13396.536      27.8847   -16.293479   -40201.198    15.262737    13.217907    28.381133    5725.6507 
   51000       50.987    326.07079     13.40305   -439.05895    -425.6559   -13688.027    1135.7275   -3250.6923   -38949.116     15.26274    13.217909    28.381115    5725.6489 
   51500       51.487    327.15552    13.447638   -439.08614    -425.6385   -11606.465    3347.7074    331.97204   -38499.073    15.262742    13.217911    28.381098    5725.6472 
   52000       51.987    338.59087    13.917685   -439.53871   -425.62102   -12350.689    2829.9572    -835.3191   -39046.706    15.262744    13.217913     28.38108    5725.6454 
   52500       52.487    343.33096    14.112525   -439.71591   -425.60339   -12626.248    2380.7222   -1337.2374   -38922.229    15.262747    13.217915    28.381063    5725.6436 
   53000       52.987    341.59126    14.041015   -439.62724   -425.58622   -12538.444     2092.888   -308.49022    -39399.73    15.262749    13.217917    28.381045    5725.6419 
   53500       53.487     339.9449    13.973342   -439.54222   -425.56888   -11659.789    4152.9927   -95.975899   -39036.384    15.262751    13.217919    28.381028    5725.6401 
   54000       53.987    352.61758    14.494249   -440.04576   -425.55151   -13012.364    1342.2336   -1629.8296   -38749.497    15.262754    13.217921     28.38101    5725.6384 
   54500       54.487    350.81912    14.420324    -439.9548   -425.53447   -13645.313    1630.7364    464.50988   -43031.187    15.262756    13.217923    28.380993    5725.6366 
   55000       54.987    339.57403    13.958097   -439.47495   -425.51685   -12434.598    941.76907    3362.8004   -41608.364    15.262758    13.217925    28.380975    5725.6348 
   55500       55.487    334.45627    13.747733   -439.24806   -425.50033   -12179.094     2642.738   -2384.5479   -36795.474    15.262761    13.217927    28.380958    5725.6331 
   56000       55.987    327.82385     13.47511   -438.95835   -425.48324   -11893.723    4560.1015      442.839   -40684.109    15.262763     13.21793     28.38094    5725.6313 
   56500       56.487    335.03133    13.771371   -439.23799   -425.46662   -11688.964    4882.5936   -1281.9863   -38667.498    15.262765    13.217932    28.380923    5725.6296 
   57000       56.987    338.61415    13.918642   -439.36866   -425.45002    -11811.85     5551.349   -714.91105   -40271.987    15.262768    13.217934    28.380905    5725.6278 
   57500       57.487    340.96879    14.015429    -439.4491   -425.43367   -12604.923    4824.2759    -2425.139   -40213.905     15.26277    13.217936    28.380888     5725.626 
   58000       57.987    318.54511     13.09371   -438.51014   -425.41643   -12146.175    4588.5544   -482.80278   -40544.277    15.262773    13.217938     28.38087    5725.6243 
   58500       58.487    336.47158    13.830572   -439.23101   -425.40043   -11483.074    6967.5008    -1156.019   -40260.703    15.262775     13.21794    28.380853    5725.6225 
   59000       58.987    321.56659    13.217906   -438.60187   -425.38396   -10809.828    4825.8568    1551.1812   -38806.521    15.262777    13.217942    28.380835    5725.6208 
   59500       59.487    329.41899    13.540677   -438.90862   -425.36795    -12203.97     695.8939   -1924.1754   -35383.629     15.26278    13.217944    28.380818     5725.619 
   60000       59.987    311.88699    12.820029   -438.17136   -425.35133   -11533.737    2183.4355     3630.527   -40415.175    15.262782    13.217946      28.3808    5725.6172 
   60500       60.487    334.61977    13.754454   -439.08998   -425.33552   -12600.407    2736.2385   -1855.2224   -38682.236    15.262784    13.217948    28.380783    5725.6155 
   61000       60.987    329.43537    13.541351    -438.8607   -425.31935   -11392.613    2865.3557    1572.4642   -38615.658    15.262787     13.21795    28.380765    5725.6137 
   61500       61.487    349.31925    14.358672   -439.66231   -425.30364   -12515.137    763.01704   -2814.7972    -35493.63    15.262789    13.217952    28.380748    5725.6119 
   62000       61.987    332.74852    13.677537   -438.96484    -425.2873   -11953.507    3150.8444   -775.23113   -38236.136    15.262791    13.217954     28.38073    5725.6102 
   62500       62.487    345.46375    14.200193   -439.47206   -425.27187   -11933.976     2764.007    1348.6604   -39914.594    15.262794    13.217956    28.380713    5725.6084 
   63000       62.987    341.50472    14.037458   -439.29371   -425.25625   -12177.252     4056.427    1092.5762   -41680.759    15.262796    13.217958    28.380695    5725.6067 
   63500       63.487    331.31453    13.618593   -438.85839    -425.2398   -11422.567    3127.3927   -59.438902   -37335.654    15.262798     13.21796    28.380678    5725.6049 
   64000       63.987     313.6372    12.891971   -438.11575   -425.22378   -13456.122    2452.3963   -3609.3168   -39211.444    15.262801    13.217962     28.38066    5725.6031 
   64500       64.487    325.82119    13.392791   -438.60097   -425.20818   -11607.771    4580.7862    719.38235   -40123.482    15.262803    13.217964    28.380643    5725.6014 
   65000       64.987    329.69151    13.551879    -438.7444   -425.19252   -12503.604    3388.2913    93.381063   -40992.484    15.262805    13.217966    28.380625    5725.5996 
   65500       65.487     354.6533    14.577927   -439.75526   -425.17733   -12106.732    3535.5446   -1276.4079   -38579.333    15.262808    13.217968    28.380608    5725.5979 
   66000       65.987    348.28959    14.316348   -439.47808   -425.16173   -11773.853    3081.1978   -1765.6283   -36637.128     15.26281    13.217971     28.38059    5725.5961 
   66500       66.487    325.51629    13.380258   -438.52609   -425.14583   -12442.484    4891.4088   -2325.5169   -39893.343    15.262812    13.217973    28.380573    5725.5943 
   67000       66.987    320.62927    13.179378   -438.30917   -425.12979   -11849.702    2422.5814   -1328.0211   -36643.666    15.262815    13.217975    28.380555    5725.5926 
   67500       67.487    324.95896    13.357349   -438.47181   -425.11446   -11328.318    5926.5326    566.04419   -40477.529    15.262817    13.217977    28.380538    5725.5908 
   68000       67.987    337.41256    13.869251     -438.968   -425.09875   -12059.911    4592.6479   -934.40638   -39837.974     15.26282    13.217979     28.38052    5725.5891 
   68500       68.487     322.8651    13.271281   -438.35391   -425.08263   -10689.979    6518.2372    -890.6939    -37697.48    15.262822    13.217981    28.380503    5725.5873 
   69000       68.987    344.40212    14.156555   -439.22383   -425.06728    -11471.05    4236.9209     52.58704   -38702.659    15.262824    13.217983    28.380485    5725.5855 
   69500       69.487    320.02291    13.154454   -438.20584   -425.05139   -11519.744    4305.3017    1816.5165    -40681.05    15.262827    13.217985    28.380468    5725.5838 
   70000       69.987    336.34001    13.825164   -438.86068   -425.03552   -12572.422    3100.1576    303.68305   -41121.106    15.262829    13.217987     28.38045     5725.582 
   70500       70.487    326.40902    13.416953   -438.43672   -425.01977   -12559.823   -238.61285    1221.7322   -38662.589    15.262831    13.217989    28.380433    5725.5803 
   71000       70.987    329.30365    13.535937   -438.53993   -425.00399   -11692.327    2964.2128   -306.37769   -37734.815    15.262834    13.217991    28.380415    5725.5785 
   71500       71.487    322.67716    13.263556   -438.25153   -424.98798   -11623.112    2068.5503     951.1845   -37889.072    15.262836    13.217993    28.380398    5725.5767 
   72000       71.987    359.93256    14.794929   -439.76756   -424.97263   -11573.463    2872.4157   -2137.1238   -35455.681    15.262838    13.217995     28.38038     5725.575 
   72500       72.487    344.86288    14.175494   -439.13217   -424.95668   -11909.743    5441.5234   -724.86683   -40445.887    15.262841    13.217997    28.380363    5725.5732 
   73000       72.987     357.7308    14.704426   -439.64546   -424.94103   -12522.354    3709.0035   -2262.2549   -39013.811    15.262843    13.217999    28.380345    5725.5714 
   73500       73.487    335.29969    13.782402   -438.70733   -424.92493    -11248.38    2176.1824    4603.6157    -40524.94    15.262845    13.218001    28.380328    5725.5697 
   74000       73.987    356.54176    14.655551    -439.5653   -424.90975   -11538.843    2784.3739    302.87879    -37703.78    15.262848    13.218003     28.38031    5725.5679 
   74500       74.487     343.0434    14.100705   -438.99398   -424.89328   -12279.882    1616.1239    244.79228   -38700.561     15.26285    13.218005    28.380293    5725.5662 
   75000       74.987    336.56829    13.834548   -438.71143   -424.87688    -11747.11    5933.3432    -1750.191   -39424.481    15.262852    13.218007    28.380275    5725.5644 
   75500       75.487    342.40782     14.07458   -438.93608    -424.8615   -12375.076    3022.2821   -434.94678   -39712.563    15.262855    13.218009    28.380258    5725.5626 
   76000       75.987    348.72982    14.334444   -439.17981   -424.84536   -10959.616    5959.5085   -912.34973   -37926.008    15.262857    13.218012     28.38024    5725.5609 
   76500       76.487    348.21774    14.313395   -439.14273   -424.82933   -11752.714     3610.449   -815.21665   -38053.375    15.262859    13.218014    28.380223    5725.5591 
   77000       76.987      343.014    14.099497   -438.91207   -424.81257   -10609.868    6268.6473   -1118.5178   -36979.735    15.262862    13.218016    28.380205    5725.5574 
   77500       77.487    351.31227    14.440594   -439.23738   -424.79679   -11284.985    2209.5872     2675.862   -38740.403    15.262864    13.218018    28.380188    5725.5556 
   78000       77.987    350.67835    14.414537   -439.19472   -424.78018   -11802.257    4648.8786    932.29652   -40987.946    15.262867     13.21802     28.38017    5725.5538 
   78500       78.487    328.54643    13.504811   -438.26846   -424.76365   -12161.302    4821.6864     -350.609   -40954.984    15.262869    13.218022    28.380153    5725.5521 
   79000       78.987    328.57471    13.505973   -438.25293   -424.74696   -10121.562    7994.6691   -2278.3174   -36081.037    15.262871    13.218024    28.380135    5725.5503 
   79500       79.487    335.11634    13.774865    -438.5057   -424.73083   -10826.516    5564.8538    990.04288   -39034.443    15.262874    13.218026    28.380118    5725.5486 
   80000       79.987    346.41913    14.239463   -438.95438   -424.71492   -12556.435    3321.7459   -431.67489   -40559.377    15.262876    13.218028      28.3801    5725.5468 
   80500       80.487    343.90975    14.136316   -438.83401   -424.69769   -13229.334    1910.8931   -1721.9648   -39876.929    15.262878     13.21803    28.380083     5725.545 
   81000       80.987    337.84284    13.886938   -438.56771   -424.68077    -11714.93    4798.7642    161.68959   -40105.243    15.262881    13.218032    28.380065    5725.5433 
   81500       81.487    335.01596    13.770739   -438.43455   -424.66381   -11301.702    1781.3449   -1054.7357   -34631.714    15.262883    13.218034    28.380048    5725.5415 
   82000       81.987    354.63349    14.577112   -439.22411   -424.64699   -13495.669    1521.1808   -2060.3557   -39947.833    15.262885    13.218036     28.38003    5725.5397 
   82500       82.487    344.82649    14.173998   -438.80416   -424.63016   -12665.696    2061.1565   -1592.5279   -38465.715    15.262888    13.218038    28.380013     5725.538 
   83000       82.987    344.15328    14.146326    -438.7591   -424.61277   -12470.895    3372.3846   -35.919496   -40749.151     15.26289     13.21804    28.379995    5725.5362 
   83500       83.487    315.12381    12.953078   -437.54819   -424.59512   -10463.665    3261.0581   -526.59103   -34125.463    15.262892    13.218042    28.379978    5725.5345 
   84000       83.987    343.29807    14.111173   -438.69027    -424.5791   -11799.106     3794.128    1247.7679   -40439.215    15.262895    13.218044     28.37996    5725.5327 
   84500       84.487      330.088    13.568177   -438.12938    -424.5612   -11397.765    2546.3414    2601.9885   -39341.625    15.262897    13.218046    28.379943    5725.5309 
   85000       84.987    363.24389    14.931041    -439.4755   -424.54446   -11902.144    2278.9613    417.24183   -38402.636    15.262899    13.218048    28.379925    5725.5292 
   85500       85.487    344.97943    14.180285   -438.70676   -424.52648   -11795.109    2438.9126    479.30046   -38303.541    15.262902     13.21805    28.379908    5725.5274 
   86000       85.987    349.83999    14.380077   -438.88884   -424.50877   -12514.903    2374.4511    480.38694   -40399.546    15.262904    13.218053     28.37989    5725.5257 
   86500       86.487    349.96704    14.385299   -438.87655   -424.49125   -12105.999    4377.2811   -3131.6164   -37563.663    15.262906    13.218055    28.379873    5725.5239 
   87000       86.987    351.82748    14.461772   -438.93577   -424.47399   -12390.496    2457.8014    355.07432   -39984.365    15.262909    13.218057    28.379855    5725.5221 
   87500       87.487    348.57278    14.327989   -438.78366   -424.45567   -12224.708    3438.8334   -495.34927   -39617.607    15.262911    13.218059    28.379838    5725.5204 
   88000       87.987    340.83207    14.009809   -438.44785   -424.43804   -12685.544    737.79096    2802.5154    -41596.94    15.262914    13.218061     28.37982    5725.5186 
   88500       88.487    344.18959    14.147819   -438.56782   -424.42001   -11340.911    4041.9128   -305.50133   -37759.144    15.262916    13.218063    28.379803    5725.5169 
   89000       88.987    360.84073     14.83226   -439.23402   -424.40176   -12298.094    3414.3561   -715.46047   -39593.179    15.262918    13.218065    28.379785    5725.5151 
   89500       89.487    332.55707    13.669667   -438.05295   -424.38328   -10987.847    4557.1877   -239.86844   -37280.859    15.262921    13.218067    28.379768    5725.5133 
   90000       89.987     341.4383    14.034728   -438.40005   -424.36532   -11901.254    3877.2893   -2133.0747   -37447.977    15.262923    13.218069     28.37975    5725.5116 
   90500       90.487    341.51609    14.037925   -438.38533   -424.34741   -11336.354    4464.5145    318.16262   -38791.738    15.262925    13.218071    28.379733    5725.5098 
   91000       90.987     358.3531    14.730006    -439.0592   -424.32919   -12006.398    3415.3109    703.41298   -40137.916    15.262928    13.218073    28.379715     5725.508 
   91500       91.487    349.90615    14.382796   -438.69283   -424.31004   -11835.868    4019.6895    -1798.488   -37728.806     15.26293    13.218075    28.379698    5725.5063 
   92000       91.987    348.49939    14.324972   -438.61699   -424.29202   -11362.302    5867.3679   -993.35284    -38960.92    15.262932    13.218077     28.37968    5725.5045 
   92500       92.487    347.95629    14.302648   -438.57559   -424.27294   -10985.757    6118.7066    2380.0018   -41455.979    15.262935    13.218079    28.379663    5725.5028 
   93000       92.987    345.61959    14.206598   -438.46109   -424.25449   -11733.343    2512.8358    -594.4445   -37118.421    15.262937    13.218081    28.379645     5725.501 
   93500       93.487    355.22282    14.601337   -438.83701   -424.23567   -10781.766    3881.1308   -379.09449   -35847.334    15.262939    13.218083    28.379628    5725.4992 
   94000       93.987    359.67727    14.784436   -439.00114    -424.2167   -11910.987    6327.2334   -3898.3512   -38161.845    15.262942    13.218085     28.37961    5725.4975 
   94500       94.487    364.06753    14.964896   -439.16275   -424.19786   -11586.723    2718.7779     286.0805   -37765.027    15.262944    13.218087    28.379593    5725.4957 
   95000       94.987    372.11988    15.295886   -439.47468   -424.17879   -11255.754    3772.4683    1160.0191   -38699.748    15.262946    13.218089    28.379575     5725.494 
   95500       95.487    339.53992    13.956695   -438.11539   -424.15869   -11140.265    4963.1666    2053.8474    -40437.81    15.262949    13.218091    28.379558    5725.4922 
   96000       95.987    349.58645    14.369655   -438.50954   -424.13989    -12159.78    3719.3696   -2780.7819   -37417.927    15.262951    13.218094     28.37954    5725.4904 
   96500       96.487    342.59956    14.082461   -438.20232   -424.11985    -11368.73    1785.4904    1425.6242   -37317.303    15.262953    13.218096    28.379523    5725.4887 
   97000       96.987    342.75222    14.088736   -438.18972   -424.10098   -10509.549    3786.5254     1015.255   -36330.426    15.262956    13.218098    28.379505    5725.4869 
   97500       97.487      352.894    14.505611   -438.58693   -424.08131   -10664.525    4988.2595   -296.11174   -36685.724    15.262958      13.2181    28.379488    5725.4852 
   98000       97.987    355.82206    14.625968   -438.68699   -424.06102   -11153.009    2839.9663    582.87517   -36881.867    15.262961    13.218102     28.37947    5725.4834 
   98500       98.487    354.74325    14.581624   -438.62295   -424.04132   -11650.474    5985.2396   -681.78837   -40254.874    15.262963    13.218104    28.379453    5725.4816 
   99000       98.987    350.66284      14.4139   -438.43514   -424.02124    -11861.16    4105.9975   -1780.7941   -37908.682    15.262965    13.218106    28.379435    5725.4799 
   99500       99.487    356.18037    14.640697   -438.64197   -424.00127   -11614.716    3541.1519    2238.8669   -40624.166    15.262968    13.218108    28.379418    5725.4781 
  100000       99.987    346.31354    14.235123   -438.21674   -423.98162   -11002.908    4779.1564     1872.881   -39660.761     15.26297     13.21811      28.3794    5725.4764 
  100500      100.487     356.1799    14.640677   -438.60171   -423.96104    -10585.33    3177.6186    2079.3636   -37012.974    15.262972    13.218112    28.379383    5725.4746 
  101000      100.987     356.9259    14.671341    -438.6126   -423.94126   -11603.955    1022.1963     2669.742   -38503.802    15.262975    13.218114    28.379365    5725.4728 
  101500      101.487    363.86005    14.956368   -438.87723   -423.92086   -12547.001    3521.5963   -1434.2172   -39728.383    15.262977    13.218116    28.379348    5725.4711 
  102000      101.987    343.97824    14.139131    -438.0399   -423.90077    -10763.87     1717.261    2867.0704    -36875.94    15.262979    13.218118     28.37933    5725.4693 
  102500      102.487     354.3541    14.565628   -438.44567   -423.88004   -11479.844    2630.8672   -50.513713   -37019.885    15.262982     13.21812    28.379313    5725.4675 
  103000      102.987    345.97252    14.221106   -438.08057   -423.85946   -10569.499    5552.1176   -535.52336   -36725.092    15.262984    13.218122    28.379295    5725.4658 
  103500      103.487    365.61711    15.028591   -438.86758   -423.83899   -10808.233    3369.1696    1777.9807   -37571.849    15.262986    13.218124    28.379278     5725.464 
  104000      103.987     363.1348    14.926557   -438.74488   -423.81832   -12418.134    6250.5461    -590.4512   -42914.497    15.262989    13.218126     28.37926    5725.4623 
  104500      104.487    383.92094    15.780965   -439.57863   -423.79766   -11441.619    3453.6636   -178.84175   -37599.679    15.262991    13.218128    28.379243    5725.4605 
  105000      104.987     353.4598    14.528868   -438.30555   -423.77669   -11056.257      4755.64   -2136.9032   -35787.506    15.262993     13.21813    28.379225    5725.4587 
  105500      105.487    355.49418    14.612491   -438.36812   -423.75563   -11902.962     4773.756   -338.34429   -40144.298    15.262996    13.218132    28.379208     5725.457 
  106000      105.987    371.63609       15.276   -439.01127   -423.73527   -12299.877    1806.5136   -1640.5594   -37065.587    15.262998    13.218135     28.37919    5725.4552 
  106500      106.487    350.93542    14.425104   -438.13861    -423.7135   -11211.641     2520.583    2493.5553    -38649.06       15.263    13.218137    28.379173    5725.4535 
  107000      106.987    360.64145    14.824068   -438.51708   -423.69302   -12650.044    2668.8529   -1181.3583   -39437.627    15.263003    13.218139    28.379155    5725.4517 
  107500      107.487    359.24874    14.766821   -438.43778   -423.67096   -11382.772    4647.1493   -3479.0645   -35316.401    15.263005    13.218141    28.379138    5725.4499 
  108000      107.987    346.72948     14.25222   -437.90186   -423.64964   -10448.684    5973.2915     1177.911   -38497.256    15.263008    13.218143     28.37912    5725.4482 
  108500      108.487    358.86099    14.750883   -438.37974   -423.62886   -11361.976    3064.9867    -8.503462    -37142.41     15.26301    13.218145    28.379103    5725.4464 
  109000      108.987    362.58947    14.904141   -438.51175   -423.60761   -12054.487    5107.2155    590.70343   -41861.381    15.263012    13.218147    28.379085    5725.4447 
  109500      109.487    371.72085    15.279484   -438.86563   -423.58615     -11556.6    4858.7333   -484.14233   -39044.392    15.263015    13.218149    28.379068    5725.4429 
  110000      109.987    349.30602    14.358128   -437.92282   -423.56469   -10845.542    3033.9418    443.37098   -36013.939    15.263017    13.218151     28.37905    5725.4411 
  110500      110.487    359.62897     14.78245   -438.32641   -423.54396   -11584.253    4963.6932    1760.8968   -41477.348    15.263019    13.218153    28.379033    5725.4394 
  111000      110.987    353.03571    14.511436   -438.03346   -423.52202   -11311.877    2626.9575     675.0562   -37237.645    15.263022    13.218155    28.379015    5725.4376 
  111500      111.487    368.29709    15.138751   -438.63937   -423.50062   -10977.853    6912.9406   -840.98838   -39005.511    15.263024    13.218157    28.378998    5725.4358 
  112000      111.987    379.54859    15.601241   -439.08022   -423.47898   -11976.377    3593.3935    7.9624202   -39530.486    15.263026    13.218159     28.37898    5725.4341 
  112500      112.487    346.18669    14.229909   -437.68683   -423.45693   -10990.621    4538.2231   -1313.9209   -36196.166    15.263029    13.218161    28.378963    5725.4323 
  113000      112.987    376.16701    15.462242   -438.89723   -423.43499   -10980.386    4570.5452    3193.5908   -40705.294    15.263031    13.218163    28.378945    5725.4306 
  113500      113.487     361.2794    14.850291   -438.26347   -423.41318   -11299.704    2814.9157    2814.6692   -39528.695    15.263033    13.218165    28.378928    5725.4288 
  114000      113.987    362.48449    14.899826   -438.29116   -423.39133   -10821.948    3921.4198    2711.5852   -39098.848    15.263036    13.218167     28.37891     5725.427 
  114500      114.487    350.39255     14.40279   -437.77176   -423.36897   -11331.185    4372.9201   -210.22314   -38156.253    15.263038    13.218169    28.378893    5725.4253 
  115000      114.987    350.02751    14.387785   -437.73501   -423.34722    -10346.64    4481.4577    776.38021   -36297.758     15.26304    13.218171    28.378875    5725.4235 
  115500      115.487    368.89108    15.163167   -438.48837    -423.3252   -11182.922    4314.9885   -59.444976    -37804.31    15.263043    13.218173    28.378858    5725.4218 
  116000      115.987     377.2853    15.508209   -438.81076   -423.30255   -11322.884    2611.2585    900.36312   -37480.274    15.263045    13.218176     28.37884      5725.42 
  116500      116.487    356.03509    14.634725   -437.91487   -423.28014   -9902.8495    3324.8596    811.24922   -33844.657    15.263047    13.218178    28.378823    5725.4182 
  117000      116.987    364.09306    14.965945   -438.22346   -423.25752   -11785.483    5852.4305    1181.4986   -42390.379     15.26305     13.21818    28.378805    5725.4165 
  117500      117.487     375.8742    15.450206   -438.68564   -423.23543   -11464.818    3299.7253     986.5633   -38680.742    15.263052    13.218182    28.378788    5725.4147 
  118000      117.987    363.68576    14.949204   -438.16237   -423.21317   -10569.627    3103.5364    156.44908   -34968.866    15.263055    13.218184     28.37877     5725.413 
  118500      118.487    364.06269    14.964697   -438.15615   -423.19145   -10328.901    3587.3061    1900.7274   -36474.736    15.263057    13.218186    28.378753    5725.4112 
  119000      118.987    360.49126    14.817894   -437.98647   -423.16858   -11577.349    4103.8746     -134.229   -38701.692    15.263059    13.218188    28.378735    5725.4094 
  119500      119.487    353.69033    14.538344   -437.68483   -423.14648   -10531.842    4256.0759    2080.6875    -37932.29    15.263062     13.21819    28.378718    5725.4077 
  120000      119.987    361.66428    14.866111   -437.98941    -423.1233   -11800.311    3853.9174   -786.10018   -38468.751    15.263064    13.218192      28.3787    5725.4059 
  120500      120.487     349.6679    14.373003   -437.47306   -423.10005   -11547.105    3431.9608    107.29961   -38180.575    15.263066    13.218194    28.378683    5725.4041 
  121000      120.987    369.39903    15.184046   -438.26208   -423.07803   -11979.933    1567.3377   -293.53941   -37213.597    15.263069    13.218196    28.378665    5725.4024 
  121500      121.487    349.42761    14.363126   -437.41856   -423.05543   -11182.192    3733.6318   -1363.1811   -35917.028    15.263071    13.218198    28.378648    5725.4006 
  122000      121.987    356.37128    14.648544   -437.68124    -423.0327   -9472.8025     4900.176    78.155855   -33396.739    15.263073      13.2182     28.37863    5725.3989 
  122500      122.487    352.64334    14.495308   -437.50486   -423.00955   -10501.302    3231.5516    2153.2906   -36888.748    15.263076    13.218202    28.378613    5725.3971 
  123000      122.987    359.45122    14.775144   -437.76236   -422.98721   -11130.528    3279.3451    3189.8176   -39860.748    15.263078    13.218204    28.378595    5725.3953 
  123500      123.487    362.79044    14.912402   -437.87711   -422.96471   -10892.925    1292.9287    2550.3942   -36522.097     15.26308    13.218206    28.378578    5725.3936 
  124000      123.987    373.54519    15.354473   -438.29652   -422.94205   -11519.218     4396.563   -648.68268   -38305.536    15.263083    13.218208     28.37856    5725.3918 
  124500      124.487    404.12587    16.611483   -439.53089   -422.91941   -10843.208    3474.5965    2611.1053   -38615.326    15.263085     13.21821    28.378543    5725.3901 
  125000      124.987    369.12732    15.172877   -438.06851   -422.89563    -10607.06    4674.1018    1878.6829   -38373.966    15.263087    13.218212    28.378525    5725.3883 
  125500      125.487    367.24796    15.095627   -437.96871   -422.87309   -10766.996    2894.4712    795.66324   -35991.122     15.26309    13.218214    28.378508    5725.3865 
  126000      125.987    360.57665    14.821405   -437.67145   -422.85004   -10639.463    4898.9028     2083.187   -38900.479    15.263092    13.218217     28.37849    5725.3848 
  126500      126.487    370.94793    15.247713   -438.07524   -422.82753    -11387.17    828.85602    382.94536   -35373.312    15.263094    13.218219    28.378473     5725.383 
  127000      126.987    336.41251    13.828144    -436.6323   -422.80415   -10146.177    3938.4893    1537.7746   -35914.794    15.263097    13.218221    28.378455    5725.3812 
  127500      127.487    374.83721    15.407581   -438.18877   -422.78119   -9997.8132    5555.3764   -55.602213   -35493.214    15.263099    13.218223    28.378438    5725.3795 
  128000      127.987    378.69444    15.566131   -438.32493    -422.7588   -10333.941    3244.9718     2043.427    -36290.22    15.263102    13.218225     28.37842    5725.3777 
  128500      128.487     377.6318    15.522452   -438.25787   -422.73542    -10395.32    5682.2877    1138.1809   -38006.428    15.263104    13.218227    28.378403     5725.376 
  129000      128.987    355.60659    14.617111   -437.32852   -422.71141   -10319.696    3501.9039    1277.6403   -35738.632    15.263106    13.218229    28.378385    5725.3742 
  129500      129.487    391.79017    16.104428   -438.79317   -422.68874   -12317.172    2163.8582     39.64205   -39155.016    15.263109    13.218231    28.378368    5725.3724 
  130000      129.987    352.39603    14.485142   -437.14983   -422.66469   -10023.317    4897.4519    3476.8229   -38444.225    15.263111    13.218233     28.37835    5725.3707 
  130500      130.487    381.02029    15.661735   -438.30308   -422.64134   -11354.165     3447.306    339.09128   -37848.894    15.263113    13.218235    28.378333    5725.3689 
  131000      130.987    401.71871    16.512537   -439.13131   -422.61877   -11828.843    2147.9199   -380.07101   -37254.379    15.263116    13.218237    28.378315    5725.3672 
  131500      131.487    378.33062    15.551177   -438.14608   -422.59491   -9837.6825    6115.1359    1564.6025   -37192.786    15.263118    13.218239    28.378298    5725.3654 
  132000      131.987    374.58225    15.397101   -437.96887   -422.57177   -12337.863    2718.9914    1816.6947   -41549.275     15.26312    13.218241     28.37828    5725.3636 
  132500      132.487    374.08982     15.37686   -437.92468   -422.54782   -10471.242    5160.6831    167.85834   -36742.267    15.263123    13.218243    28.378263    5725.3619 
  133000      132.987    383.50176    15.763735   -438.28846   -422.52473   -12724.793    1380.2043   -754.23693   -38800.347    15.263125    13.218245    28.378245    5725.3601 
  133500      133.487    375.10945    15.418771   -437.91961   -422.50084   -10411.693    4185.7422    1126.4721   -36547.294    15.263127    13.218247    28.378228    5725.3584 
  134000      133.987    393.42303    16.171546   -438.64927   -422.47772   -11075.983    3881.1187    246.40723   -37355.476     15.26313    13.218249     28.37821    5725.3566 
  134500      134.487    349.64038    14.371872    -436.8255   -422.45363   -11397.213    3007.0731    1297.1876   -38495.901    15.263132    13.218251    28.378193    5725.3548 
  135000      134.987    374.98325    15.413584   -437.84387   -422.43028   -10715.175    4507.9903    2601.6066   -39255.122    15.263134    13.218253    28.378175    5725.3531 
  135500      135.487    359.31708     14.76963   -437.17641   -422.40678    -10891.07    7192.7434   -1382.3192   -38483.634    15.263137    13.218255    28.378158    5725.3513 
  136000      135.987    369.11958    15.172559   -437.55566    -422.3831   -11059.392    4096.3899     1334.766   -38609.331    15.263139    13.218258     28.37814    5725.3495 
  136500      136.487    375.91661    15.451949   -437.81122   -422.35927   -11056.262    4994.6466    1315.1933   -39478.626    15.263141     13.21826    28.378123    5725.3478 
  137000      136.987    374.60326    15.397964   -437.73421   -422.33624   -10118.564    2899.2337    1791.5412   -35046.466    15.263144    13.218262    28.378105     5725.346 
  137500      137.487    369.48485    15.187574   -437.49975   -422.31218   -10754.228    5549.8129    341.32166   -38153.819    15.263146    13.218264    28.378088    5725.3443 
  138000      137.987    370.41895    15.225969   -437.51446   -422.28849   -11240.664    4114.3966    -418.2958   -37418.093    15.263149    13.218266     28.37807    5725.3425 
  138500      138.487     387.7922    15.940092   -438.20458   -422.26449   -11574.789    6265.2767    575.88832   -41565.533    15.263151    13.218268    28.378053    5725.3407 
  139000      138.987    372.43981    15.309036   -437.55007   -422.24104    -10678.36    4136.7653    1919.7002   -38091.547    15.263153     13.21827    28.378035     5725.339 
  139500      139.487    382.85453     15.73713   -437.95457   -422.21744   -10456.246    4816.6377   -861.73083   -35323.643    15.263156    13.218272    28.378018    5725.3372 
  140000      139.987    393.06934    16.157008   -438.35034   -422.19333   -10698.859    4825.9375   -1007.3431   -35915.172    15.263158    13.218274       28.378    5725.3355 
  140500      140.487    373.19434    15.340051   -437.50935    -422.1693   -11228.105    3352.6135    1948.0048   -38984.932     15.26316    13.218276    28.377983    5725.3337 
  141000      140.987    375.66078    15.441433   -437.58692   -422.14549   -11786.803      5150.68   -1842.8156   -38668.272    15.263163    13.218278    28.377965    5725.3319 
  141500      141.487     358.1251    14.720634   -436.84212   -422.12149   -10538.304    3566.9907    857.31547   -36039.218    15.263165     13.21828    28.377948    5725.3302 
  142000      141.987    370.13684    15.214373   -437.31206   -422.09768   -11296.702     4070.807    2174.0189    -40134.93    15.263167    13.218282     28.37793    5725.3284 
  142500      142.487    359.16294    14.763294   -436.83703   -422.07373   -10247.619    4848.1146    2278.7755   -37869.746     15.26317    13.218284    28.377913    5725.3267 
  143000      142.987    396.10952    16.281973   -438.33235   -422.05037   -10221.601    4501.1242     2652.009   -37817.935    15.263172    13.218286    28.377895    5725.3249 
  143500      143.487    365.69818    15.031924   -437.05757   -422.02565   -10533.633     6767.751    1808.8816   -40177.533    15.263174    13.218288    28.377878    5725.3231 
  144000      143.987    373.24717    15.342223   -437.34373   -422.00151   -9881.9433    4268.7199    3333.6839   -37248.234    15.263177     13.21829     28.37786    5725.3214 
  144500      144.487     376.0639    15.458003   -437.43574   -421.97774    -10504.88    5703.3924     554.6703   -37772.703    15.263179    13.218292    28.377843    5725.3196 
  145000      144.987     377.5393    15.518649   -437.47192   -421.95327   -10583.119    4914.1562   -603.62495   -36059.888    15.263181    13.218294    28.377825    5725.3178 
  145500      145.487    390.57749    16.054581   -437.98424   -421.92966   -11225.027    4577.2746    1745.3091   -39997.665    15.263184    13.218296    28.377808    5725.3161 
  146000      145.987    352.01789    14.469599   -436.37456   -421.90496   -10278.463    1820.0652    4359.3141   -37014.769    15.263186    13.218299     28.37779    5725.3143 
  146500      146.487    384.29246    15.796236   -437.67705   -421.88081   -10431.554    4208.0206   -616.61626   -34886.065    15.263188    13.218301    28.377773    5725.3126 
  147000      146.987    384.07655    15.787361   -437.64397   -421.85661   -10721.894    5375.2531    1113.2156   -38654.151    15.263191    13.218303    28.377755    5725.3108 
  147500      147.487    394.38183    16.210957   -438.04361   -421.83265   -11954.798    2538.0127   -31.416777    -38370.99    15.263193    13.218305    28.377738     5725.309 
  148000      147.987    386.93623    15.904908   -437.71257   -421.80766   -10527.466    3893.6711    2086.4331   -37562.503    15.263196    13.218307     28.37772    5725.3073 
  148500      148.487    380.82197    15.653583   -437.43669    -421.7831   -9680.2668    6859.6934    50.906684     -35951.4    15.263198    13.218309    28.377703    5725.3055 
  149000      148.987    383.88794    15.779609   -437.53953   -421.75993   -12065.438    3565.6852    882.19789   -40644.197      15.2632    13.218311    28.377685    5725.3038 
  149500      149.487    365.70684     15.03228   -436.76709   -421.73481   -9211.2535    5951.8969     710.8563   -34296.514    15.263203    13.218313    28.377668     5725.302 
  150000      149.987    392.12109     16.11803   -437.82914   -421.71111    -10562.96    3691.4405    2045.6582   -37425.979    15.263205    13.218315     28.37765    5725.3002 
  150500      150.487    387.78821    15.939928    -437.6271   -421.68717   -11634.347    3258.4968    286.67121   -38448.208    15.263207    13.218317    28.377633    5725.2985 
  151000      150.987    377.16411    15.503228   -437.16569   -421.66246   -10934.559    3669.7383   -1186.7131   -35286.701     15.26321    13.218319    28.377615    5725.2967 
  151500      151.487    353.10246     14.51418   -436.15205   -421.63787   -9096.2101     6509.785    1232.2532   -35030.668    15.263212    13.218321    28.377598    5725.2949 
  152000      151.987    389.66954     16.01726   -437.63114   -421.61388   -11348.644    3039.5085    2836.7388   -39922.178    15.263214    13.218323     28.37758    5725.2932 
  152500      152.487    397.37801    16.334114   -437.92372   -421.58961   -11404.238    3912.1903   -604.79236   -37520.112    15.263217    13.218325    28.377563    5725.2914 
  153000      152.987     367.7135    15.114763   -436.67968   -421.56492   -10002.183    4014.2488    2367.6095   -36388.407    15.263219    13.218327    28.377545    5725.2897 
  153500      153.487     383.9221    15.781013   -437.32103   -421.54002   -10451.585    4654.3356    175.31884    -36184.41    15.263221    13.218329    28.377528    5725.2879 
  154000      153.987    395.22416    16.245581    -437.7614   -421.51582   -9352.1181     6006.848    2610.3191   -36673.521    15.263224    13.218331     28.37751    5725.2861 
  154500      154.487    376.56679    15.478675    -436.9695   -421.49082   -8886.9938    8500.0908    868.74905   -36029.821    15.263226    13.218333    28.377493    5725.2844 
  155000      154.987    369.15945    15.174198   -436.64061   -421.46641    -10101.29    2519.4579    1595.3617   -34418.689    15.263228    13.218335    28.377475    5725.2826 
  155500      155.487    364.72444    14.991898   -436.43396   -421.44206   -9923.5141      5462.45    3360.2837   -38593.276    15.263231    13.218337    28.377458    5725.2809 
  156000      155.987    377.59205    15.520818    -436.9385   -421.41768   -9243.1602     6004.901    3590.9099   -37325.292    15.263233     13.21834     28.37744    5725.2791 
  156500      156.487    378.87663     15.57362   -436.96672    -421.3931   -10400.004    5254.7714    -1242.803    -35211.98    15.263235    13.218342    28.377423    5725.2773 
  157000      156.987    389.19901    15.997919   -437.36668   -421.36876   -11769.952    3279.2984   -1184.0611   -37405.094    15.263238    13.218344    28.377405    5725.2756 
  157500      157.487    395.47184    16.255762    -437.6004   -421.34464   -10372.099    5079.1928    1217.4431   -37412.933     15.26324    13.218346    28.377388    5725.2738 
  158000      157.987    388.31597    15.961622   -437.28072    -421.3191    -9955.961    5991.9404    2005.9228   -37865.746    15.263243    13.218348     28.37737    5725.2721 
  158500      158.487    390.87389    16.066764   -437.36153   -421.29476   -9544.8266    4715.6451    2045.5617   -35395.687    15.263245     13.21835    28.377353    5725.2703 
  159000      158.987    382.87212    15.737854   -437.00791   -421.27006   -10491.278     5565.921    1808.0703   -38847.826    15.263247    13.218352    28.377335    5725.2685 
  159500      159.487    393.96355    16.193764    -437.4388   -421.24504    -10397.84    3309.0425    2494.9254   -36997.489     15.26325    13.218354    28.377318    5725.2668 
  160000      159.987    380.38112    15.635462   -436.85586    -421.2204   -10947.364    5906.1771    1425.3311   -40173.601    15.263252    13.218356      28.3773     5725.265 
  160500      160.487    380.39185    15.635903   -436.83104   -421.19514   -8919.7289     6022.892     2394.926   -35177.005    15.263254    13.218358    28.377283    5725.2632 
  161000      160.987    372.28024    15.302477   -436.47313   -421.17066   -9074.8602    5555.9194    2561.5891   -35342.089    15.263257     13.21836    28.377265    5725.2615 
  161500      161.487    367.98756    15.126028   -436.27168   -421.14565    -10099.82    6196.0078    362.73878   -36858.206    15.263259    13.218362    28.377248    5725.2597 
  162000      161.987    386.36818    15.881558   -437.00254   -421.12098   -9557.3069    3334.7152    4202.8758   -36209.512    15.263261    13.218364     28.37723     5725.258 
  162500      162.487    406.36577    16.703554   -437.80022   -421.09667   -10150.418    3082.6889    385.48285   -33919.426    15.263264    13.218366    28.377213    5725.2562 
  163000      162.987    390.12441    16.035957   -437.10743   -421.07148   -10058.607    6530.0252      82.7289   -36788.576    15.263266    13.218368    28.377195    5725.2544 
  163500      163.487    393.75309    16.185113   -437.23169   -421.04658   -10323.351    7885.1616   -736.96631   -38118.249    15.263268     13.21837    28.377178    5725.2527 
  164000      163.987    383.53692     15.76518   -436.78625   -421.02107   -11186.752    4482.7936   -284.76434   -37758.285    15.263271    13.218372     28.37716    5725.2509 
  164500      164.487    395.07973    16.239644   -437.23567   -420.99603   -9518.6304    6719.6807     293.3292   -35568.901    15.263273    13.218374    28.377143    5725.2492 
  165000      164.987    387.55691    15.930421   -436.90135   -420.97093   -9858.3678    6031.8937    1423.2859   -37030.283    15.263275    13.218376    28.377125    5725.2474 
  165500      165.487    383.13287    15.748572   -436.69418   -420.94561   -10232.861    6963.7714    1612.3538   -39274.709    15.263278    13.218378    28.377108    5725.2456 
  166000      165.987    402.73608    16.554356   -437.47451   -420.92015   -10091.115    5083.2381     2648.164   -38004.748     15.26328    13.218381     28.37709    5725.2439 
  166500      166.487    386.56134    15.889498   -436.78393   -420.89443   -9712.7982    6443.1301    3483.5061   -39065.031    15.263282    13.218383    28.377073    5725.2421 
  167000      166.987    383.46778    15.762338   -436.63189   -420.86955   -9353.3712     6816.626    1847.5176   -36724.257    15.263285    13.218385    28.377055    5725.2403 
  167500      167.487    400.51372    16.463007   -437.30795   -420.84494   -9002.7612    6492.6903    2364.2751   -35865.249    15.263287    13.218387    28.377038    5725.2386 
  168000      167.987    384.64918    15.810899   -436.62993   -420.81903   -10810.051    2882.4362    1038.1785   -36350.768     15.26329    13.218389     28.37702    5725.2368 
  168500      168.487    403.67529    16.592962   -437.38694   -420.79398   -11559.718    4352.5127    980.23099   -40011.898    15.263292    13.218391    28.377003    5725.2351 
  169000      168.987    402.67035    16.551654   -437.32123   -420.76957   -10312.655    1109.1541    2922.2167   -34969.337    15.263294    13.218393    28.376985    5725.2333 
  169500      169.487    385.08658    15.828879   -436.57211   -420.74323   -9263.6612    5864.8344    1584.2768   -35240.095    15.263297    13.218395    28.376968    5725.2315 
  170000      169.987    413.57384    16.999839   -437.71905   -420.71921   -11516.517    5454.7906   -1306.6638   -38697.679    15.263299    13.218397     28.37695    5725.2298 
  170500      170.487    403.78746    16.597573   -437.29117    -420.6936   -10778.332     3963.183    416.81549   -36714.995    15.263301    13.218399    28.376933     5725.228 
  171000      170.987    401.57446    16.506608   -437.17417   -420.66756   -9793.5829    6386.8245    219.27408   -35986.847    15.263304    13.218401    28.376915    5725.2263 
  171500      171.487    389.95274      16.0289   -436.67091     -420.642    -10256.21    7874.0677   -506.67723   -38136.021    15.263306    13.218403    28.376898    5725.2245 
  172000      171.987    390.50495    16.051599     -436.668    -420.6164   -9980.2254    7173.3576    1214.2365    -38328.27    15.263308    13.218405     28.37688    5725.2227 
  172500      172.487     419.8043    17.255941   -437.84722   -420.59128   -9659.4889    5732.6958    1399.1576    -36110.32    15.263311    13.218407    28.376863     5725.221 
  173000      172.987    383.77444    15.774943   -436.34008   -420.56513   -10024.272    4738.2912   -1138.7955   -33672.311    15.263313    13.218409    28.376845    5725.2192 
  173500      173.487    389.58621    16.013834   -436.55308   -420.53925   -9058.2068    7987.5709    1578.9696   -36741.161    15.263315    13.218411    28.376828    5725.2175 
  174000      173.987    402.55224    16.546799   -437.06038   -420.51358   -11100.036    4115.5058   -273.12644   -37142.486    15.263318    13.218413     28.37681    5725.2157 
  174500      174.487    389.05926    15.992174   -436.48011   -420.48794   -10236.183    7778.2644    904.08286   -39390.895     15.26332    13.218415    28.376793    5725.2139 
  175000      174.987    394.62915    16.221123   -436.68348   -420.46236    -10504.58    2726.1572    602.11168   -34842.008    15.263322    13.218417    28.376775    5725.2122 
  175500      175.487    402.15865    16.530621   -436.96828   -420.43766   -10279.162    6121.6116    1194.5351   -38153.634    15.263325    13.218419    28.376758    5725.2104 
  176000      175.987    400.93127     16.48017   -436.89144   -420.41127   -9846.0567    4280.7157    1163.8942    -34982.78    15.263327    13.218422     28.37674    5725.2086 
  176500      176.487     387.7592    15.938736   -436.32446   -420.38572   -8646.5864    6380.7839    3260.0777   -35580.621    15.263329    13.218424    28.376723    5725.2069 
  177000      176.987    409.73757    16.842151    -437.2026   -420.36045   -11052.684    4379.8779    224.28126   -37762.212    15.263332    13.218426    28.376705    5725.2051 
  177500      177.487    392.15382    16.119375   -436.45369   -420.33431    -9745.934    4255.8886    1967.2016   -35460.892    15.263334    13.218428    28.376688    5725.2034 
  178000      177.987    377.10727    15.500891   -435.80932   -420.30843    -9485.366    6994.3065    1168.3213   -36618.726    15.263337     13.21843     28.37667    5725.2016 
  178500      178.487    398.05093    16.361774   -436.64496   -420.28319   -9257.0179    9194.8727    2313.2354   -39279.162    15.263339    13.218432    28.376653    5725.1998 
  179000      178.987     398.8324    16.393897   -436.65119   -420.25729   -10066.039    6073.4757    2960.0481   -39231.639    15.263341    13.218434    28.376635    5725.1981 
  179500      179.487    399.85083    16.435759   -436.66704   -420.23128   -9280.3237    4195.4724    2866.3657   -34902.809    15.263344    13.218436    28.376618    5725.1963 
  180000      179.987    400.98681    16.482453   -436.68796   -420.20551   -9288.1653    4441.6166    544.20102   -32850.314    15.263346    13.218438      28.3766    5725.1946 
  180500      180.487    406.46244    16.707527   -436.88728   -420.17975   -9437.4129    6472.5979   -627.98347   -34156.853    15.263348     13.21844    28.376583    5725.1928 
  181000      180.987    394.67219    16.222892   -436.37657   -420.15368   -10056.415    6835.6186    755.19202   -37760.056    15.263351    13.218442    28.376565     5725.191 
  181500      181.487    402.91361    16.561654   -436.68933   -420.12768   -10475.621    1277.8932    4357.0713   -37061.828    15.263353    13.218444    28.376548    5725.1893 
  182000      181.987    403.52278    16.586693   -436.68842   -420.10173   -10794.667    1774.4898    1488.4585   -35646.949    15.263355    13.218446     28.37653    5725.1875 
  182500      182.487    387.30902    15.920231   -435.99546   -420.07523   -9496.4648    6576.4567    1910.6745   -36976.526    15.263358    13.218448    28.376513    5725.1857 
  183000      182.987    392.40595    16.129739   -436.17934    -420.0496   -10173.089    4054.4507    4111.4051   -38685.122     15.26336     13.21845    28.376495     5725.184 
  183500      183.487    408.57128    16.794211   -436.81827   -420.02406   -10499.968    3961.5569     2553.331   -38014.792    15.263362    13.218452    28.376478    5725.1822 
  184000      183.987    387.32807    15.921014   -435.91871   -419.99769   -8082.2015     7494.406    1926.3816   -33667.392    15.263365    13.218454     28.37646    5725.1805 
  184500      184.487    426.99943    17.551695   -437.52381   -419.97212   -10735.727     6007.925     3302.943   -41518.048    15.263367    13.218456    28.376443    5725.1787 
  185000      184.987    412.81592    16.968685   -436.91503   -419.94635   -10260.318     2828.174    1897.7627    -35506.89    15.263369    13.218458    28.376425    5725.1769 
  185500      185.487    378.17725    15.544872   -435.46476   -419.91989   -9536.1086    4273.7534    2902.7841   -35784.863    15.263372     13.21846    28.376408    5725.1752 
  186000      185.987    411.45862    16.912894   -436.80734   -419.89445   -8498.4574    5065.0465    3575.4735   -34135.892    15.263374    13.218463     28.37639    5725.1734 
  186500      186.487     400.9879    16.482498   -436.35095   -419.86845   -9368.6659    6271.1221    2957.6353   -37334.755    15.263376    13.218465    28.376373    5725.1717 
  187000      186.987    408.10307    16.774965   -436.61724   -419.84228   -11148.118    4733.1392    368.41738    -38545.91    15.263379    13.218467    28.376355    5725.1699 
  187500      187.487    402.70162     16.55294   -436.36772   -419.81478   -9708.6327    5280.9356    2308.7624   -36715.596    15.263381    13.218469    28.376338    5725.1681 
  188000      187.987    420.02047    17.264826   -437.05432   -419.78949   -9307.2474    6137.4643    2611.6472   -36670.854    15.263384    13.218471     28.37632    5725.1664 
  188500      188.487    413.09057    16.979975   -436.74266   -419.76268   -10121.482    4038.3244    1939.9518   -36342.721    15.263386    13.218473    28.376303    5725.1646 
  189000      188.987    400.81808    16.475517   -436.21161    -419.7361   -10451.673    7515.5023    173.73769    -39044.26    15.263388    13.218475    28.376285    5725.1628 
  189500      189.487    427.89512    17.588512   -437.29839   -419.70988   -10056.593    3212.3404    1460.3966   -34842.516    15.263391    13.218477    28.376268    5725.1611 
  190000      189.987    405.66989     16.67495   -436.35803   -419.68308   -9889.8048    3963.7066    2172.6887    -35805.81    15.263393    13.218479     28.37625    5725.1593 
  190500      190.487    419.70527     17.25187   -436.90978   -419.65791   -9075.0989    5715.9116    4415.3593   -37356.568    15.263395    13.218481    28.376233    5725.1576 
  191000      190.987    422.02233    17.347112   -436.97866   -419.63155   -9791.8486    5837.6016    177.16111   -35390.308    15.263398    13.218483    28.376215    5725.1558 
  191500      191.487    428.32762     17.60629   -437.21198   -419.60569   -10499.079    4242.7626    3111.4409    -38851.44      15.2634    13.218485    28.376198     5725.154 
  192000      191.987    399.44541    16.419094    -435.9978   -419.57871   -9038.3002    8003.3529    1432.0558   -36550.309    15.263402    13.218487     28.37618    5725.1523 
  192500      192.487    416.63353    17.125607   -436.67781   -419.55221   -9253.3663    3739.1036    2643.8822   -34143.085    15.263405    13.218489    28.376163    5725.1505 
  193000      192.987    393.62021    16.179651    -435.7049   -419.52525   -9943.3214     4008.677    2901.6294   -36740.271    15.263407    13.218491    28.376145    5725.1488 
  193500      193.487    417.17095    17.147698   -436.64714   -419.49944   -10912.968    1571.0086    2500.4191    -36810.33    15.263409    13.218493    28.376128     5725.147 
  194000      193.987    407.52086    16.751033   -436.22284    -419.4718   -10185.606    6825.5399    2039.5327   -39421.889    15.263412    13.218495     28.37611    5725.1452 
  194500      194.487    420.61162    17.289126   -436.73501   -419.44589   -8750.6455     7815.146    4560.8176     -38627.9    15.263414    13.218497    28.376093    5725.1435 
  195000      194.987    407.08332    16.733048   -436.15208   -419.41903   -9350.5937    4756.0961    3615.2756   -36423.153    15.263416    13.218499    28.376075    5725.1417 
  195500      195.487    425.53153    17.491357   -436.88361   -419.39225   -10575.978    3049.3416    1500.8375   -36278.114    15.263419    13.218501    28.376058    5725.1399 
  196000      195.987    406.52614    16.710145   -436.07535    -419.3652   -10256.519    6135.1431    2224.0245   -39128.725    15.263421    13.218504     28.37604    5725.1382 
  196500      196.487    424.84861    17.463286   -436.80263   -419.33935   -10915.576    1693.7315     2162.271   -36602.732    15.263423    13.218506    28.376023    5725.1364 
  197000      196.987    402.09611     16.52805   -435.84099   -419.31294   -8614.4627     7537.072    1917.3577   -35297.818    15.263426    13.218508    28.376005    5725.1347 
  197500      197.487    418.91397    17.219344   -436.50552   -419.28617    -8333.402    6493.9111    -1061.036   -30433.081    15.263428     13.21851    28.375988    5725.1329 
  198000      197.987    422.26644    17.357146   -436.61693   -419.25978    -9289.432    6896.1935    1799.7823   -36564.272    15.263431    13.218512     28.37597    5725.1311 
  198500      198.487    430.66555    17.702389   -436.93567   -419.23328   -9643.3139    6077.4972    2556.1053   -37563.544    15.263433    13.218514    28.375953    5725.1294 
  199000      198.987     393.6194    16.179618   -435.38539   -419.20577   -9154.3389    5528.7713    6407.0615   -39398.849    15.263435    13.218516    28.375935    5725.1276 
  199500      199.487    413.32603    16.989653   -436.16997   -419.18032   -9417.5761    6842.0183    3851.1643   -38945.911    15.263438    13.218518    28.375918    5725.1259 
  200000      199.987    409.18532     16.81945   -435.97262   -419.15317   -9375.3391    6944.7112    167.33178    -35238.06     15.26344     13.21852      28.3759    5725.1241 
  200500      200.487    419.76501    17.254326   -436.38145   -419.12712   -8070.7492    5888.0668    2274.7049   -32375.019    15.263442    13.218522    28.375883    5725.1223 
  201000      200.987    409.14871    16.817946   -435.91781   -419.09987   -9785.7013    4500.6239     1872.897   -35730.625    15.263445    13.218524    28.375865    5725.1206 
  201500      201.487    411.22704    16.903375   -435.97725   -419.07387   -9559.0799     6038.152    854.31096   -35569.703    15.263447    13.218526    28.375848    5725.1188 
  202000      201.987     410.5174    16.874205   -435.92145   -419.04724   -8830.5513    5797.5851    1594.8117   -33884.051    15.263449    13.218528     28.37583    5725.1171 
  202500      202.487    413.58818    17.000429    -436.0207   -419.02028   -9262.5315    5195.7552    2411.5329   -35394.882    15.263452     13.21853    28.375813    5725.1153 
  203000      202.987    425.96976     17.50937   -436.50296   -418.99359   -10772.739    5307.0899    1409.1655   -39034.473    15.263454    13.218532    28.375795    5725.1135 
  203500      203.487      396.426    16.294982   -435.26049   -418.96551   -7984.1964    8079.7251    4104.8406   -36137.155    15.263456    13.218534    28.375778    5725.1118 
  204000      203.987    410.70571    16.881946   -435.82127   -418.93933   -9211.0768     5763.271    5645.2462   -39041.748    15.263459    13.218536     28.37576      5725.11 
  204500      204.487     402.5172    16.545359   -435.45744   -418.91208   -9305.1657    7490.9044   -153.38531   -35253.016    15.263461    13.218538    28.375743    5725.1082 
  205000      204.987    406.40903    16.705332   -435.59025   -418.88492   -7482.4322    7554.6532    4549.1992   -34551.149    15.263463     13.21854    28.375725    5725.1065 
  205500      205.487    409.32942    16.825374   -435.68351   -418.85813   -9143.7597    6839.2484    2940.7797   -37211.307    15.263466    13.218542    28.375708    5725.1047 
  206000      205.987     433.7154    17.827753    -436.6594   -418.83165   -9800.4367    7030.0702    3783.9361   -40215.316    15.263468    13.218545     28.37569     5725.103 
  206500      206.487    402.97999    16.564382   -435.36799   -418.80361   -8550.7677    10350.334    2647.2314   -38649.868     15.26347    13.218547    28.375673    5725.1012 
  207000      206.987    409.84843    16.846707   -435.62323   -418.77653   -9240.2889    1815.7927    3292.6993   -32829.359    15.263473    13.218549    28.375655    5725.0994 
  207500      207.487    405.26387     16.65826    -435.4081   -418.74984   -9258.5999    5779.6487    1775.0483   -35330.497    15.263475    13.218551    28.375638    5725.0977 
  208000      207.987    426.09519    17.514526   -436.23816   -418.72364   -8548.9859    10281.747     1770.397   -37699.101    15.263478    13.218553     28.37562    5725.0959 
  208500      208.487    418.31179    17.194591    -435.8913   -418.69671   -9115.2407    5750.7473    2001.1105    -35097.58     15.26348    13.218555    28.375603    5725.0942 
  209000      208.987    430.04659    17.676947   -436.34716   -418.67021   -10062.595      6643.37    1624.4438   -38455.598    15.263482    13.218557    28.375585    5725.0924 
  209500      209.487     395.4376    16.254354   -434.89686    -418.6425   -8273.5205     7345.474    2615.8313   -34781.867    15.263485    13.218559    28.375568    5725.0906 
  210000      209.987    412.67986    16.963093   -435.57905   -418.61596   -9200.9081    5558.3392    3669.9786   -36831.042    15.263487    13.218561     28.37555    5725.0889 
  210500      210.487    424.12845    17.433684   -436.02239    -418.5887   -8728.1947    6238.6333    3278.0338   -35701.251    15.263489    13.218563    28.375533    5725.0871 
  211000      210.987    395.43951    16.254433   -434.81562   -418.56119   -7120.5235    7425.0918    2982.1988   -31768.861    15.263492    13.218565    28.375515    5725.0853 
  211500      211.487    423.03706    17.388822   -435.92279   -418.53397   -8213.3977    8145.1465    5100.0177   -37885.357    15.263494    13.218567    28.375498    5725.0836 
  212000      211.987    431.85379    17.751232   -436.25839   -418.50716   -7943.5923    6911.3035    4096.3907   -34838.471    15.263496    13.218569     28.37548    5725.0818 
[...]
  948500      948.487    576.79238    23.708893   -430.97118   -407.26229   -4743.9019    13626.342    5269.1236   -33127.171    15.266958    13.221589    28.349703     5722.485 
  949000      948.987     577.5102    23.738399   -430.99827   -407.25987   -5738.4193    12059.309    1088.3136    -30362.88     15.26696    13.221591    28.349685    5722.4833 
  949500      949.487    553.73429    22.761096   -430.01588   -407.25479   -4225.4113    10943.523    8369.8385   -31989.595    15.266963    13.221593    28.349668    5722.4815 
  950000      949.987    551.31829    22.661787   -429.91223   -407.25044   -5010.0937    14436.113    3980.4524   -33446.846    15.266965    13.221595     28.34965    5722.4798 
  950500      950.487    540.28908    22.208435   -429.45316   -407.24472   -4041.3774    13176.469    10037.436   -35338.037    15.266967    13.221597    28.349633     5722.478 
  951000      950.987    564.62629    23.208809   -430.45087   -407.24206   -4558.0725    10808.924    4671.3298   -29154.472     15.26697    13.221599    28.349615    5722.4762 
  951500      951.487    549.78312    22.598685   -429.83602   -407.23734   -5038.5243    14019.247    5064.1296   -34198.949    15.266972    13.221601    28.349598    5722.4745 
  952000      951.987    589.79163    24.243224   -431.47714   -407.23392   -3986.4184    14252.849    6052.8113   -32264.916    15.266974    13.221603     28.34958    5722.4727 
  952500      952.487     579.1945    23.807631   -431.03784   -407.23021   -5851.6379    13429.757    826.24728   -31810.918    15.266977    13.221605    28.349563    5722.4709 
  953000      952.987    545.11654    22.406866   -429.63199   -407.22513   -5245.2091    13811.683    5597.8617   -35145.172    15.266979    13.221607    28.349545    5722.4692 
  953500      953.487    582.59471    23.947396   -431.16836   -407.22097   -4627.9934    10961.084     3047.052   -27892.116    15.266981    13.221609    28.349528    5722.4674 
  954000      953.987    554.36916    22.787192   -430.00311   -407.21591    -4601.668    12428.888    4291.6826   -30525.574    15.266984    13.221611     28.34951    5722.4656 
  954500      954.487    573.85931     23.58833   -430.80007   -407.21174   -4158.5096     14708.78    2889.1664   -30073.476    15.266986    13.221613    28.349493    5722.4639 
  955000      954.987    572.36047     23.52672   -430.73429   -407.20757   -3741.2513    10989.259    3343.5317   -25556.545    15.266988    13.221615    28.349475    5722.4621 
  955500      955.487     575.9728    23.675204    -430.8768    -407.2016   -4013.1001    12655.496    3534.9843    -28229.78    15.266991    13.221617    28.349458    5722.4603 
  956000      955.987    551.50064    22.669283   -429.86663   -407.19735   -5140.6923      14222.4     2174.354   -31818.831    15.266993     13.22162     28.34944    5722.4586 
  956500      956.487    554.05528     22.77429   -429.96864   -407.19435   -3856.6757    11362.432    3969.4386   -26901.898    15.266995    13.221622    28.349423    5722.4568 
  957000      956.987    594.45409    24.434873    -431.6245   -407.18963   -3983.1141    12971.964    4755.3557   -29676.662    15.266998    13.221624    28.349405    5722.4551 
  957500      957.487    572.83404    23.546186   -430.73024   -407.18405   -6324.9966     8975.626    1891.5122   -29842.128       15.267    13.221626    28.349388    5722.4533 
  958000      957.987    551.67066    22.676271    -429.8558   -407.17953   -2940.9741    11562.562    5427.4047   -25812.889    15.267003    13.221628     28.34937    5722.4515 
  958500      958.487    584.92339    24.043116   -431.21749   -407.17437   -3241.8462    15768.927    2418.7829   -27913.248    15.267005     13.22163    28.349353    5722.4498 
  959000      958.987     616.0016    25.320577   -432.48955   -407.16898   -3673.1738    13840.369    3445.0514   -28304.942    15.267007    13.221632    28.349335     5722.448 
  959500      959.487    571.51246    23.491863   -430.65582   -407.16395   -3714.4466    14849.092    4416.1755   -30408.608     15.26701    13.221634    28.349318    5722.4462 
  960000      959.987    562.77304    23.132632   -430.29068   -407.15805   -3894.2295    14998.929     5705.537   -32387.154    15.267012    13.221636      28.3493    5722.4445 
  960500      960.487    581.33279    23.895525   -431.04854   -407.15301   -4678.0842    13734.127    2007.6239   -29776.003    15.267014    13.221638    28.349283    5722.4427 
  961000      960.987    542.13273    22.284218   -429.43123   -407.14701   -3834.3676    13078.348    4923.0956   -29504.546    15.267017     13.22164    28.349265    5722.4409 
  961500      961.487    564.96968    23.222924   -430.36455   -407.14163    -4277.879    12246.384    2236.7514   -27316.773    15.267019    13.221642    28.349248    5722.4392 
  962000      961.987    542.98208     22.31913   -429.45379   -407.13466   -3746.7758    15659.006    2685.0966    -29584.43    15.267021    13.221644     28.34923    5722.4374 
  962500      962.487    583.24039    23.973937   -431.10396   -407.13002   -5361.4157    9615.4834    3147.0486   -28846.779    15.267024    13.221646    28.349213    5722.4356 
  963000      962.987    578.68054    23.786505   -430.91115   -407.12464   -4215.9307    11693.011    3752.8031   -28093.606    15.267026    13.221648    28.349195    5722.4339 
  963500      963.487    559.85755    23.012791   -430.13043   -407.11764   -2967.8494    12339.727    6183.0368   -27426.312    15.267028     13.22165    28.349178    5722.4321 
  964000      963.987     549.3678    22.581613   -429.69309   -407.11147   -3137.0272    13467.252    6879.5588   -29757.892    15.267031    13.221652     28.34916    5722.4304 
  964500      964.487    575.28162    23.646794   -430.75424   -407.10745    -5595.206    10031.345    7258.4357   -34075.399    15.267033    13.221654    28.349143    5722.4286 
  965000      964.987    574.84892    23.629007    -430.7312   -407.10219   -3962.5142    13620.433    4122.6927   -29630.669    15.267035    13.221656    28.349125    5722.4268 
  965500      965.487     551.4439    22.666951   -429.76166   -407.09471    -4420.747    11897.372    2991.9032   -28151.516    15.267038    13.221658    28.349108    5722.4251 
  966000      965.987     601.3788    24.719511   -431.80942   -407.08991   -5658.9795    13979.195    1915.6594   -32871.793     15.26704    13.221661     28.34909    5722.4233 
  966500      966.487    551.44479    22.666987   -429.74983   -407.08284    -2657.568    11492.855    7362.0883   -26827.647    15.267042    13.221663    28.349073    5722.4215 
  967000      966.987    552.11188    22.694408   -429.77035   -407.07594   -3117.9369    15813.564    4262.1112   -29429.485    15.267045    13.221665    28.349055    5722.4198 
  967500      967.487    574.72687     23.62399   -430.69597   -407.07198   -4881.3019     13693.82    5018.9913   -33356.717    15.267047    13.221667    28.349038     5722.418 
  968000      967.987    555.06978    22.815991   -429.88159    -407.0656   -4552.5183    11280.018    2908.7761   -27846.349     15.26705    13.221669     28.34902    5722.4162 
  968500      968.487    570.71449    23.459063   -430.51744   -407.05837   -3650.2105    14203.777    5057.6297   -30212.038    15.267052    13.221671    28.349003    5722.4145 
  969000      968.987    595.41379    24.474321   -431.52706   -407.05274   -6359.0718    10126.799    3329.5204   -32533.535    15.267054    13.221673    28.348985    5722.4127 
  969500      969.487    583.19468    23.972058   -431.01912   -407.04707   -4429.9907    11938.286    5001.6829   -30229.941    15.267057    13.221675    28.348968    5722.4109 
  970000      969.987    589.55095     24.23333   -431.27296   -407.03963   -4094.7072    11379.574    6139.2914   -29802.987    15.267059    13.221677     28.34895    5722.4092 
  970500      970.487     558.6807    22.964417    -429.9973   -407.03288    -2159.329    13217.016    7527.0362    -27222.04    15.267061    13.221679    28.348933    5722.4074 
  971000      970.987    587.30707    24.141096   -431.16872   -407.02762   -3888.5068    11019.699    5342.7658   -28027.985    15.267064    13.221681    28.348915    5722.4057 
  971500      971.487    597.13128    24.544918   -431.56744   -407.02252   -4284.8713     8942.224    8052.1412   -29848.979    15.267066    13.221683    28.348898    5722.4039 
  972000      971.987    535.05864    21.993439   -429.00815   -407.01472   -3577.7897    9278.0793    8569.7856   -28581.234    15.267068    13.221685     28.34888    5722.4021 
  972500      972.487    576.34431    23.690475   -430.70028    -407.0098   -2985.3243    13136.842     10377.24   -32470.055    15.267071    13.221687    28.348863    5722.4004 
  973000      972.987    570.39386    23.445883   -430.44939   -407.00351   -3841.2339    12858.382    8087.3895   -32469.473    15.267073    13.221689    28.348845    5722.3986 
  973500      973.487    573.91105    23.590457   -430.58622   -406.99576   -3745.0582    12963.766    6067.1307   -30266.072    15.267075    13.221691    28.348828    5722.3968 
  974000      973.987    548.58971     22.54963   -429.53605   -406.98642   -3554.6387     11848.43    4070.4878   -26582.834    15.267078    13.221693     28.34881    5722.3951 
  974500      974.487    571.42051    23.488083     -430.466   -406.97791   -3343.7062    9468.7659    10206.124   -29706.009     15.26708    13.221695    28.348793    5722.3933 
  975000      974.987    625.72876    25.720409   -432.69222   -406.97181   -4874.6718    9461.1384    8402.7856   -32487.939    15.267082    13.221697    28.348775    5722.3915 
  975500      975.487     567.1541    23.312714   -430.27709   -406.96438   -3604.7105    11019.662    6532.0952   -28365.889    15.267085    13.221699    28.348758    5722.3898 
  976000      975.987    578.67606    23.786321   -430.74293   -406.95661   -3126.6342     12702.16    7606.8007   -29688.863    15.267087    13.221702     28.34874     5722.388 
  976500      976.487    557.14256    22.901192   -429.84948   -406.94828   -3305.1778    11442.673    10849.952   -32208.158    15.267089    13.221704    28.348723    5722.3862 
  977000      976.987    552.22449    22.699036   -429.63995   -406.94091   -5259.2314    11393.841    4111.1948   -31282.731    15.267092    13.221706    28.348705    5722.3845 
  977500      977.487    564.04513     23.18492   -430.11727   -406.93235   -3388.5012    12078.311    9127.8007   -31371.616    15.267094    13.221708    28.348688    5722.3827 
  978000      977.987    574.73621    23.624374   -430.54772   -406.92334    -2779.447    14737.155      6806.14   -29881.636    15.267097     13.22171     28.34867    5722.3809 
  978500      978.487    563.17379    23.149104   -430.06522   -406.91611   -4713.9854    12733.002    3083.8462   -29958.805    15.267099    13.221712    28.348653    5722.3792 
  979000      978.987    564.43488    23.200941   -430.10911   -406.90817   -4857.6623    12279.069    7364.4972   -34216.553    15.267101    13.221714    28.348635    5722.3774 
  979500      979.487    596.76529    24.529874    -431.4307   -406.90083   -5344.1287     13238.82    5408.0073   -34679.214    15.267104    13.221716    28.348618    5722.3757 
  980000      979.987     551.2224    22.657846   -429.55224    -406.8944   -4427.3169     13365.85    3452.0568   -30099.857    15.267106    13.221718      28.3486    5722.3739 
  980500      980.487    570.82925     23.46378   -430.34876   -406.88498   -3549.4301    16017.908    6498.8568   -33165.055    15.267108     13.22172    28.348583    5722.3721 
  981000      980.987    580.07284    23.843735   -430.72075   -406.87701   -6086.9417    9240.2637    831.93299   -28333.022    15.267111    13.221722    28.348565    5722.3704 
  981500      981.487    621.66158    25.553229   -432.42312   -406.86989   -5860.5654    11484.365    3279.0223   -32345.084    15.267113    13.221724    28.348548    5722.3686 
  982000      981.987    578.09473    23.762426   -430.62437   -406.86194   -4110.0869    11753.169    6608.3692   -30691.799    15.267115    13.221726     28.34853    5722.3668 
  982500      982.487    593.27016    24.386208   -431.24051    -406.8543   -4283.3966    13729.658    3828.5725    -30408.42    15.267118    13.221728    28.348513    5722.3651 
  983000      982.987    588.10485    24.173889   -431.02279    -406.8489   -2918.1072    13638.508    6796.2007    -29189.03     15.26712     13.22173    28.348495    5722.3633 
  983500      983.487    565.26949    23.235248   -430.07549   -406.84024    -4837.069     16358.88   -332.74944   -30537.338    15.267122    13.221732    28.348478    5722.3615 
  984000      983.987     594.0106    24.416643   -431.24886   -406.83222   -3365.1879    15237.367    4390.4067   -29723.337    15.267125    13.221734     28.34846    5722.3598 
  984500      984.487    600.32053    24.676011   -431.50057   -406.82456    -3779.418    15096.322    4299.5726   -30734.148    15.267127    13.221736    28.348443     5722.358 
  985000      984.987     581.7903    23.914331   -430.73102   -406.81669   -3294.8071    9198.8285    7007.0341   -26090.284    15.267129    13.221738    28.348425    5722.3562 
  985500      985.487    555.24947    22.823377    -429.6322   -406.80882   -4223.4857    13649.708    4840.3102   -31160.476    15.267132     13.22174    28.348408    5722.3545 
  986000      985.987    581.75995    23.913083   -430.71569   -406.80261   -6031.8246    9997.2791     4491.715   -32584.468    15.267134    13.221743     28.34839    5722.3527 
  986500      986.487     583.8348    23.998369   -430.79254   -406.79417   -3313.8071    14069.265    5733.8517   -29744.538    15.267136    13.221745    28.348373     5722.351 
  987000      986.987    605.52183    24.889809   -431.67625   -406.78644   -5151.4389    14131.955    6119.0601   -35705.332    15.267139    13.221747    28.348355    5722.3492 
  987500      987.487    575.86273     23.67068   -430.44679   -406.77611   -4447.9713    14670.295    3356.7881   -31370.997    15.267141    13.221749    28.348338    5722.3474 
  988000      987.987    566.39247    23.281407   -430.04963   -406.76822   -4744.3367    12705.078    4881.5238   -31819.612    15.267144    13.221751     28.34832    5722.3457 
  988500      988.487    597.62402    24.565172   -431.32399   -406.75882   -4691.0149    15312.958    3900.1881    -33286.19    15.267146    13.221753    28.348303    5722.3439 
  989000      988.987    562.33121     23.11447   -429.86405   -406.74958   -4549.5545    10225.296    6943.2948   -30817.254    15.267148    13.221755    28.348285    5722.3421 
  989500      989.487    569.62552    23.414301   -430.15488   -406.74058    -4022.317    10694.383    6770.8488   -29532.183    15.267151    13.221757    28.348268    5722.3404 
  990000      989.987    596.73696    24.528709   -431.26124   -406.73253   -4337.8769    12587.375    4422.6157   -30023.621    15.267153    13.221759     28.34825    5722.3386 
  990500      990.487    562.14892    23.106977   -429.83162   -406.72464   -4876.6176    12085.201     3955.598   -30670.652    15.267155    13.221761    28.348233    5722.3368 
  991000      990.987    582.52793    23.944651   -430.66183   -406.71718   -4973.1107    10441.193     7046.141   -32406.667    15.267158    13.221763    28.348215    5722.3351 
  991500      991.487    548.95298    22.564562   -429.27244   -406.70788   -4215.4015    12214.592    1721.9357   -26582.732     15.26716    13.221765    28.348198    5722.3333 
  992000      991.987    566.24202    23.275223    -429.9743   -406.69908   -2600.2556    13335.833    5047.0033   -26183.603    15.267162    13.221767     28.34818    5722.3315 
  992500      992.487     569.6767    23.416405    -430.1063   -406.68989   -3895.2783    13876.921    1635.1803   -27197.936    15.267165    13.221769    28.348163    5722.3298 
  993000      992.987    554.13038    22.777377   -429.45732   -406.67994   -4578.5863    12743.748    2337.2322   -28816.739    15.267167    13.221771    28.348145     5722.328 
  993500      993.487    582.44723    23.941334   -430.61264   -406.67131   -4380.8949    15670.091    1959.1505   -30771.926    15.267169    13.221773    28.348128    5722.3263 
  994000      993.987     598.6143    24.605877   -431.26753   -406.66165   -3507.8739    11508.835    4164.7296   -26197.186    15.267172    13.221775     28.34811    5722.3245 
  994500      994.487    555.78198    22.845266   -429.49715   -406.65188   -3276.4324    13654.809    5067.1583   -28551.265    15.267174    13.221777    28.348093    5722.3227 
  995000      994.987    564.44424    23.201326   -429.84441   -406.64308   -5622.0349    10141.517    5507.5003   -32515.122    15.267176    13.221779    28.348075     5722.321 
  995500      995.487    581.59204    23.906181   -430.54151   -406.63532   -4853.6084    9263.8957    7286.6699   -31111.391    15.267179    13.221781    28.348058    5722.3192 
  996000      995.987    597.85602    24.574708   -431.20015   -406.62544   -5574.7535    11517.359    1002.6636   -29244.283    15.267181    13.221784     28.34804    5722.3174 
  996500      996.487    617.23597    25.371315   -431.98834   -406.61703   -4281.2387    13228.573    1986.0462   -28058.336    15.267183    13.221786    28.348023    5722.3157 
  997000      996.987    556.73742    22.884539   -429.49201   -406.60747   -2061.0997     10611.77    8725.9814    -25521.05    15.267186    13.221788    28.348005    5722.3139 
  997500      997.487     563.9023     23.17905   -429.77715    -406.5981   -4762.7154    10094.297    1971.1157   -26353.559    15.267188     13.22179    28.347988    5722.3121 
  998000      997.987    594.02455    24.417216   -431.00575   -406.58853   -4277.6198    15242.889    5217.9035   -33293.652    15.267191    13.221792     28.34797    5722.3104 
  998500      998.487    575.16797    23.642122   -430.22179   -406.57967    -5415.722     11175.68     2080.032   -29502.878    15.267193    13.221794    28.347953    5722.3086 
  999000      998.987    596.02814    24.499573   -431.06993   -406.57036   -4452.4334    10357.496    2596.8166   -26311.613    15.267195    13.221796    28.347935    5722.3068 
  999500      999.487    606.27879    24.920923   -431.48146   -406.56054   -3447.0821    12396.113    7247.2287   -29984.588    15.267198    13.221798    28.347918    5722.3051 
 1000000      999.987    603.18905    24.793921   -431.34653   -406.55261    -6655.546    8771.5667    1825.7148    -30563.92      15.2672      13.2218      28.3479    5722.3033 
 1000013         1000    585.60797    24.071255   -430.62225     -406.551   -6063.4629    10599.804    2126.9806   -30917.173      15.2672      13.2218      28.3479    5722.3033 
Loop time of 868.676 on 28 procs for 1000000 steps with 319 atoms

Performance: 99.462 ns/day, 0.241 hours/ns, 1151.177 timesteps/s
86.6% CPU use with 28 MPI tasks x no OpenMP threads

MPI task timing breakdown:
Section |  min time  |  avg time  |  max time  |%varavg| %total
---------------------------------------------------------------
Pair    | 725.08     | 756.4      | 786.4      |  56.5 | 87.08
Neigh   | 0.039452   | 0.058152   | 0.077113   |   4.0 |  0.01
Comm    | 70.003     | 98.885     | 127.39     | 150.9 | 11.38
Output  | 0.10043    | 0.10252    | 0.12224    |   1.2 |  0.01
Modify  | 5.1934     | 8.1364     | 12.901     |  87.2 |  0.94
Other   |            | 5.094      |            |       |  0.59

Nlocal:    11.3929 ave 17 max 7 min
Histogram: 1 5 3 1 2 6 6 1 0 3
Nghost:    648.107 ave 700 max 592 min
Histogram: 2 6 0 4 0 2 6 2 2 4
Neighs:    691.714 ave 1025 max 424 min
Histogram: 3 4 3 2 3 5 3 2 0 3
FullNghs:  1383.43 ave 2160 max 834 min
Histogram: 4 5 1 2 4 7 2 0 2 1

Total # of neighbors = 38736
Ave neighs/atom = 121.429
Neighbor list builds = 862
Dangerous builds = 0

write_restart   POSCAR_1x1x1.rest

#unfix    1
#undump   1
Total wall time: 0:14:28
