LAMMPS (7 Dec 2015)
#----------- Initialize Simulation ------------ restart01
#processors	2 2 2
units		metal
boundary	p p p     ## periodic boundary condition  on x y z axis ##
atom_style atomic
#atom_modify map array sort 0 0.0

read_data	POSCAR_1x1x1.lammps
  triclinic box = (0 0 0) to (15.6763 13.5761 25.3389) with tilt (-7.83805 0 0)
  2 by 2 by 7 MPI processor grid
  reading atoms ...
  319 atoms

#----------- Define Potential -----------------
pair_style meam
pair_coeff * * MgAlZn.library.meam Mg Al Zn MgAlZn.parameter.meam Mg Al Zn 	#1=Mg 2=Al 3=Zn	#atoms/mass

#----------- Neighbor List --------------------
neighbor 2.0 bin
neigh_modify delay 10 check yes

#--------------  Run a simulation (minimization) ---------------------------------------
minimize       1.0e-4   1.0e-6   100   1000          #結構優化的條件
WARNING: Resetting reneighboring criteria during minimization (../min.cpp:168)
Neighbor list info ...
  2 neighbor list requests
  update every 1 steps, delay 0 steps, check yes
  max neighbors/atom: 2000, page size: 100000
  master list distance cutoff = 8
  ghost atom cutoff = 8
  binsize = 4 -> bins = 6 4 7
Memory usage per processor = 8.65385 Mbytes
Step Temp E_pair E_mol TotEng Press 
       0            0   -439.00129            0   -439.00129    5789.6833 
      15            0   -462.61672            0   -462.61672   -12036.309 
Loop time of 0.0242226 on 28 procs for 15 steps with 319 atoms

88.6% CPU use with 28 MPI tasks x no OpenMP threads

Minimization stats:
  Stopping criterion = energy tolerance
  Energy initial, next-to-last, final = 
         -439.00129185     -462.592462259     -462.616720704
  Force two-norm initial, final = 24.3272 0.502074
  Force max component initial, final = 9.59716 0.195159
  Final line search alpha, max atom move = 0.392908 0.0766795
  Iterations, force evaluations = 15 24

MPI task timing breakdown:
Section |  min time  |  avg time  |  max time  |%varavg| %total
---------------------------------------------------------------
Pair    | 0.018722   | 0.020187   | 0.02188    |   0.6 | 83.34
Neigh   | 0          | 0          | 0          |   0.0 |  0.00
Comm    | 0.0014166  | 0.0030971  | 0.0045256  |   1.4 | 12.79
Output  | 0          | 0          | 0          |   0.0 |  0.00
Modify  | 0          | 0          | 0          |   0.0 |  0.00
Other   |            | 0.0009385  |            |       |  3.87

Nlocal:    11.3929 ave 16 max 6 min
Histogram: 1 5 2 1 0 2 4 4 5 4
Nghost:    687.893 ave 739 max 655 min
Histogram: 6 4 4 4 2 0 1 2 3 2
Neighs:    733.107 ave 1017 max 384 min
Histogram: 3 4 2 0 0 5 2 3 7 2
FullNghs:  1466.21 ave 2091 max 770 min
Histogram: 6 2 1 0 2 4 4 5 3 1

Total # of neighbors = 41054
Ave neighs/atom = 128.696
Neighbor list builds = 0
Dangerous builds = 0
velocity all  create 600.0 4928459 #rot yes dist gaussian

#--------------  Run a simulation (Relaxation)  ----------------------------------------
fix  1  all  nvt   temp  600.0  600.0  100				#damping constant
#fix  2  all  npt   temp  393.0  393.0  50 iso 0.0 0.0 1000.0
fix  2  all deform 1 x final 0 15.6811 y final 0 13.5802 z final 0 25.3039 xy final -7.84045 units lattice
#fix  3  all  npt   temp  393.0  393.0  50 z 0.0 0.0 1000.0

#variable b equal 1
#fix 2 all efield  0.0  0.0  v_b
#compute pot all pe/atom


#----------- Output --------------------------
thermo	 500
timestep  0.001		#1.0 fs
thermo_style	custom step time temp ke pe etotal press pxx pyy pzz lx ly lz vol

dump 1 all custom 10000 dump.eq id type x y z
dump_modify 1 sort  id

run        1000000	#1000 ps
Neighbor list info ...
  2 neighbor list requests
  update every 1 steps, delay 10 steps, check yes
  max neighbors/atom: 2000, page size: 100000
  master list distance cutoff = 8
  ghost atom cutoff = 8
  binsize = 4 -> bins = 6 4 7
Memory usage per processor = 7.56123 Mbytes
Step Time Temp KinEng PotEng TotEng Press Pxx Pyy Pzz Lx Ly Lz Volume 
      15            0          600    24.662836   -462.61672   -437.95389    -7151.408   -12885.396   -13412.447    4843.6195      15.6763      13.5761      25.3389    5392.7011 
     500        0.485    312.59826    12.849266   -450.79829   -437.94902   -695.81999   -8286.2574   -8187.9503    14386.748    15.676302    13.576102    25.338883    5392.6991 
    1000        0.985    320.92447    13.191512   -451.14017   -437.94866   -37.625438   -7769.1578    -6390.793    14047.074    15.676305    13.576104    25.338866     5392.697 
    1500        1.485    304.84915    12.530741    -450.4786   -437.94786   -1662.2762   -9393.4808     -7945.52    12352.172    15.676307    13.576106    25.338848    5392.6949 
    2000        1.985     311.2126    12.792309   -450.73901    -437.9467   -744.40937   -9043.3687   -6216.5883    13026.729     15.67631    13.576108    25.338831    5392.6929 
    2500        2.485    313.77838    12.897774   -450.84311   -437.94534   -714.73487   -7695.8807   -6422.5815    11974.258    15.676312     13.57611    25.338813    5392.6908 
    3000        2.985    301.18549    12.380147   -450.32389   -437.94374    939.93555   -4927.8437   -7712.6757    15460.326    15.676314    13.576112    25.338796    5392.6887 
    3500        3.485    311.98984    12.824257   -450.76635   -437.94209    716.40786   -4398.9604   -7793.5141    14341.698    15.676317    13.576114    25.338778    5392.6866 
    4000        3.985    315.58977    12.972231   -450.91191   -437.93967    210.01015   -8980.5065   -6073.4008    15683.938    15.676319    13.576116    25.338761    5392.6845 
    4500        4.485    320.98022    13.193804   -451.13116   -437.93736   -190.99552   -7304.9839   -5704.7135    12436.711    15.676322    13.576118    25.338743    5392.6824 
    5000        4.985    328.76493    13.513792   -451.44834   -437.93455    -869.3982   -6735.7355   -9637.7841    13765.325    15.676324     13.57612    25.338726    5392.6803 
    5500        5.485    306.24959    12.588305   -450.51944   -437.93114    895.30221   -5143.6025   -6459.1671    14288.676    15.676326    13.576122    25.338708    5392.6783 
    6000        5.985    304.87183    12.531673   -450.45899   -437.92732    1498.5911   -7008.0823   -6677.6755    18181.531    15.676329    13.576125    25.338691    5392.6762 
    6500        6.485    330.36653    13.579626   -451.50397   -437.92435   -1110.8824   -6840.7455   -7349.1483    10857.247    15.676331    13.576127    25.338673    5392.6741 
    7000        6.985     314.0769    12.910045    -450.8289   -437.91885   -637.46731   -7059.6634   -9044.3077    14191.569    15.676334    13.576129    25.338656     5392.672 
    7500        7.485    296.06779    12.169785   -450.08373   -437.91395    169.36281   -5880.7906    -5755.192    12144.071    15.676336    13.576131    25.338638    5392.6699 
    8000        7.985    336.02095    13.812049    -451.7225   -437.91045   -943.52594   -5890.8633   -9042.8432    12103.129    15.676338    13.576133    25.338621    5392.6678 
    8500        8.485    315.68652    12.976208   -450.88091    -437.9047    467.45204   -5303.7125   -10637.002     17343.07    15.676341    13.576135    25.338603    5392.6658 
    9000        8.985    294.65493     12.11171   -450.01087   -437.89916    659.05311   -5980.3707   -5921.8441    13879.374    15.676343    13.576137    25.338586    5392.6637 
    9500        9.485    329.68195    13.551486   -451.44436   -437.89288   -1248.7857    -6296.678   -9253.1867    11803.508    15.676346    13.576139    25.338568    5392.6616 
   10000        9.985    312.50075    12.845258   -450.73245    -437.8872   -598.89301   -5644.6687   -9219.1142    13067.104    15.676348    13.576141    25.338551    5392.6595 
   10500       10.485    301.83901     12.40701   -450.28696   -437.87995   -627.39491   -6446.7855   -6007.8494     10572.45     15.67635    13.576143    25.338533    5392.6574 
   11000       10.985    330.70601     13.59358   -451.46789   -437.87431   -718.54882   -5710.1247   -10028.427    13582.905    15.676353    13.576145    25.338516    5392.6553 
   11500       11.485    324.96911    13.357766   -451.22503   -437.86727   -988.71428   -9163.9959   -8878.5348    15076.388    15.676355    13.576147    25.338498    5392.6532 
   12000       11.985    307.09401    12.623015    -450.4823   -437.85929    595.32993   -5013.4736   -7196.8433    13996.307    15.676358    13.576149    25.338481    5392.6512 
   12500       12.485    313.00096    12.865819   -450.71771   -437.85189   -307.29629   -8650.7549     -6056.88    13785.746     15.67636    13.576151    25.338463    5392.6491 
   13000       12.985    315.40421    12.964604   -450.80864   -437.84403   -818.10535   -7077.8286   -7296.4046    11919.917    15.676362    13.576153    25.338446     5392.647 
   13500       13.485    320.81897    13.187176   -451.02248   -437.83531   -539.30577   -7332.4141   -6916.7599    12631.257    15.676365    13.576155    25.338428    5392.6449 
   14000       13.985    327.62341    13.466871   -451.29449   -437.82762   -126.91283    -4529.966   -7967.1893    12116.417    15.676367    13.576157    25.338411    5392.6428 
   14500       14.485    309.23196    12.710895   -450.52982   -437.81892   -141.63242   -6260.0686   -6367.3048    12202.476     15.67637    13.576159    25.338393    5392.6407 
   15000       14.985    316.77517    13.020957   -450.83049   -437.80953    648.68276   -7002.5309   -6293.8029    15242.382    15.676372    13.576161    25.338376    5392.6387 
   15500       15.485    305.77519    12.568805   -450.36844   -437.79963   -184.04633    -7209.347   -6307.0915    12964.299    15.676374    13.576163    25.338358    5392.6366 
   16000       15.985    301.55907    12.395503   -450.18502   -437.78951    1281.4806    -7119.837   -8337.9873    19302.266    15.676377    13.576166    25.338341    5392.6345 
   16500       16.485    298.85575    12.284384   -450.06418    -437.7798   -676.52042   -10196.262   -4785.3273    12952.028    15.676379    13.576168    25.338323    5392.6324 
   17000       16.985    337.82937    13.886384   -451.65586   -437.76947    11.715199   -10024.422   -5044.9056    15104.473    15.676382     13.57617    25.338306    5392.6303 
   17500       17.485    305.31075    12.549715   -450.30817   -437.75846    317.53099    -7589.113   -6763.5096    15305.216    15.676384    13.576172    25.338288    5392.6282 
   18000       17.985    319.89234    13.149087   -450.89684   -437.74775    476.87291   -4038.3188   -9902.9412    15371.879    15.676386    13.576174    25.338271    5392.6262 
   18500       18.485    319.54614    13.134857   -450.87157   -437.73671    449.19938   -7109.5743   -5783.6522    14240.825    15.676389    13.576176    25.338253    5392.6241 
   19000       18.985    315.11174    12.952582   -450.67784   -437.72526   -1205.8394   -7220.7685   -7763.4147    11366.665    15.676391    13.576178    25.338236     5392.622 
   19500       19.485    319.29691    13.124612   -450.83837   -437.71376    -234.1141   -8463.2694   -5977.3525     13738.28    15.676394     13.57618    25.338218    5392.6199 
   20000       19.985    311.20139    12.791848   -450.49365   -437.70181   -392.30381   -7437.8591   -6795.8581    13056.806    15.676396    13.576182    25.338201    5392.6178 
   20500       20.485    334.79769    13.761767   -451.45168   -437.68992   -203.78498   -10161.306   -6178.3228    15728.274    15.676398    13.576184    25.338183    5392.6157 
   21000       20.985    322.71308    13.265033   -450.94197   -437.67694    383.37249   -6672.7842   -6036.2041    13859.106    15.676401    13.576186    25.338166    5392.6136 
   21500       21.485    301.11793     12.37737   -450.04089   -437.66352   -159.25088   -7612.8108   -5960.4772    13095.535    15.676403    13.576188    25.338148    5392.6116 
   22000       21.985    313.25948    12.876445   -450.52672   -437.65028   -242.04963   -9617.2647   -6618.6744     15509.79    15.676406     13.57619    25.338131    5392.6095 
   22500       22.485    316.55152    13.011764    -450.6481   -437.63634    249.48151   -2845.0395   -8153.0446    11746.529    15.676408    13.576192    25.338113    5392.6074 
   23000       22.985    311.91167    12.821044   -450.44355    -437.6225    374.16939   -8975.8241   -5458.8231    15557.155     15.67641    13.576194    25.338096    5392.6053 
   23500       23.485    317.61527    13.055489   -450.66393   -437.60844   -601.45335   -8467.7753   -9167.5428    15830.958    15.676413    13.576196    25.338078    5392.6032 
   24000       23.985    320.69086     13.18191   -450.77581    -437.5939    407.56512   -4102.3172   -9158.2034    14483.216    15.676415    13.576198    25.338061    5392.6011 
   24500       24.485    327.49099    13.461427   -451.04058   -437.57915   -185.16744    -9322.503   -7582.1892     16349.19    15.676418      13.5762    25.338043    5392.5991 
   25000       24.985    340.68108    14.003603   -451.56838   -437.56478   -660.90935   -7927.2885   -6088.5121    12033.073     15.67642    13.576202    25.338026     5392.597 
   25500       25.485    315.40911    12.964805   -450.51319   -437.54839    278.01951   -8011.2763   -4536.1073    13381.442    15.676422    13.576204    25.338008    5392.5949 
   26000       25.985    316.43421    13.006942   -450.54037   -437.53343    231.16882   -7908.5797   -4649.3062    13251.392    15.676425    13.576207    25.337991    5392.5928 
   26500       26.485    327.82024    13.474961   -450.99237   -437.51741    518.57821   -8460.6218   -6205.7608    16222.117    15.676427    13.576209    25.337973    5392.5907 
   27000       26.985    312.67329     12.85235   -450.35325    -437.5009    239.56858   -6339.0328   -8192.8394    15250.578     15.67643    13.576211    25.337956    5392.5886 
   27500       27.485    325.60219    13.383789   -450.86924   -437.48545    17.072793   -8166.9098   -7685.2407    15903.369    15.676432    13.576213    25.337938    5392.5865 
   28000       27.985    310.89093    12.779087   -450.24792   -437.46884   -185.38684   -7839.7821   -6849.8163    14133.438    15.676434    13.576215    25.337921    5392.5845 
   28500       28.485    321.75238    13.225544   -450.67813   -437.45259   -1144.0336   -5375.6008    -7222.311     9165.811    15.676437    13.576217    25.337903    5392.5824 
   29000       28.985    314.45628    12.925639   -450.36135   -437.43571   -4.6780468   -6599.8309   -7245.0404    13830.837    15.676439    13.576219    25.337886    5392.5803 
   29500       29.485    313.93566    12.904239   -450.32326   -437.41902   -915.28916    -8926.887   -6807.5263    12988.546    15.676442    13.576221    25.337868    5392.5782 
   30000       29.985    308.93357     12.69863   -450.09973    -437.4011   -204.21341   -7796.4665   -6961.4649    14145.291    15.676444    13.576223    25.337851    5392.5761 
   30500       30.485    362.00049    14.879931   -452.26495   -437.38502   -2000.3609   -8591.6635     -8862.05    11452.631    15.676446    13.576225    25.337833     5392.574 
   31000       30.985    339.21013    13.943139   -451.30985   -437.36671    763.33174   -7042.8724    -8223.712     17556.58    15.676449    13.576227    25.337816     5392.572 
   31500       31.485    315.02458    12.948999   -450.29813   -437.34913    993.44516   -5183.3633   -6702.5299    14866.229    15.676451    13.576229    25.337798    5392.5699 
   32000       31.985    317.37564    13.045639   -450.37624    -437.3306   -1168.4304     -9333.55   -7274.5412      13102.8    15.676454    13.576231    25.337781    5392.5678 
   32500       32.485     307.5015    12.639765    -449.9529   -437.31313   -1085.3725   -10641.459    -5749.371    13134.713    15.676456    13.576233    25.337763    5392.5657 
   33000       32.985     322.4471      13.2541    -450.5496    -437.2955   -43.400948   -5143.8113   -8061.4653    13075.074    15.676458    13.576235    25.337746    5392.5636 
   33500       33.485    305.25807    12.547549   -449.82414   -437.27659    881.08342   -4483.0672   -7511.3072    14637.625    15.676461    13.576237    25.337728    5392.5615 
   34000       33.985    317.21059    13.038854   -450.29705   -437.25819     78.12648   -8384.3085   -6318.5056    14937.193    15.676463    13.576239    25.337711    5392.5594 
   34500       34.485    328.63632    13.508506   -450.74879   -437.24028   -570.73191   -6120.6043    -6361.809    10770.218    15.676466    13.576241    25.337693    5392.5574 
   35000       34.985     335.5484    13.792625   -451.01424   -437.22161   -308.18141   -8372.3642   -7964.0609    15411.881    15.676468    13.576243    25.337676    5392.5553 
   35500       35.485    322.50406    13.256441   -450.45922   -437.20278   -529.48535   -6293.2096   -7300.1114    12004.865     15.67647    13.576245    25.337658    5392.5532 
   36000       35.985    333.55673    13.710758    -450.8951   -437.18435    229.55038   -5601.1217   -10436.721    16726.493    15.676473    13.576248    25.337641    5392.5511 
   36500       36.485    310.17467    12.749645   -449.91513   -437.16549   -230.87448   -7465.2735   -10867.734    17640.384    15.676475     13.57625    25.337623     5392.549 
   37000       36.985    323.20169    13.285117   -450.43206   -437.14694    1729.7638   -5775.3259   -6981.8652    17946.483    15.676478    13.576252    25.337606    5392.5469 
   37500       37.485     332.8183    13.680405   -450.80768   -437.12728    380.61419   -8713.4007   -6270.9684    16126.212     15.67648    13.576254    25.337588    5392.5449 
   38000       37.985    327.18929    13.449026   -450.55706   -437.10803    554.78972   -7600.3016   -4408.9963    13673.667    15.676482    13.576256    25.337571    5392.5428 
   38500       38.485    337.81813    13.885922   -450.97539   -437.08947   -305.68036   -8773.7756   -6569.7309    14426.465    15.676485    13.576258    25.337553    5392.5407 
   39000       38.985    326.82809    13.434179   -450.50386   -437.06968    266.80013   -8565.3433   -5851.2774    15217.021    15.676487     13.57626    25.337536    5392.5386 
   39500       39.485    341.50296    14.037386   -451.08775   -437.05036   -558.02113   -7241.6811   -6993.9168    12561.535     15.67649    13.576262    25.337518    5392.5365 
   40000       39.985     335.4706    13.789427    -450.8203   -437.03087    181.61566   -6951.2297   -7518.7507    15014.827    15.676492    13.576264    25.337501    5392.5344 
   40500       40.485    321.38314    13.210366   -450.22133   -437.01096   -170.27799   -7537.7332   -6636.2207     13663.12    15.676494    13.576266    25.337483    5392.5323 
   41000       40.985    319.36203    13.127289   -450.11938   -436.99209    -168.7064   -7816.9878   -10365.419    17676.288    15.676497    13.576268    25.337466    5392.5303 
   41500       41.485    318.48678    13.091312   -450.06401   -436.97269     258.0967   -7772.7311   -6499.2265    15046.248    15.676499     13.57627    25.337448    5392.5282 
   42000       41.985    328.30203    13.494765   -450.44855   -436.95378    338.74577   -5722.8607   -9471.9709    16211.069    15.676502    13.576272    25.337431    5392.5261 
   42500       42.485    343.82747    14.132934   -451.06791   -436.93498    760.07393   -7240.4234   -7443.3895    16964.035    15.676504    13.576274    25.337413     5392.524 
   43000       42.985    327.29151    13.453228   -450.36888   -436.91565   -131.17289   -5994.5225   -8304.6772    13905.681    15.676506    13.576276    25.337396    5392.5219 
   43500       43.485    350.76328    14.418029   -451.31493   -436.89691   -390.81054   -4519.9428   -9529.2281    12876.739    15.676509    13.576278    25.337378    5392.5198 
   44000       43.985    317.83346    13.064457   -449.94136    -436.8769   -302.17663   -7377.1184   -6313.5544    12784.143    15.676511     13.57628    25.337361    5392.5178 
   44500       44.485    325.94963     13.39807   -450.25709   -436.85902    350.11993   -5002.9817   -7677.1825    13730.524    15.676514    13.576282    25.337343    5392.5157 
   45000       44.985    334.41031    13.745844   -450.58679   -436.84095   -255.77729   -6217.5611   -7706.9377    13157.167    15.676516    13.576284    25.337326    5392.5136 
   45500       45.485    342.17353    14.064949   -450.88718   -436.82223   -1091.9651   -9781.3439   -7647.0305    14152.479    15.676518    13.576286    25.337308    5392.5115 
   46000       45.985    327.11959    13.446161   -450.24931   -436.80315   -124.54226   -6989.8021   -7190.8553    13807.031    15.676521    13.576289    25.337291    5392.5094 
   46500       46.485    314.34861    12.921214   -449.70503   -436.78382    1149.8179   -4896.5993   -5192.6492    13538.702    15.676523    13.576291    25.337273    5392.5073 
   47000       46.985    324.00437    13.318111   -450.08316   -436.76504    464.22372   -7357.5998   -8654.8836    17405.155    15.676526    13.576293    25.337256    5392.5052 
   47500       47.485    309.01035    12.701786   -449.44783   -436.74605    641.36722    -8600.022   -3911.4134    14435.537    15.676528    13.576295    25.337238    5392.5032 
   48000       47.985    321.59134    13.218924   -449.94705   -436.72812    367.27863   -6473.3129   -6134.5931    13709.742     15.67653    13.576297    25.337221    5392.5011 
   48500       48.485    342.80572    14.090935   -450.80076   -436.70983    204.69112     -6734.95    -6672.306    14021.329    15.676533    13.576299    25.337203     5392.499 
   49000       48.985     335.7864    13.802408   -450.49351    -436.6911    825.41677   -6402.1652   -7961.6128    16840.028    15.676535    13.576301    25.337186    5392.4969 
   49500       49.485    349.77932    14.377583   -451.05012   -436.67254     680.4305   -7070.2432   -5612.7749     14724.31    15.676538    13.576303    25.337168    5392.4948 
   50000       49.985    348.94947    14.343473   -450.99839   -436.65492    492.11819   -6803.7758   -6571.3496     14851.48     15.67654    13.576305    25.337151    5392.4927 
   50500       50.485     331.4602    13.624581   -450.26124   -436.63666    544.21337   -7943.7845   -4074.9679    13651.392    15.676542    13.576307    25.337133    5392.4906 
   51000       50.985    320.30548    13.166069   -449.78544   -436.61938   -182.34707   -6630.2402   -8262.5011      14345.7    15.676545    13.576309    25.337116    5392.4886 
   51500       51.485    329.15368    13.529772   -450.13082   -436.60105   -88.530096   -8603.9384   -6125.2713    14463.619    15.676547    13.576311    25.337098    5392.4865 
   52000       51.985    334.19495    13.736992   -450.32048   -436.58349   -606.53093   -4951.1885   -8441.7353    11573.331     15.67655    13.576313    25.337081    5392.4844 
   52500       52.485    333.41061    13.704752   -450.27074   -436.56598    411.86461   -8651.4183   -5059.7107    14946.723    15.676552    13.576315    25.337063    5392.4823 
   53000       52.985    324.14538    13.323907   -449.87125   -436.54734    817.05178   -7080.0123   -6350.6637    15881.831    15.676554    13.576317    25.337046    5392.4802 
   53500       53.485    324.18899      13.3257   -449.85635   -436.53065    1162.3715   -4605.0264   -5787.6829    13879.824    15.676557    13.576319    25.337028    5392.4781 
   54000       53.985    342.29012    14.069742   -450.58354    -436.5138    1038.8707   -5821.1662   -8369.6388    17307.417    15.676559    13.576321    25.337011    5392.4761 
   54500       54.485    347.39699    14.279658   -450.77538   -436.49572    1869.3149   -5884.9849   -6568.9169    18061.846    15.676562    13.576323    25.336993     5392.474 
   55000       54.985    329.00375    13.523609    -450.0029   -436.47929    410.33472   -7219.0276   -6597.6543    15047.686    15.676564    13.576325    25.336976    5392.4719 
   55500       55.485    358.01663    14.716176   -451.17824   -436.46207   -441.04692   -4911.2732   -10070.677    13658.809    15.676566    13.576327    25.336958    5392.4698 
   56000       55.985    340.82435    14.009492   -450.45507   -436.44558   -839.96033    -10175.32   -7707.0086    15362.448    15.676569     13.57633    25.336941    5392.4677 
   56500       56.485    349.27625    14.356905   -450.78542   -436.42852    252.99797   -6927.9063   -5130.4921    12817.392    15.676571    13.576332    25.336923    5392.4656 
   57000       56.985    327.88906     13.47779     -449.889   -436.41121   -150.88463   -5521.4388   -6981.2744    12050.059    15.676574    13.576334    25.336906    5392.4635 
   57500       57.485    343.06738    14.101691   -450.49584   -436.39415     1032.427    -5785.924   -7153.2889    16036.494    15.676576    13.576336    25.336888    5392.4615 
   58000       57.985    329.21092    13.532125   -449.90932   -436.37719   -49.474343   -8481.4714   -5451.1317     13784.18    15.676578    13.576338    25.336871    5392.4594 
   58500       58.485    322.00753    13.236031    -449.5965   -436.36046    1557.9188    -5446.588   -6098.8869    16219.231    15.676581     13.57634    25.336853    5392.4573 
   59000       58.985    337.02929    13.853496   -450.19817   -436.34467     698.3684    -7126.225   -6146.4787    15367.809    15.676583    13.576342    25.336836    5392.4552 
   59500       59.485    316.98424    13.029551   -449.35739   -436.32784   -372.59389   -7499.5685   -8811.1951    15192.982    15.676586    13.576344    25.336818    5392.4531 
   60000       59.985     337.8587    13.887589   -450.19973   -436.31214    1120.4203   -8027.4977   -6339.6292    17728.388    15.676588    13.576346    25.336801     5392.451 
   60500       60.485    329.92898     13.56164   -449.85652   -436.29488    359.27901   -7202.9724   -5739.4605     14020.27     15.67659    13.576348    25.336783     5392.449 
   61000       60.985    317.21541    13.039053   -449.31751   -436.27846    218.73636    -7159.753   -8512.1534    16328.115    15.676593     13.57635    25.336766    5392.4469 
   61500       61.485    336.17483    13.818374   -450.08077   -436.26239   -696.53749   -7767.4343   -6502.7041    12180.526    15.676595    13.576352    25.336748    5392.4448 
   62000       61.985    341.77835    14.048706   -450.29533   -436.24662    237.63599     -9046.35    -5508.071    15267.329    15.676598    13.576354    25.336731    5392.4427 
   62500       62.485    339.90425    13.971671   -450.20183   -436.23016   -380.28999   -10689.105   -7710.6919    17258.927      15.6766    13.576356    25.336713    5392.4406 
   63000       62.985    327.07341    13.444263   -449.65842   -436.21416    1108.4867   -7122.6731   -6599.9884    17048.122    15.676602    13.576358    25.336696    5392.4385 
   63500       63.485    320.59997    13.178174   -449.37588    -436.1977    941.25214   -8336.4471   -5592.0145    16752.218    15.676605     13.57636    25.336678    5392.4364 
   64000       63.985    346.01253     14.22275   -450.40507   -436.18232   -219.28272   -4738.7774   -7155.0344    11235.964    15.676607    13.576362    25.336661    5392.4344 
   64500       64.485    342.49336    14.078096   -450.24524   -436.16714    144.41235   -9077.6599   -5257.2111    14768.108     15.67661    13.576364    25.336643    5392.4323 
   65000       64.985    322.92347    13.273681   -449.42465   -436.15097    1497.4965    -7321.139   -6283.0148    18096.643    15.676612    13.576366    25.336626    5392.4302 
   65500       65.485    341.60153    14.041437   -450.17626   -436.13482    641.20949   -4633.6554   -7576.1967    14133.481    15.676614    13.576368    25.336608    5392.4281 
   66000       65.985     335.1259    13.775258   -449.89453   -436.11927    753.51852   -7937.2574   -4507.0694    14704.882    15.676617    13.576371    25.336591     5392.426 
   66500       66.485    333.36873     13.70303   -449.80609   -436.10306    599.67558   -6018.6307   -6245.9231    14063.581    15.676619    13.576373    25.336573    5392.4239 
   67000       66.985    350.66495    14.413987   -450.50185   -436.08786    347.79129   -10617.462   -7378.3456    19039.182    15.676622    13.576375    25.336556    5392.4219 
   67500       67.485    317.73357    13.060351    -449.1317   -436.07135    856.01315   -7766.8876   -4475.3789    14810.306    15.676624    13.576377    25.336538    5392.4198 
   68000       67.985    355.10927    14.596669   -450.65213   -436.05546   -410.88374   -10384.167   -3396.4378    12547.954    15.676626    13.576379    25.336521    5392.4177 
   68500       68.485    340.74046    14.006043   -450.04667   -436.04063   -1345.5179   -6908.7489   -9964.9025    12837.098    15.676629    13.576381    25.336503    5392.4156 
   69000       68.985     306.4284    12.595656   -448.61971   -436.02405     810.9652    -5426.388   -5630.3394    13489.623    15.676631    13.576383    25.336486    5392.4135 
   69500       69.485    342.49441    14.078139   -450.08768   -436.00954    1523.8525   -3769.9311   -6396.0891    14737.578    15.676634    13.576385    25.336468    5392.4114 
   70000       69.985    374.02265    15.374099   -451.36777   -435.99367   -1222.6606   -4943.6327   -9480.0027    10755.653    15.676636    13.576387    25.336451    5392.4093 
   70500       70.485    351.09553    14.431686   -450.40964   -435.97796    -357.2943   -7881.6524   -6808.6164    13618.386    15.676638    13.576389    25.336433    5392.4073 
   71000       70.985    355.21935    14.601194    -450.5624   -435.96121     16.58379   -7467.4891   -4874.9199     12392.16    15.676641    13.576391    25.336416    5392.4052 
   71500       71.485    344.30813    14.152691   -450.09841   -435.94571    1421.0201   -8302.2302    -6221.598    18786.888    15.676643    13.576393    25.336398    5392.4031 
   72000       71.985    355.17124    14.599216   -450.52894   -435.92972   -61.174232   -7100.3569   -6352.2325    13269.067    15.676646    13.576395    25.336381     5392.401 
   72500       72.485    320.28409     13.16519   -449.07819     -435.913    377.83356   -6253.2144   -7831.5276    15218.243    15.676648    13.576397    25.336363    5392.3989 
   73000       72.985    328.60231    13.507108   -449.40467   -435.89756   -354.92415   -4503.2343   -7927.4115    11365.873     15.67665    13.576399    25.336346    5392.3968 
   73500       73.485     351.9083    14.465094   -450.34712   -435.88202    898.37793   -7925.8706   -7175.5531    17796.558    15.676653    13.576401    25.336328    5392.3948 
   74000       73.985    329.62463     13.54913    -449.4149   -435.86577    1298.8321   -6467.9653   -3516.4821    13880.944    15.676655    13.576403    25.336311    5392.3927 
   74500       74.485    336.93688    13.849698   -449.69943   -435.84973    736.30894   -6928.5984   -6275.9237    15413.449    15.676658    13.576405    25.336293    5392.3906 
   75000       74.985    348.40733    14.321188   -450.15514   -435.83395   -6.6245081    -10802.23    -4255.564     15037.92     15.67666    13.576407    25.336276    5392.3885 
   75500       75.485    343.93837    14.137492   -449.95592   -435.81843    204.80172   -7823.6609   -5007.6559    13445.722    15.676662    13.576409    25.336258    5392.3864 
   76000       75.985    337.03732    13.853827   -449.65594   -435.80211    989.24473   -6097.8676   -6967.6324    16033.234    15.676665    13.576412    25.336241    5392.3843 
   76500       76.485    344.30074    14.152388   -449.93858   -435.78619     1274.928   -5477.7176   -5158.5875    14461.089    15.676667    13.576414    25.336223    5392.3822 
   77000       76.985    336.88947    13.847749   -449.61711   -435.76936   -178.07622   -6934.0236   -7837.4593    14237.254     15.67667    13.576416    25.336206    5392.3802 
   77500       77.485    340.87211    14.011455    -449.7643   -435.75285    604.78919   -4601.1331   -8306.9142    14722.415    15.676672    13.576418    25.336188    5392.3781 
   78000       77.985    348.70471    14.333412   -450.07064   -435.73723    214.30427   -5861.3171   -8279.0349    14783.265    15.676674     13.57642    25.336171     5392.376 
   78500       78.485     350.2479    14.396844   -450.11682   -435.71998     212.9316   -6468.2084   -6880.6731    13987.676    15.676677    13.576422    25.336153    5392.3739 
   79000       78.985    342.93316    14.096173    -449.7998   -435.70363    472.19067   -7129.5724   -4994.1196    13540.264    15.676679    13.576424    25.336136    5392.3718 
   79500       79.485    349.28224    14.357151    -450.0435   -435.68635    606.31588    -6089.371   -6706.1271    14614.446    15.676682    13.576426    25.336118    5392.3697 
   80000       79.985    328.43364    13.500175   -449.16909   -435.66892    1449.0452   -5455.9334   -4351.4533    14154.522    15.676684    13.576428    25.336101    5392.3676 
   80500       80.485    344.94013     14.17867     -449.831   -435.65233    2469.6428   -2308.8589   -7115.4475    16833.235    15.676686     13.57643    25.336083    5392.3656 
   81000       80.985    353.02539    14.511012   -450.14688   -435.63587   -561.76127   -10139.168   -7990.6906    16444.575    15.676689    13.576432    25.336066    5392.3635 
   81500       81.485    344.23323    14.149612   -449.76819   -435.61857   -733.99878   -8077.9542   -9073.5729    14949.531    15.676691    13.576434    25.336048    5392.3614 
   82000       81.985    355.62174    14.617734   -450.21977   -435.60203    1058.3153   -5167.6485   -6412.2168    14754.811    15.676694    13.576436    25.336031    5392.3593 
   82500       82.485    349.40977    14.362393   -449.94699    -435.5846    976.61043   -5198.7556   -7526.1049    15654.692    15.676696    13.576438    25.336013    5392.3572 
   83000       82.985    365.95105    15.042318   -450.61079   -435.56848    979.22527     -4091.71   -10437.342    17466.728    15.676698     13.57644    25.335996    5392.3551 
   83500       83.485    375.77114     15.44597   -450.99702   -435.55105   -439.56389   -8069.8577   -7485.7752    14236.941    15.676701    13.576442    25.335978    5392.3531 
   84000       83.985     361.6262    14.864546   -450.39814   -435.53359   -315.94821   -8184.9368   -8883.1703    16120.262    15.676703    13.576444    25.335961     5392.351 
   84500       84.485    351.53176    14.449617   -449.96545   -435.51583    737.21389   -4700.6241   -7383.0631    14295.329    15.676706    13.576446    25.335943    5392.3489 
   85000       84.985    360.73741    14.828012   -450.32652    -435.4985    143.32285   -7483.1045    -7508.922    15421.995    15.676708    13.576448    25.335926    5392.3468 
   85500       85.485    339.06002    13.936969   -449.41762   -435.48065    1371.7688   -5889.3375    -3392.241    13396.885     15.67671     13.57645    25.335908    5392.3447 
   86000       85.985    355.40777    14.608939   -450.07155   -435.46261     1098.454   -3812.1226   -6966.9039    14074.388    15.676713    13.576453    25.335891    5392.3426 
   86500       86.485    328.49719    13.502787   -448.94797   -435.44518    1616.0057   -8820.3248   -5793.2711    19461.613    15.676715    13.576455    25.335873    5392.3405 
   87000       86.985    365.89367    15.039959   -450.46827   -435.42831      354.934   -9736.9361   -3862.2769    14664.015    15.676718    13.576457    25.335856    5392.3385 
   87500       87.485    344.85154    14.175028    -449.5847   -435.40967    1541.9264   -4223.5126   -6124.3689    14973.661     15.67672    13.576459    25.335838    5392.3364 
   88000       87.985    338.30538     13.90595    -449.2974   -435.39145    2192.6522   -4160.8518   -4887.0297    15625.838    15.676722    13.576461    25.335821    5392.3343 
   88500       88.485    344.79528    14.172715   -449.54585   -435.37313    1272.8215   -6117.5111   -9675.7375    19611.713    15.676725    13.576463    25.335803    5392.3322 
   89000       88.985    337.45508    13.870999    -449.2248    -435.3538    1972.9362   -3799.8731   -5127.9194    14846.601    15.676727    13.576465    25.335786    5392.3301 
   89500       89.485    348.73111    14.334497   -449.67079    -435.3363    2006.6083   -4337.7707    -4866.545    15224.141     15.67673    13.576467    25.335768     5392.328 
   90000       89.985    356.52905    14.655029   -449.97234   -435.31731    1184.8809   -4208.1907   -7367.3737    15130.207    15.676732    13.576469    25.335751     5392.326 
   90500       90.485    344.87217    14.175876   -449.47496   -435.29908    1121.0477   -6833.4314   -6415.6372    16612.212    15.676734    13.576471    25.335733    5392.3239 
   91000       90.985    346.24318    14.232231   -449.51197   -435.27973    634.03586    -5508.099   -7136.7794    14546.986    15.676737    13.576473    25.335716    5392.3218 
   91500       91.485    342.86331    14.093303    -449.3539    -435.2606    1240.0969   -5799.5132   -6320.2856     15840.09    15.676739    13.576475    25.335698    5392.3197 
   92000       91.985     349.5194    14.366899   -449.60946   -435.24256    1232.2337   -5384.8771   -6871.3389    15952.917    15.676742    13.576477    25.335681    5392.3176 
   92500       92.485    328.21708    13.491273   -448.71426   -435.22298    3258.4134   -6150.1465   -4424.1475    20349.534    15.676744    13.576479    25.335663    5392.3155 
   93000       92.985    355.80489    14.625263   -449.82937   -435.20411    758.45704   -7305.2254   -8346.8488    17927.445    15.676746    13.576481    25.335646    5392.3134 
   93500       93.485     348.3564    14.319094   -449.50445   -435.18535    476.76632    -8869.985   -5129.4633    15429.747    15.676749    13.576483    25.335628    5392.3114 
   94000       93.985    348.28815    14.316289   -449.48369    -435.1674    347.33151   -6903.9246   -8448.0909     16394.01    15.676751    13.576485    25.335611    5392.3093 
   94500       94.485    343.46249    14.117932   -449.26658   -435.14864    1069.5879   -4092.9335   -4968.0649    12269.762    15.676754    13.576487    25.335593    5392.3072 
   95000       94.985    351.29015    14.439685   -449.56812   -435.12844    1829.6712    -6778.081   -5913.0176    18180.112    15.676756    13.576489    25.335576    5392.3051 
   95500       95.485    333.91712    13.725572   -448.83464   -435.10907    762.88807   -2914.2072   -6641.1656    11844.037    15.676758    13.576491    25.335558     5392.303 
   96000       95.985    363.02466    14.922029   -450.01192    -435.0899    449.85661   -4500.1634   -9093.4333    14943.167    15.676761    13.576494    25.335541    5392.3009 
   96500       96.485    358.02142    14.716372   -449.78682   -435.07044    168.78482   -5866.1295   -6303.2372    12675.721    15.676763    13.576496    25.335523    5392.2988 
   97000       96.985     360.4326    14.815483   -449.86703   -435.05155    1517.2917   -4207.0654   -7118.3539    15877.295    15.676766    13.576498    25.335506    5392.2968 
   97500       97.485    345.42833    14.198737   -449.23084    -435.0321    914.09927   -5089.4472   -5632.5689    13464.314    15.676768      13.5765    25.335488    5392.2947 
   98000       97.985    362.24858    14.890129   -449.90256   -435.01243    756.32035    -5627.619   -4673.1763    12569.756     15.67677    13.576502    25.335471    5392.2926 
   98500       98.485    341.32025    14.029875    -449.0222   -434.99233    1122.6567   -3775.7789   -9537.1896    16680.939    15.676773    13.576504    25.335453    5392.2905 
   99000       98.985    347.48188    14.283148    -449.2558   -434.97266    942.61842   -8396.5811   -5676.8317    16901.268    15.676775    13.576506    25.335436    5392.2884 
   99500       99.485    343.29487    14.111042    -449.0631   -434.95206    2081.8455   -5218.1692   -4941.9033    16405.609    15.676778    13.576508    25.335418    5392.2863 
  100000       99.985    343.51838    14.120229     -449.052   -434.93177    481.83438   -7069.9478    -7064.954    15580.405     15.67678     13.57651    25.335401    5392.2843 
  100500      100.485    357.80187    14.707348    -449.6193   -434.91195    1416.6307   -3467.1061   -8164.5193    15881.518    15.676782    13.576512    25.335383    5392.2822 
  101000      100.985    384.55128    15.806875   -450.69881   -434.89193    571.26598   -5958.2635   -7483.6512    15155.713    15.676785    13.576514    25.335366    5392.2801 
  101500      101.485    334.18617    13.736631   -448.60734   -434.87071    1858.9293   -8642.7173   -5107.9721    19327.477    15.676787    13.576516    25.335348     5392.278 
  102000      101.985    320.08702    13.157089   -448.00679    -434.8497    1661.1129   -7785.4654    -4736.885    17505.689     15.67679    13.576518    25.335331    5392.2759 
  102500      102.485     346.4609     14.24118   -449.07106   -434.82988    1589.1787    -5934.155   -5999.9431    16701.634    15.676792     13.57652    25.335313    5392.2738 
  103000      102.985    351.00317    14.427889   -449.23768   -434.80979     1812.245   -5275.5528   -6905.8752    17618.163    15.676794    13.576522    25.335296    5392.2717 
  103500      103.485    360.18478    14.805297   -449.59349   -434.78819    1350.5579   -6129.6608   -2937.8403    13119.175    15.676797    13.576524    25.335278    5392.2697 
  104000      103.985    345.74517     14.21176   -448.97905   -434.76729     2379.609   -5445.9769   -5239.2557     17824.06    15.676799    13.576526    25.335261    5392.2676 
  104500      104.485    348.39864    14.320831   -449.06739   -434.74656    599.17281   -13197.836   -4967.2904    19962.645    15.676802    13.576528    25.335243    5392.2655 
  105000      104.985     348.7025    14.333321   -449.05907   -434.72575    3164.4326    -3048.869   -5239.2419    17781.409    15.676804     13.57653    25.335226    5392.2634 
  105500      105.485    358.90335    14.752624   -449.45774   -434.70512    1417.1445   -7364.6191   -4398.0424    16014.095    15.676806    13.576532    25.335208    5392.2613 
  106000      105.985    356.72898    14.663247   -449.34694   -434.68369    925.81309   -8662.2009   -4667.3209    16106.961    15.676809    13.576535    25.335191    5392.2592 
  106500      106.485    368.55993    15.149555   -449.81372   -434.66416    386.48985   -7061.7422   -5912.5994    14133.811    15.676811    13.576537    25.335173    5392.2572 
  107000      106.985    373.07482    15.335138   -449.97767   -434.64253    1572.6866   -8951.9031   -3795.0276    17464.991    15.676814    13.576539    25.335156    5392.2551 
  107500      107.485    344.33364     14.15374   -448.77492   -434.62118    501.26411   -11518.622   -3055.7053     16078.12    15.676816    13.576541    25.335138     5392.253 
  108000      107.985    359.55318    14.779335   -449.37923    -434.5999    1733.7908   -5089.3787   -8386.4321    18677.183    15.676818    13.576543    25.335121    5392.2509 
  108500      108.485    360.64848    14.824357   -449.40287   -434.57852    991.11125   -6757.0941   -5619.9921     15350.42    15.676821    13.576545    25.335103    5392.2488 
  109000      108.985     353.7427    14.540497   -449.09746   -434.55696    1920.7357   -2704.4615   -6354.6253    14821.294    15.676823    13.576547    25.335086    5392.2467 
  109500      109.485    357.63756    14.700594   -449.23689    -434.5363    2940.9178   -9704.7744   -1708.9611    20236.489    15.676826    13.576549    25.335068    5392.2446 
  110000      109.985    361.32306    14.852085   -449.36692   -434.51484    107.00519   -7111.9156   -5951.4811    13384.412    15.676828    13.576551    25.335051    5392.2426 
  110500      110.485    361.37506    14.854223   -449.34659   -434.49236    1669.0806    -7345.669    -4918.696    17271.607     15.67683    13.576553    25.335033    5392.2405 
  111000      110.985    361.13927    14.844531   -449.31608   -434.47155    1365.1829   -5949.7828    -2644.978    12690.309    15.676833    13.576555    25.335016    5392.2384 
  111500      111.485    334.93978    13.767608   -448.21683   -434.44923    768.85339   -3988.3617   -8018.4926    14313.414    15.676835    13.576557    25.334998    5392.2363 
  112000      111.985    347.31996    14.276492   -448.70371   -434.42721    1534.6281   -4929.0777   -4223.2777     13756.24    15.676838    13.576559    25.334981    5392.2342 
  112500      112.485    364.96226    15.001674   -449.40678    -434.4051    1762.5981   -5752.3481    -6287.962    17328.104     15.67684    13.576561    25.334963    5392.2321 
  113000      112.985    374.86444      15.4087   -449.79291   -434.38421    1035.6991   -5261.4125   -8767.0507    17135.561    15.676842    13.576563    25.334946      5392.23 
  113500      113.485     360.9222    14.835608   -449.19768   -434.36207    1728.0653    -6039.032   -6687.4751    17910.703    15.676845    13.576565    25.334928     5392.228 
  114000      113.985    374.06465    15.375825   -449.71568   -434.33986    1438.1562   -6471.1013   -6131.7826    16917.353    15.676847    13.576567    25.334911    5392.2259 
  114500      114.485    348.05458    14.306688   -448.62408   -434.31739    1533.8236   -6554.3739   -5383.7336    16539.578     15.67685    13.576569    25.334893    5392.2238 
  115000      114.985    364.18244    14.969619   -449.26552    -434.2959    2308.9119   -5680.4633   -6927.4745    19534.673    15.676852    13.576571    25.334876    5392.2217 
  115500      115.485    378.45498    15.556288   -449.83009    -434.2738    1563.8151   -9309.9073   -6624.6976     20626.05    15.676854    13.576573    25.334858    5392.2196 
  116000      115.985    352.16825    14.475779   -448.72647   -434.25069    2417.1435   -5605.1507   -4975.0059    17831.587    15.676857    13.576576    25.334841    5392.2175 
  116500      116.485    387.66301    15.934782   -450.16383   -434.22904     626.0067   -7841.2949   -5255.2839    14974.599    15.676859    13.576578    25.334823    5392.2155 
  117000      116.985    360.01137    14.798169   -449.00327    -434.2051    1761.7985   -7050.0654   -7148.3693     19483.83    15.676862     13.57658    25.334806    5392.2134 
  117500      117.485    366.29446    15.056433    -449.2396   -434.18316    1191.2079    492.17902   -13137.591    16219.036    15.676864    13.576582    25.334788    5392.2113 
  118000      117.985    361.06476    14.841468   -449.00239   -434.16092    1135.7234   -1627.3284    -8232.325    13266.824    15.676866    13.576584    25.334771    5392.2092 
  118500      118.485    359.05024    14.758662   -448.89588   -434.13722    2304.4723   -4044.1632   -5827.1396     16784.72    15.676869    13.576586    25.334753    5392.2071 
  119000      118.985    360.38724    14.813619   -448.92801   -434.11439    2514.9458   -1850.0998   -6059.1146    15454.052    15.676871    13.576588    25.334736     5392.205 
  119500      119.485    366.97574    15.084437   -449.17696   -434.09252    2488.0631   -8302.3939   -3149.3212    18915.904    15.676874     13.57659    25.334718    5392.2029 
  120000      119.985     376.4269    15.472925   -449.54393   -434.07101     -108.256   -9005.6704   -5587.3914    14268.294    15.676876    13.576592    25.334701    5392.2009 
  120500      120.485    372.12143     15.29595   -449.34372   -434.04777    1642.3205    -5187.756    -5696.268    15810.986    15.676878    13.576594    25.334683    5392.1988 
  121000      120.985    371.04588    15.251739   -449.27714   -434.02541    1112.2794   -7895.3201   -7410.1285    18642.287    15.676881    13.576596    25.334666    5392.1967 
  121500      121.485     370.8611    15.244144    -449.2466   -434.00245     621.3353   -6124.3305   -7858.2655    15846.602    15.676883    13.576598    25.334648    5392.1946 
  122000      121.985    365.41667    15.020352    -448.9998   -433.97945    499.04026    -5001.525    -9030.697    15529.343    15.676886      13.5766    25.334631    5392.1925 
  122500      122.485    377.06657    15.499218   -449.45611   -433.95689    2390.1195   -5189.3644   -4790.2545    17149.977    15.676888    13.576602    25.334613    5392.1904 
  123000      122.985    381.15805    15.667397    -449.6019    -433.9345    1786.0873   -6384.6111   -6525.9047    18268.778     15.67689    13.576604    25.334596    5392.1883 
  123500      123.485    377.80403    15.529531   -449.43974    -433.9102    1304.6744   -8614.4333   -5490.1236     18018.58    15.676893    13.576606    25.334578    5392.1863 
  124000      123.985    379.99383    15.619542   -449.50624    -433.8867    1122.3703    -2485.265   -9466.4775    15318.854    15.676895    13.576608    25.334561    5392.1842 
  124500      124.485    374.59444    15.397602   -449.26201   -433.86441    2076.8133   -2621.9589   -6337.7889    15190.188    15.676898     13.57661    25.334543    5392.1821 
  125000      124.985    366.23463    15.053974   -448.89523   -433.84126    672.47055   -4089.1691   -6895.9948    13002.576      15.6769    13.576612    25.334526      5392.18 
  125500      125.485    362.43892    14.897952   -448.71622   -433.81827    1445.7558   -5597.8183   -6852.3291    16787.415    15.676902    13.576614    25.334508    5392.1779 
  126000      125.985    373.29672     15.34426   -449.13988   -433.79562    730.02069   -7237.5951   -6933.8991    16361.556    15.676905    13.576617    25.334491    5392.1758 
  126500      126.485    373.74283    15.362597   -449.13496   -433.77236    1760.6682   -3860.8972   -6911.0884     16053.99    15.676907    13.576619    25.334473    5392.1738 
  127000      126.985    381.83495    15.695221   -449.44523   -433.75001    1358.8796   -4492.7555   -8313.5567    16882.951     15.67691    13.576621    25.334456    5392.1717 
  127500      127.485    354.38225    14.566785   -448.29292   -433.72613    1945.7465    -4981.055   -3355.0557     14173.35    15.676912    13.576623    25.334438    5392.1696 
  128000      127.985     363.9985    14.962058   -448.66582   -433.70377    3246.2629     -3665.33   -4606.9868    18011.106    15.676914    13.576625    25.334421    5392.1675 
  128500      128.485    363.25446    14.931475   -448.61075   -433.67927    2172.9562   -4447.5404     -8190.57    19156.979    15.676917    13.576627    25.334403    5392.1654 
  129000      128.985    343.36065    14.113745   -447.76954    -433.6558    2850.1364   -5972.5913   -6886.0831    21409.084    15.676919    13.576629    25.334386    5392.1633 
  129500      129.485    383.75501    15.774145   -449.40636   -433.63221    1792.1894    -9469.506   -3507.2553    18353.329    15.676922    13.576631    25.334368    5392.1612 
  130000      129.985    366.50501    15.065088   -448.67372   -433.60864     2400.502   -6154.9281   -6232.5613    19588.996    15.676924    13.576633    25.334351    5392.1592 
  130500      130.485    392.38588    16.128914   -449.71486   -433.58594    720.34746   -9389.2272   -3409.1047    14959.374    15.676926    13.576635    25.334333    5392.1571 
  131000      130.985    361.07883    14.842046   -448.40458   -433.56253    2079.4743   -8365.1248    -3386.033    17989.581    15.676929    13.576637    25.334316     5392.155 
  131500      131.485    377.66914    15.523987   -449.06277   -433.53878    824.32118   -7189.7197   -5937.7594    15600.443    15.676931    13.576639    25.334298    5392.1529 
  132000      131.985     367.6608    15.112597   -448.62724   -433.51465    252.99733   -7421.4848   -4513.5133     12693.99    15.676934    13.576641    25.334281    5392.1508 
  132500      132.485    366.20055    15.052573   -448.54373   -433.49115    712.90166   -5403.8229   -6330.2995    13872.827    15.676936    13.576643    25.334263    5392.1487 
  133000      132.985    363.09785    14.925038   -448.39288   -433.46784    1025.1225   -5520.2225    -5136.765    13732.355    15.676938    13.576645    25.334246    5392.1466 
  133500      133.485    348.25115    14.314768   -447.75893   -433.44416    2340.9106   -4981.2586   -5307.0863    17311.077    15.676941    13.576647    25.334228    5392.1446 
  134000      133.985    367.05352    15.087634   -448.50912   -433.42148    407.21738   -6026.6099   -6018.7118    13266.974    15.676943    13.576649    25.334211    5392.1425 
  134500      134.485    380.56629    15.643073   -449.04219   -433.39912    796.07138   -7449.3024    -7719.628    17557.144    15.676946    13.576651    25.334193    5392.1404 
  135000      134.985    356.95809    14.672664   -448.04746   -433.37479    3163.2378   -4385.7211   -4530.0534    18405.488    15.676948    13.576653    25.334176    5392.1383 
  135500      135.485    354.37951    14.566673   -447.91762   -433.35095    1740.9721   -7612.8889   -6897.3925    19733.198     15.67695    13.576655    25.334158    5392.1362 
  136000      135.985    364.52444    14.983677   -448.31085   -433.32717      1524.19   -5029.9967   -6247.5254    15850.092    15.676953    13.576658    25.334141    5392.1341 
  136500      136.485    414.74672    17.048051   -450.35196   -433.30391    823.19815   -4727.1472   -8963.5453    16160.287    15.676955     13.57666    25.334123    5392.1321 
  137000      136.985    377.77516    15.528344   -448.80713   -433.27879    2556.9642   -4787.0388    -4719.486    17177.418    15.676958    13.576662    25.334106      5392.13 
  137500      137.485    359.39872    14.772986   -448.02783   -433.25484    2140.9438   -6493.3995   -4356.3224    17272.553     15.67696    13.576664    25.334088    5392.1279 
  138000      137.985    368.82821    15.160583   -448.39234   -433.23176    2609.6736   -3223.6035   -4731.5152    15784.139    15.676962    13.576666    25.334071    5392.1258 
  138500      138.485    402.25527    16.534593   -449.74321   -433.20862    2200.5129   -7795.2381   -7346.1885    21742.965    15.676965    13.576668    25.334053    5392.1237 
  139000      138.985    372.21342    15.299731   -448.48445   -433.18472    2430.6806   -9300.3261   -5824.4852    22416.853    15.676967     13.57667    25.334036    5392.1216 
  139500      139.485    378.30705    15.550208   -448.71046   -433.16025    1458.8514   -4416.1166   -7548.5764    16341.247     15.67697    13.576672    25.334018    5392.1195 
  140000      139.985    370.44365    15.226985   -448.36321   -433.13623    2049.0056   -6796.0456   -3894.9377        16838    15.676972    13.576674    25.334001    5392.1175 
  140500      140.485    363.19684    14.929107   -448.04124   -433.11213    326.02454   -7446.3504   -6271.3484    14695.772    15.676974    13.576676    25.333983    5392.1154 
  141000      140.985    364.90811    14.999448   -448.08693   -433.08748    1402.5958   -8375.7037   -4516.4138    17099.905    15.676977    13.576678    25.333966    5392.1133 
  141500      141.485    364.24524    14.972201   -448.03535   -433.06315     708.4198   -7253.5028   -4686.7772    14065.539    15.676979     13.57668    25.333948    5392.1112 
  142000      141.985    390.10634    16.035214   -449.07548   -433.04027    1559.8126   -4608.9466   -5435.8946    14724.279    15.676982    13.576682    25.333931    5392.1091 
  142500      142.485    367.65351    15.112297   -448.12793   -433.01563    1402.5192   -7905.6686   -4393.7077    16506.934    15.676984    13.576684    25.333913     5392.107 
  143000      142.985    380.37504    15.635212   -448.62718   -432.99197    2642.6713     -8535.31    -5728.758    22192.082    15.676986    13.576686    25.333896    5392.1049 
  143500      143.485      374.873    15.409052    -448.3763   -432.96725    786.89898   -5194.3815   -7598.6974    15153.776    15.676989    13.576688    25.333878    5392.1029 
  144000      143.985    384.00816     15.78455   -448.72771   -432.94316    2620.3934    -4589.816   -4220.3817    16671.378    15.676991     13.57669    25.333861    5392.1008 
  144500      144.485     387.1393    15.913255   -448.83341   -432.92015    1867.1197   -3420.2282   -5067.0571    14088.644    15.676994    13.576692    25.333843    5392.0987 
  145000      144.985    395.49992    16.256916   -449.15364   -432.89673    2436.6423   -4196.5137   -5549.5855    17056.026    15.676996    13.576694    25.333826    5392.0966 
  145500      145.485    365.97755    15.043407   -447.91373   -432.87032    1797.7702   -3926.2609   -8570.3043    17889.876    15.676998    13.576696    25.333808    5392.0945 
  146000      145.985    393.24599    16.164269   -449.01156   -432.84729    1076.8662   -6478.0658   -6015.5572    15724.222    15.677001    13.576699    25.333791    5392.0924 
  146500      146.485    383.84028     15.77765   -448.60039   -432.82274    1759.9628   -6755.6186   -6534.9526     18570.46    15.677003    13.576701    25.333773    5392.0904 
  147000      146.985    366.66699    15.071746   -447.86888   -432.79714    3891.8884   -6267.3588   -2125.1198    20068.144    15.677006    13.576703    25.333756    5392.0883 
  147500      147.485    370.35661    15.223407   -447.99595   -432.77254    2695.6552   -2919.6681   -3503.2679    14509.902    15.677008    13.576705    25.333738    5392.0862 
  148000      147.985    384.86317    15.819695    -448.5691   -432.74941     1488.679   -4385.1221    -6542.731     15393.89     15.67701    13.576707    25.333721    5392.0841 
  148500      148.485    373.45907    15.350933   -448.07531   -432.72438    2963.0795   -7866.1639   -2354.8913    19110.294    15.677013    13.576709    25.333703     5392.082 
  149000      148.985    377.99225    15.537268   -448.23782   -432.70055    1810.4415   -6178.9962   -7207.9676    18818.288    15.677015    13.576711    25.333686    5392.0799 
  149500      149.485    374.49092    15.393347   -448.06999   -432.67664    2636.1383   -3352.5383   -5845.3677    17106.321    15.677018    13.576713    25.333668    5392.0778 
  150000      149.985    378.31264    15.550437   -448.20224    -432.6518    1126.5136   -7611.5986   -6498.8783    17490.018     15.67702    13.576715    25.333651    5392.0758 
  150500      150.485    393.73149    16.184225   -448.81282   -432.62859    2293.9143   -7712.1519   -6599.1648     21193.06    15.677022    13.576717    25.333633    5392.0737 
  151000      150.985    386.56431     15.88962   -448.49234   -432.60272    1557.6568   -8706.1174   -3687.9524     17067.04    15.677025    13.576719    25.333616    5392.0716 
  151500      151.485    399.59086    16.425073    -449.0038   -432.57873    3028.3658   -5567.2508   -4925.9158    19578.264    15.677027    13.576721    25.333598    5392.0695 
  152000      151.985    377.90748    15.533784   -448.08738   -432.55359    3273.4912   -4656.8007   -4464.6877    18941.962     15.67703    13.576723    25.333581    5392.0674 
  152500      152.485    382.62788    15.727814   -448.25635   -432.52854    2644.1237     -5725.87   -5868.6923    19526.933    15.677032    13.576725    25.333563    5392.0653 
  153000      152.985    397.61878    16.344011   -448.84862    -432.5046    1810.1373   -3851.5083   -8979.1122    18261.032    15.677034    13.576727    25.333546    5392.0632 
  153500      153.485    388.36077    15.963463   -448.44297    -432.4795    1272.5359    -6001.441   -6553.6066    16372.655    15.677037    13.576729    25.333528    5392.0612 
  154000      153.985    382.65657    15.728993   -448.18305   -432.45405    1961.2821     -8542.52   -5354.6875    19781.054    15.677039    13.576731    25.333511    5392.0591 
  154500      154.485    358.03088    14.716761   -447.14614   -432.42938    3482.9016   -6444.2275   -3920.7778     20813.71    15.677042    13.576733    25.333493     5392.057 
  155000      154.985    377.62056     15.52199   -447.92711   -432.40512    2291.9729   -4288.3656   -8376.1518    19540.436    15.677044    13.576735    25.333476    5392.0549 
  155500      155.485    368.93439    15.164947   -447.54412   -432.37917    2826.8851    -6043.068   -7163.3655    21687.089    15.677046    13.576737    25.333458    5392.0528 
  156000      155.985    377.22043    15.505542   -447.86085   -432.35531    2957.0169   -5397.2171     -7318.29    21586.558    15.677049     13.57674    25.333441    5392.0507 
  156500      156.485    380.27352    15.631039   -447.96112   -432.33008    3105.3832   -1503.5724   -6580.9096    17400.631    15.677051    13.576742    25.333423    5392.0486 
  157000      156.985    413.87171    17.012083   -449.31767   -432.30559    1188.9617   -5068.9091   -7317.1476    15952.942    15.677054    13.576744    25.333406    5392.0466 
  157500      157.485    382.69237    15.730465   -448.00993   -432.27946    2587.2879   -4222.2522   -8220.9749    20205.091    15.677056    13.576746    25.333388    5392.0445 
  158000      157.985    394.97471    16.235327   -448.49137   -432.25605      1706.01   -3245.8319   -9242.4006    17606.262    15.677058    13.576748    25.333371    5392.0424 
  158500      158.485    383.08326    15.746532   -447.97695   -432.23041    2966.3133   -2173.7671   -5592.7401    16665.447    15.677061     13.57675    25.333353    5392.0403 
  159000      158.985    394.21536    16.204114   -448.41006   -432.20594    3125.5521   -2831.6944   -6490.6383    18698.989    15.677063    13.576752    25.333336    5392.0382 
  159500      159.485    379.94106    15.617373   -447.79778   -432.18041    2595.7857   -4756.0643   -6833.9842    19377.406    15.677066    13.576754    25.333318    5392.0361 
  160000      159.985    390.04565    16.032719   -448.18934   -432.15662    1620.5394   -6765.1841   -6777.0702    18403.873    15.677068    13.576756    25.333301    5392.0341 
  160500      160.485    384.97612    15.824338   -447.95642   -432.13208    2410.1545   -6010.2433   -4029.2722    17269.979     15.67707    13.576758    25.333283     5392.032 
  161000      160.985    387.33567    15.921327   -448.02856   -432.10723    2646.3403   -3618.8566   -3582.7422     15140.62    15.677073     13.57676    25.333266    5392.0299 
  161500      161.485    395.49184    16.256584     -448.338   -432.08141    1917.0275    -7203.683   -3819.4922    16774.258    15.677075    13.576762    25.333248    5392.0278 
  162000      161.985    379.20897    15.587281   -447.64359   -432.05631    2090.0962   -2117.4056   -8751.0253    17138.719    15.677078    13.576764    25.333231    5392.0257 
  162500      162.485    397.17322    16.325697   -448.35783   -432.03213    1424.3207   -3935.9616   -5091.6189    13300.543     15.67708    13.576766    25.333213    5392.0236 
  163000      162.985    406.20789    16.697064     -448.705   -432.00793      1552.14   -7188.7258   -5295.6876    17140.833    15.677082    13.576768    25.333196    5392.0215 
  163500      163.485    395.66352    16.263641   -448.24595   -431.98231    2391.4785      -7381.8    -3723.883    18280.118    15.677085     13.57677    25.333178    5392.0195 
  164000      163.985    391.44753    16.090343   -448.04681   -431.95646    1588.4786   -7702.8509   -3651.2825    16119.569    15.677087    13.576772    25.333161    5392.0174 
  164500      164.485    377.63693    15.522663   -447.45415   -431.93149    1427.2396    -6391.406    -5096.085     15769.21     15.67709    13.576774    25.333143    5392.0153 
  165000      164.985    392.76014    16.144298   -448.05146   -431.90716    2674.6731   -6029.8915   -5130.6545    19184.565    15.677092    13.576776    25.333126    5392.0132 
  165500      165.485    398.63985    16.385982   -448.26805   -431.88207    3715.1872   -5027.2897   -3533.6347    19706.486    15.677094    13.576778    25.333108    5392.0111 
  166000      165.985     398.7475    16.390407   -448.24714   -431.85674     2906.592    -6799.274   -2630.2962    18149.346    15.677097    13.576781    25.333091     5392.009 
  166500      166.485    400.75564    16.472951   -448.30468   -431.83173    3209.6082   -2333.8149   -4420.4067    16383.046    15.677099    13.576783    25.333073    5392.0069 
  167000      166.985    398.64186    16.386065   -448.19197   -431.80591    3203.1265   -4280.9604   -4258.3515    18148.692    15.677102    13.576785    25.333056    5392.0049 
  167500      167.485    382.06916    15.704848   -447.48394   -431.77909    2930.1246    -7049.996    1741.7929    14098.577    15.677104    13.576787    25.333038    5392.0028 
  168000      167.985    371.92995    15.288079     -447.042   -431.75392    1769.9527    -6193.565   -6309.7599    17813.183    15.677106    13.576789    25.333021    5392.0007 
  168500      168.485    396.00344    16.277613   -448.00611    -431.7285    3555.0748   -4162.1976    -1330.813    16158.235    15.677109    13.576791    25.333003    5391.9986 
  169000      168.985    385.71333    15.854641   -447.55738   -431.70274     2970.645   -3423.2034   -5350.7021    17685.841    15.677111    13.576793    25.332986    5391.9965 
  169500      169.485    388.31001    15.961376   -447.63935   -431.67797    2488.4972   -3432.2616   -5919.8186    16817.572    15.677114    13.576795    25.332968    5391.9944 
  170000      169.985    393.18342    16.161697   -447.81394   -431.65224    2630.2775    -3882.988   -4207.0152    15980.836    15.677116    13.576797    25.332951    5391.9923 
  170500      170.485    388.39229    15.964759   -447.59154   -431.62678    2631.8298   -4370.5024    -5397.891    17663.883    15.677118    13.576799    25.332933    5391.9903 
  171000      170.985    393.77342    16.185949    -447.7878   -431.60185    2022.7953   -4393.9535   -6597.9257    17060.265    15.677121    13.576801    25.332916    5391.9882 
  171500      171.485    395.31104    16.249152   -447.82577   -431.57662    1508.9762   -5570.4299   -7246.9051    17344.264    15.677123    13.576803    25.332898    5391.9861 
  172000      171.985     404.6417    16.632686   -448.18401   -431.55132    3356.9743   -3342.4618   -3724.7647    17138.149    15.677126    13.576805    25.332881     5391.984 
  172500      172.485    402.10689    16.528494   -448.05426   -431.52576    2011.5195   -5542.9892   -3948.0747    15525.622    15.677128    13.576807    25.332863    5391.9819 
  173000      172.985     401.9407    16.521662   -448.02153   -431.49986    2188.0008   -3749.4154    -6913.795    17227.213     15.67713    13.576809    25.332846    5391.9798 
  173500      173.485    407.83841    16.764086   -448.23899   -431.47491    2581.6883   -4830.7583   -4315.5797    16891.403    15.677133    13.576811    25.332828    5391.9778 
  174000      173.985    384.91232    15.821715   -447.27086   -431.44915    2273.5864   -8657.7227   -1284.5532    16763.035    15.677135    13.576813    25.332811    5391.9757 
  174500      174.485    411.11205    16.898648    -448.3222   -431.42355    1661.5845   -5042.6437   -5983.2288    16010.626    15.677138    13.576815    25.332793    5391.9736 
  175000      174.985    413.67854    17.004143   -448.40207   -431.39793    2054.0635   -7898.4347   -5846.1632    19906.789     15.67714    13.576817    25.332776    5391.9715 
  175500      175.485    399.76566    16.432258   -447.80398   -431.37173     2128.809   -6861.1734   -5954.4413    19202.042    15.677142    13.576819    25.332758    5391.9694 
  176000      175.985    426.52794    17.532314     -448.879   -431.34668    1921.5317   -4582.8195   -5586.6928    15934.107    15.677145    13.576822    25.332741    5391.9673 
  176500      176.485    399.71016    16.429977   -447.75068    -431.3207    3277.3581    5.7663297      -5451.4    15277.708    15.677147    13.576824    25.332723    5391.9652 
  177000      176.985    393.35216    16.168633   -447.46336   -431.29473    3106.9453   -3547.6391   -5946.5933    18815.068     15.67715    13.576826    25.332706    5391.9632 
  177500      177.485    393.79076    16.186661    -447.4553   -431.26864    3206.4371   -3018.4915    -3593.878    16231.681    15.677152    13.576828    25.332688    5391.9611 
  178000      177.985    441.72609     18.15703   -449.40161   -431.24458    1929.1813   -5529.7134   -4946.3193    16263.576    15.677154     13.57683    25.332671     5391.959 
  178500      178.485    396.75883    16.308663   -447.52661   -431.21795    3005.7166   -3031.6413   -5032.6602    17081.451    15.677157    13.576832    25.332653    5391.9569 
  179000      178.985    405.69572    16.676011    -447.8678   -431.19179    2008.1944    -3599.713   -6721.8473    16346.143    15.677159    13.576834    25.332636    5391.9548 
  179500      179.485    393.11049    16.158699   -447.32456   -431.16586     2822.229   -6179.1274   -1896.2635    16542.078    15.677162    13.576836    25.332618    5391.9527 
  180000      179.985    434.64283    17.865874   -449.00553   -431.13966    1904.3209   -8987.7367   -2932.9337    17633.633    15.677164    13.576838    25.332601    5391.9506 
  180500      180.485    389.98721    16.030317   -447.14372    -431.1134    2446.9151   -4665.8466   -5702.3766    17708.969    15.677166     13.57684    25.332583    5391.9486 
  181000      180.985    388.60036    15.973312   -447.06076   -431.08745    1346.0959   -8853.0969   -5106.7128    17998.097    15.677169    13.576842    25.332566    5391.9465 
  181500      181.485    396.18176    16.284943   -447.34736   -431.06242    1870.6319   -2960.7524   -9978.8363    18551.484    15.677171    13.576844    25.332548    5391.9444 
  182000      181.985    403.51366    16.586318   -447.62248   -431.03617      2279.03   -2391.2382   -5669.6118     14897.94    15.677174    13.576846    25.332531    5391.9423 
  182500      182.485    392.92511    16.151079   -447.16136   -431.01028    1874.1683   -7385.0036    -5080.881     18088.39    15.677176    13.576848    25.332513    5391.9402 
  183000      182.985    392.21295    16.121806   -447.10554   -430.98374    3472.9524   -3466.4333   -5113.8952    18999.186    15.677178     13.57685    25.332496    5391.9381 
  183500      183.485    386.42506    15.883896    -446.8408    -430.9569    4104.9514    -1684.901   -4872.3854    18872.141    15.677181    13.576852    25.332478     5391.936 
  184000      183.985    394.93945    16.233878   -447.16566   -430.93179    4025.7116   -2980.5314   -4664.5666    19722.233    15.677183    13.576854    25.332461     5391.934 
  184500      184.485    390.70198    16.059698   -446.96466   -430.90496    3648.2731   -3741.0398    -3373.476    18059.335    15.677186    13.576856    25.332443    5391.9319 
  185000      184.985    411.79383    16.926672   -447.80602   -430.87935    1790.1874   -3808.5145   -7740.3648    16919.442    15.677188    13.576858    25.332426    5391.9298 
  185500      185.485    382.00388    15.702165   -446.55539   -430.85322    3152.0577   -11564.104   -2907.4022    23927.679     15.67719     13.57686    25.332408    5391.9277 
  186000      185.985    402.48452    16.544016   -447.37183   -430.82781    2030.4745   -7729.8762   -5266.4772    19087.777    15.677193    13.576863    25.332391    5391.9256 
  186500      186.485    398.07243    16.362658   -447.16492   -430.80226    4160.5486   -3572.6521    -3511.897    19566.195    15.677195    13.576865    25.332373    5391.9235 
  187000      186.985    384.92417    15.822203   -446.59855   -430.77634    3996.3427   -4945.2601   -4005.2678    20939.556    15.677198    13.576867    25.332356    5391.9215 
  187500      187.485    407.94587    16.768503   -447.51867   -430.75017    3678.3478   -5494.5988   -3080.4126    19610.055      15.6772    13.576869    25.332338    5391.9194 
  188000      187.985    409.45915    16.830706   -447.55444   -430.72373    3284.5286   -6211.2584   -4731.9338    20796.778    15.677202    13.576871    25.332321    5391.9173 
  188500      188.485    380.67244    15.647436   -446.34467   -430.69723    4085.8617   -4255.6025   -2086.7294    18599.917    15.677205    13.576873    25.332303    5391.9152 
  189000      188.985    424.67814    17.456279    -448.1285   -430.67222    2466.5714   -6699.1601   -5665.3889    19764.263    15.677207    13.576875    25.332286    5391.9131 
  189500      189.485    407.03805    16.731188    -447.3771   -430.64592    2762.9656   -3942.5333   -4696.7867    16928.217     15.67721    13.576877    25.332268     5391.911 
  190000      189.985    400.78173    16.474023   -447.09351   -430.61949      2646.04   -6058.9375   -4090.2077    18087.265    15.677212    13.576879    25.332251    5391.9089 
  190500      190.485     401.1414    16.488807   -447.08236   -430.59356    2300.2492   -7100.7448   -7545.1355    21546.628    15.677214    13.576881    25.332233    5391.9069 
  191000      190.985    408.96183    16.810264   -447.37747    -430.5672    1226.9685   -6583.3803   -4746.8468    15011.133    15.677217    13.576883    25.332216    5391.9048 
  191500      191.485    397.66907    16.346078   -446.88701   -430.54093    3362.3421   -232.27763   -7983.9598    18303.264    15.677219    13.576885    25.332198    5391.9027 
  192000      191.985    412.19875    16.943317   -447.45826   -430.51494    3298.2135   -6261.5249   -4435.4725    20591.638    15.677222    13.576887    25.332181    5391.9006 
  192500      192.485    424.09441    17.432284   -447.92011   -430.48782    2259.3236    -4489.333   -4929.3241    16196.628    15.677224    13.576889    25.332163    5391.8985 
  193000      192.985    408.37261    16.786044    -447.2473   -430.46126    2394.1725   -5329.2767   -5611.3187    18123.113    15.677226    13.576891    25.332146    5391.8964 
  193500      193.485     416.5301    17.121356   -447.55586   -430.43451    3955.8066   -4086.5095   -2942.0005     18895.93    15.677229    13.576893    25.332128    5391.8943 
  194000      193.985    411.14736    16.900099   -447.30779   -430.40769    4531.6944   -1900.0186   -4439.1306    19934.232    15.677231    13.576895    25.332111    5391.8923 
  194500      194.485    399.23871    16.410598   -446.79058   -430.37998    3705.3397   -2186.8715     -2977.85    16280.741    15.677234    13.576897    25.332093    5391.8902 
  195000      194.985    383.55074    15.765748   -446.11864   -430.35289    5059.1282   -3551.1793   -775.33293    19503.897    15.677236    13.576899    25.332076    5391.8881 
  195500      195.485    419.13304    17.228349   -447.55463   -430.32628    2796.3493   -7574.0817   -4653.7295    20616.859    15.677238    13.576901    25.332058     5391.886 
  196000      195.985    400.53452    16.463862   -446.76295   -430.29909    3417.9265   -6079.0609   -3905.9202     20238.76    15.677241    13.576904    25.332041    5391.8839 
  196500      196.485    409.78846    16.844242   -447.11761   -430.27337    2857.3078   -4220.8784   -4642.0635    17434.865    15.677243    13.576906    25.332023    5391.8818 
  197000      196.985    407.38661    16.745515   -446.99363   -430.24812    3971.2059   -9215.5028   -2400.7174    23529.838    15.677246    13.576908    25.332006    5391.8797 
  197500      197.485     422.1616    17.352837   -447.57377   -430.22094    3869.6034   -5229.1476   -4319.0522     21157.01    15.677248     13.57691    25.331988    5391.8777 
  198000      197.985    402.29886    16.536384   -446.72992   -430.19353     4647.605   -3548.8015   -5057.8231     22549.44     15.67725    13.576912    25.331971    5391.8756 
  198500      198.485    387.71349    15.936857   -446.10245   -430.16559    3218.5819   -1876.1077   -4757.5726    16289.426    15.677253    13.576914    25.331953    5391.8735 
  199000      198.985    413.98121    17.016584   -447.15711   -430.14052     2517.652   -3105.9843   -4730.9603    15389.901    15.677255    13.576916    25.331936    5391.8714 
  199500      199.485    411.59558    16.918524   -447.03168   -430.11315    4480.5864   -3427.0418   -5721.8388     22590.64    15.677258    13.576918    25.331918    5391.8693 
  200000      199.985    412.42899    16.952781   -447.03832   -430.08554    3459.8483   -3928.9923   -3591.3154    17899.853     15.67726     13.57692    25.331901    5391.8672 
  200500      200.485     406.6678    16.715969   -446.77485   -430.05888    3490.7571   -1997.2896   -4229.1722    16698.733    15.677262    13.576922    25.331883    5391.8651 
  201000      200.985    427.68389    17.579829   -447.61186   -430.03203    3925.1669   -5362.3866   -2296.9717    19434.859    15.677265    13.576924    25.331866    5391.8631 
  201500      201.485    414.31838    17.030444   -447.03578   -430.00533    3184.0769   -4631.6751   -2139.0792    16322.985    15.677267    13.576926    25.331848     5391.861 
  202000      201.985    414.80243     17.05034   -447.02842   -429.97808    3970.9724   -4826.7396   -2136.3507    18876.008     15.67727    13.576928    25.331831    5391.8589 
  202500      202.485    416.89737    17.136452   -447.08831   -429.95186    2959.5144   -6384.5604   -2385.9076    17649.011    15.677272     13.57693    25.331813    5391.8568 
  203000      202.985    412.99658    16.976111    -446.8996   -429.92348    2788.9399   -2657.3244   -6083.1693    17107.313    15.677274    13.576932    25.331796    5391.8547 
  203500      203.485    421.63027    17.330997   -447.22886   -429.89786    3336.7151   -4310.4206   -4930.4147    19250.981    15.677277    13.576934    25.331778    5391.8526 
  204000      203.985    408.14799    16.776811   -446.64676   -429.86995    4138.9616   -1138.3446   -7086.0002     20641.23    15.677279    13.576936    25.331761    5391.8506 
  204500      204.485     425.9237    17.507477   -447.35151   -429.84403     2500.038   -5793.3425   -5938.3935     19231.85    15.677282    13.576938    25.331743    5391.8485 
  205000      204.985    411.42009     16.91131   -446.72721    -429.8159    5065.2127   -4665.6624   -1074.1558    20935.456    15.677284     13.57694    25.331726    5391.8464 
  205500      205.485    423.29441    17.399401   -447.18868   -429.78928      4144.72   -5556.5523   -2306.1453    20296.858    15.677286    13.576942    25.331708    5391.8443 
  206000      205.985    420.67832    17.291867   -447.05274   -429.76088    2005.9433   -6404.3124   -5199.8707    17622.013    15.677289    13.576945    25.331691    5391.8422 
  206500      206.485    424.99776    17.469416   -447.20361    -429.7342    3324.3244   -4288.3991   -1760.7632    16022.135    15.677291    13.576947    25.331673    5391.8401 
  207000      206.985    434.61093    17.864563   -447.57103   -429.70647    3807.5857   -3852.3956   -341.85471    15617.007    15.677294    13.576949    25.331656     5391.838 
  207500      207.485    427.65452    17.578622   -447.25897   -429.68035     3611.586   -2322.8551   -4171.5999    17329.213    15.677296    13.576951    25.331638     5391.836 
  208000      207.985    413.84738    17.011083   -446.66469    -429.6536    3399.6212   -2630.1332   -7518.8928     20347.89    15.677298    13.576953    25.331621    5391.8339 
  208500      208.485    417.29138    17.152648   -446.77816   -429.62551    2974.0287    -5889.948   -1661.7245    16473.759    15.677301    13.576955    25.331603    5391.8318 
  209000      208.985    407.87027    16.765396   -446.36441   -429.59901    3314.3464    -5167.959   -430.19385    15541.192    15.677303    13.576957    25.331586    5391.8297 
  209500      209.485    398.97125    16.399604   -445.97079   -429.57119      4160.45   -2706.1745   -1782.9526    16970.477    15.677306    13.576959    25.331568    5391.8276 
  210000      209.985    421.45975    17.323988    -446.8688   -429.54481    3473.9302   -3131.5707   -4599.4877    18152.849    15.677308    13.576961    25.331551    5391.8255 
  210500      210.485    419.23704    17.232624   -446.74999   -429.51737    4162.3898   -3922.7215   -3272.6116    19682.503     15.67731    13.576963    25.331533    5391.8234 
  211000      210.985    416.71033    17.128764   -446.61863   -429.48987    3442.1327   -4897.5855   -4996.9312    20220.915    15.677313    13.576965    25.331516    5391.8214 
  211500      211.485    417.32921    17.154203   -446.61561   -429.46141    2126.9461   -6967.6246   -3525.5689    16874.032    15.677315    13.576967    25.331498    5391.8193 
  212000      211.985    437.99938    18.003845   -447.43736   -429.43352    2332.6052   -3134.5294    -7502.938    17635.283    15.677318    13.576969    25.331481    5391.8172 
[...]
  948500      948.485    552.91445    22.727397    -440.1922   -417.46481    9840.8666    3380.7514     2457.074    23684.775    15.680853    13.579989    25.305703    5388.7433 
  949000      948.985    580.11467    23.845455   -441.30931   -417.46385    7651.2318    1366.3257   -79.833735    21667.203    15.680855    13.579991    25.305686    5388.7412 
  949500      949.485     558.7594    22.967652   -440.43011   -417.46246     10320.31    4197.8533    406.64365    26356.433    15.680858    13.579993    25.305668    5388.7391 
  950000      949.985     568.8219    23.381268   -440.84355   -417.46228    9742.2537    265.48446    3528.3294    25432.947     15.68086    13.579995    25.305651     5388.737 
  950500      950.485    590.81828    24.285423   -441.74644   -417.46102    8825.7475    263.25938    2604.4896    23609.494    15.680862    13.579997    25.305633    5388.7349 
  951000      950.985    589.42181    24.228022    -441.6886   -417.46058    9364.4706    314.63444    3500.5412    24278.236    15.680865    13.579999    25.305616    5388.7328 
  951500      951.485    565.95313    23.263348   -440.72413   -417.46079    9670.7498    1453.7553    2192.8195    25365.675    15.680867    13.580001    25.305598    5388.7308 
  952000      951.985    563.46989    23.161275     -440.621   -417.45972    7392.5333    834.85994   -1351.2386    22693.979     15.68087    13.580003    25.305581    5388.7287 
  952500      952.485    569.61845     23.41401   -440.87432   -417.46031    8132.3657   -1091.0581    1549.1869    23938.968    15.680872    13.580005    25.305563    5388.7266 
  953000      952.985    582.82867    23.957013   -441.41553   -417.45852    8574.6359     3477.853   -3648.8292    25894.884    15.680874    13.580007    25.305546    5388.7245 
  953500      953.485     586.5455    24.109792   -441.56776   -417.45797    8974.6267    1680.4216   -995.08008    26238.539    15.680877    13.580009    25.305528    5388.7224 
  954000      953.985    558.75431    22.967443   -440.42409   -417.45664    9822.9032    1996.4784   -2570.4805    30042.712    15.680879    13.580011    25.305511    5388.7203 
  954500      954.485    565.68182    23.252196   -440.70861   -417.45641    9429.9535   -1760.6247   -1307.4838    31357.969    15.680882    13.580013    25.305493    5388.7182 
  955000      954.985    565.63337    23.250205   -440.70503   -417.45483    9692.1315    5214.0716   -695.92641    24558.249    15.680884    13.580015    25.305476    5388.7161 
  955500      955.485    557.50392    22.916046   -440.36996   -417.45391    10029.954    5306.7004   -2158.6326    26941.796    15.680886    13.580017    25.305458     5388.714 
  956000      955.985    577.67574    23.745203   -441.19774   -417.45254    9394.9947    1703.0892   -2794.5496    29276.444    15.680889     13.58002    25.305441     5388.712 
  956500      956.485    561.52615    23.081379   -440.53126   -417.44988    11589.697     3271.961   -982.92604    32480.056    15.680891    13.580022    25.305423    5388.7099 
  957000      956.985    554.32958    22.785566   -440.23192   -417.44635    9339.3208   -1940.4503     3243.397    26715.016    15.680894    13.580024    25.305406    5388.7078 
  957500      957.485    554.26187    22.782782   -440.22725   -417.44446    9876.4616   -553.88794    1909.1979    28274.075    15.680896    13.580026    25.305388    5388.7057 
  958000      957.985    568.16982    23.354465   -440.79745   -417.44299     7929.264     -3702.85    1370.4772    26120.165    15.680898    13.580028    25.305371    5388.7036 
  958500      958.485    589.80648    24.243834   -441.68411   -417.44028    8279.4898   -2678.5719    403.01893    27114.022    15.680901     13.58003    25.305353    5388.7015 
  959000      958.985     572.2773    23.523302   -440.96093   -417.43763    8904.5095   -756.06948    1272.7981      26196.8    15.680903    13.580032    25.305336    5388.6994 
  959500      959.485     542.4279     22.29635   -439.73106   -417.43471    8485.8808    1403.2922   -1633.6783    25688.028    15.680906    13.580034    25.305318    5388.6973 
  960000      959.985    557.43756    22.913318   -440.34401   -417.43069    8990.1519    5999.0235   -2015.0397    22986.472    15.680908    13.580036    25.305301    5388.6953 
  960500      960.485     569.1472     23.39464   -440.82257   -417.42793    9141.2876   -1589.9585    1550.6534    27463.168     15.68091    13.580038    25.305283    5388.6932 
  961000      960.985    567.43592    23.324298   -440.75086   -417.42656    7295.4393   -5736.6369    1712.7103    25910.244    15.680913     13.58004    25.305266    5388.6911 
  961500      961.485     546.7457    22.473832   -439.89731   -417.42348     9689.816    -100.9916    483.88211    28686.557    15.680915    13.580042    25.305248     5388.689 
  962000      961.985    561.53464    23.081728   -440.50104   -417.41932     9740.066    1475.0547    1304.7513    26440.392    15.680918    13.580044    25.305231    5388.6869 
  962500      962.485    596.14109    24.504216   -441.92399   -417.41978    7952.6169    162.53798    389.58246     23305.73     15.68092    13.580046    25.305213    5388.6848 
  963000      962.985    571.56418    23.493989   -440.90954   -417.41555    10696.906    741.74107    1867.7734    29481.205    15.680922    13.580048    25.305196    5388.6827 
  963500      963.485    552.95001    22.728859   -440.14196    -417.4131    9550.2539   -517.68192   -265.02821    29433.472    15.680925     13.58005    25.305178    5388.6806 
  964000      963.985    581.90466    23.919032   -441.33008   -417.41105    7841.8912   -3750.4466    -1669.715    28945.835    15.680927    13.580052    25.305161    5388.6785 
  964500      964.485    565.45656    23.242937   -440.64947   -417.40653    10928.423    3941.6519    3427.4826    25416.134     15.68093    13.580054    25.305143    5388.6765 
  965000      964.985    581.51996    23.903219   -441.30903   -417.40581    8802.7809   -1791.5135     3294.303    24905.553    15.680932    13.580056    25.305126    5388.6744 
  965500      965.485    584.85795    24.040426   -441.44406   -417.40363    8502.7707   -3004.3499    789.87885    27722.783    15.680934    13.580058    25.305108    5388.6723 
  966000      965.985    575.86048    23.670587   -441.06928   -417.39869    10281.202   -2498.6731    2724.2878    30617.992    15.680937    13.580061    25.305091    5388.6702 
  966500      966.485    604.46148    24.846224   -442.24346   -417.39723    8817.4126    2091.9648    1864.6459    22495.627    15.680939    13.580063    25.305073    5388.6681 
  967000      966.985     579.5229     23.82113   -441.21546   -417.39433    9919.5914    1213.0646    1101.1829    27444.527    15.680942    13.580065    25.305056     5388.666 
  967500      967.485    555.61924    22.838577   -440.22891   -417.39033    10303.035    1980.6874    6616.9529    22311.466    15.680944    13.580067    25.305038    5388.6639 
  968000      967.985    567.14116    23.312182   -440.69753   -417.38535    9536.6729    169.53524    1967.5797    26472.904    15.680946    13.580069    25.305021    5388.6618 
  968500      968.485    553.74577    22.761568   -440.14115   -417.37958    9620.0063    -393.8193    5387.4801    23866.358    15.680949    13.580071    25.305003    5388.6597 
  969000      968.985    586.57148     24.11086   -441.48783   -417.37697    9655.1244    -413.1015    2024.7707    27353.704    15.680951    13.580073    25.304986    5388.6577 
  969500      969.485    554.49696    22.792446   -440.16244   -417.36999    8810.8533   -241.04161    5465.1842    21208.417    15.680954    13.580075    25.304968    5388.6556 
  970000      969.985    549.54628    22.588949   -439.95406   -417.36511    9512.6339    2995.7947    111.53219    25430.575    15.680956    13.580077    25.304951    5388.6535 
  970500      970.485    557.36559     22.91036   -440.27362   -417.36326    7322.9458   -651.73152    1476.0978    21144.471    15.680958    13.580079    25.304933    5388.6514 
  971000      970.985    575.08558    23.638735   -440.99916   -417.36042    9171.6024    1251.9461   -104.77506    26367.636    15.680961    13.580081    25.304916    5388.6493 
  971500      971.485    576.72512    23.706128   -441.06465   -417.35852    8566.8806    -1493.686   -1124.0858    28318.414    15.680963    13.580083    25.304898    5388.6472 
  972000      971.985    606.02719    24.910582   -442.26488    -417.3543    8689.7182    3902.9262   -746.82834    22913.057    15.680966    13.580085    25.304881    5388.6451 
  972500      972.485    545.13621    22.407675   -439.75634   -417.34866    9451.4664    1521.6401   -147.55992    26980.319    15.680968    13.580087    25.304863     5388.643 
  973000      972.985    568.40936    23.364311   -440.70939   -417.34508     8111.758   -1076.8256   -2173.3095    27585.409     15.68097    13.580089    25.304846     5388.641 
  973500      973.485    578.63585    23.784668   -441.12394   -417.33927    8705.8181     1168.545    2103.3807    22845.529    15.680973    13.580091    25.304828    5388.6389 
  974000      973.985    563.34136    23.155992    -440.4935    -417.3375    9571.6654   -1492.0208     4362.751    25844.266    15.680975    13.580093    25.304811    5388.6368 
  974500      974.485    559.66857    23.005023   -440.33585   -417.33083    9935.8594    1127.4598    3830.2077    24849.911    15.680978    13.580095    25.304793    5388.6347 
  975000      974.985    590.03423    24.253195   -441.57734   -417.32415    9659.6423   -2694.7311    2442.4144    29231.244     15.68098    13.580097    25.304776    5388.6326 
  975500      975.485    569.72542    23.418407   -440.74206   -417.32365    8964.4574    1170.0023    1159.3382    24564.032    15.680982    13.580099    25.304758    5388.6305 
  976000      975.985    582.15493    23.929319   -441.24787   -417.31855    8241.3952   -186.76255    1141.0899    23769.858    15.680985    13.580102    25.304741    5388.6284 
  976500      976.485    587.08266    24.131872   -441.44585   -417.31398    9775.2501    1717.8766    1878.3397    25729.534    15.680987    13.580104    25.304723    5388.6263 
  977000      976.985    582.30396    23.935445   -441.24564   -417.31019    9360.0907   -139.02406    1351.6868    26867.609     15.68099    13.580106    25.304706    5388.6242 
  977500      977.485    586.35223    24.101848   -441.40751   -417.30566    8445.6645    1962.2197   -817.07543    24191.849    15.680992    13.580108    25.304688    5388.6222 
  978000      977.985    551.09955    22.652796    -439.9525    -417.2997    9115.9725    715.41718    3097.8586    23534.642    15.680994     13.58011    25.304671    5388.6201 
  978500      978.485    591.36409    24.307859    -441.6044   -417.29654    8706.8857   -108.29712    960.76164    25268.193    15.680997    13.580112    25.304653     5388.618 
  979000      978.985    561.44594    23.078082   -440.36887   -417.29079    8585.0877   -1265.7902    592.48751    26428.566    15.680999    13.580114    25.304636    5388.6159 
  979500      979.485    585.56628    24.069542   -441.35579   -417.28625    9638.3067    2146.3973    2950.9025     23817.62    15.681002    13.580116    25.304618    5388.6138 
  980000      979.985    592.05552     24.33628   -441.61706   -417.28078    7873.4515   -1774.5928    860.23184    24534.716    15.681004    13.580118    25.304601    5388.6117 
  980500      980.485    557.33398    22.909061   -440.18444   -417.27538    8535.2394     1043.789   -3325.8026    27887.732    15.681006     13.58012    25.304583    5388.6096 
  981000      980.985    581.27196    23.893025   -441.16346   -417.27044    9156.1081   -978.83385    4188.6709    24258.487    15.681009    13.580122    25.304566    5388.6075 
  981500      981.485    585.34729     24.06054   -441.32513   -417.26459    9764.5086   -1942.3795      2958.15    28277.755    15.681011    13.580124    25.304548    5388.6054 
  982000      981.985    605.02348    24.869324   -442.12575   -417.25643    7170.3515   -1648.1725    266.44779    22892.779    15.681014    13.580126    25.304531    5388.6034 
  982500      982.485    559.58986    23.001788   -440.25336   -417.25157    9488.4375   -240.43547    3039.1829    25666.565    15.681016    13.580128    25.304513    5388.6013 
  983000      982.985    563.26773    23.152966   -440.40023   -417.24726    7697.4296    44.841039    1052.5043    21994.944    15.681018     13.58013    25.304496    5388.5992 
  983500      983.485    567.39415    23.322581   -440.56573   -417.24315     8908.576   -1046.3638    1049.7678    26722.324    15.681021    13.580132    25.304478    5388.5971 
  984000      983.985    562.55888    23.123829   -440.36034   -417.23651    9558.0297   -376.51362    4278.4848    24772.118    15.681023    13.580134    25.304461     5388.595 
  984500      984.485    570.66964    23.457219   -440.68814   -417.23092    8333.0973    244.20853     1578.549    23176.534    15.681026    13.580136    25.304443    5388.5929 
  985000      984.985    559.66389    23.004831   -440.22908   -417.22425    8709.4549    78.470506    -778.7708    26828.665    15.681028    13.580138    25.304426    5388.5908 
  985500      985.485    552.55998    22.712827   -439.93356   -417.22073    7343.1525    3549.3949   -2014.1874     20494.25     15.68103     13.58014    25.304408    5388.5887 
  986000      985.985    592.90956    24.371385   -441.58624   -417.21486    10984.119    1921.6877    938.83606    30091.833    15.681033    13.580143    25.304391    5388.5867 
  986500      986.485    572.61191    23.537056   -440.74467   -417.20761    9823.6855    2488.5263   -3657.9934    30640.524    15.681035    13.580145    25.304373    5388.5846 
  987000      986.985    562.73322    23.130995   -440.33382   -417.20282    9695.2114     1009.587   -721.82379    28797.871    15.681038    13.580147    25.304356    5388.5825 
  987500      987.485    573.37806    23.568548   -440.76564   -417.19709    8632.0916    3923.2588   -1455.5947    23428.611     15.68104    13.580149    25.304338    5388.5804 
  988000      987.985    544.16853    22.367898   -439.55671   -417.18881    10516.605    5497.3989    212.23209    25840.184    15.681042    13.580151    25.304321    5388.5783 
  988500      988.485    556.10052    22.858359   -440.04305   -417.18469    9337.9382    1454.9982     216.7363     26342.08    15.681045    13.580153    25.304303    5388.5762 
  989000      988.985    572.84452    23.546617   -440.72144   -417.17482    10038.611   0.95367091     3296.612    26818.268    15.681047    13.580155    25.304286    5388.5741 
  989500      989.485    566.31384    23.278175   -440.44708    -417.1689    9732.3482    1434.9134    2502.3613     25259.77     15.68105    13.580157    25.304268     5388.572 
  990000      989.985    574.60397    23.618939   -440.78165   -417.16272    10265.691    2850.7306    2572.7552    25373.587    15.681052    13.580159    25.304251    5388.5699 
  990500      990.485    580.14083     23.84653   -441.00393    -417.1574    10365.029    2611.4612    1672.4881    26811.138    15.681054    13.580161    25.304233    5388.5679 
  991000      990.985    566.15875      23.2718   -440.41939   -417.14759    7554.8983    4520.5958   -3576.1707     21720.27    15.681057    13.580163    25.304216    5388.5658 
  991500      991.485    546.87444    22.479124   -439.62215   -417.14303    7640.2785   -1016.7519   -1446.8115    25384.399    15.681059    13.580165    25.304198    5388.5637 
  992000      991.985    567.51325    23.327477   -440.46432   -417.13684    9309.6535    543.58244   -156.58689    27541.965    15.681062    13.580167    25.304181    5388.5616 
  992500      992.485    552.95551    22.729085   -439.85851   -417.12942    8578.9314   -357.23525    354.48928     25739.54    15.681064    13.580169    25.304163    5388.5595 
  993000      992.985    544.73753    22.391287   -439.51184   -417.12056    9520.1873    3025.4749   -843.44332     26378.53    15.681066    13.580171    25.304146    5388.5574 
  993500      993.485    576.70381    23.705252   -440.82166   -417.11641    8810.5376   -1138.0374    -5078.445    32648.095    15.681069    13.580173    25.304128    5388.5553 
  994000      993.985    599.41897    24.638953   -441.74996   -417.11101    9608.3857    1367.6312    153.15675    27304.369    15.681071    13.580175    25.304111    5388.5532 
  994500      994.485    582.39219    23.939072   -441.04296   -417.10389    8093.4511   -3410.8577    1638.3872    26052.824    15.681074    13.580177    25.304093    5388.5511 
  995000      994.985    565.61253    23.249348   -440.34443   -417.09508    9583.9092    3351.4036     1125.457    24274.867    15.681076    13.580179    25.304076    5388.5491 
  995500      995.485    562.18156    23.108319    -440.1957   -417.08738    9835.3045    7737.6515   -210.95078    21979.213    15.681078    13.580181    25.304058     5388.547 
  996000      995.985    580.67763    23.868595   -440.94978   -417.08118    9741.6601    4109.4949   -399.24256    25514.728    15.681081    13.580184    25.304041    5388.5449 
  996500      996.485     545.8601     22.43743   -439.50921   -417.07178    10401.247   -1456.5481    1329.8014    31330.486    15.681083    13.580186    25.304023    5388.5428 
  997000      996.985    583.84605    23.998832   -441.06543    -417.0666    7380.3126    -3328.525    898.65113    24570.812    15.681086    13.580188    25.304006    5388.5407 
  997500      997.485    542.49194    22.298983   -439.35684   -417.05786    10558.917     3012.437    2900.1756    25764.138    15.681088     13.58019    25.303988    5388.5386 
  998000      997.985    584.16332    24.011873    -441.0644   -417.05253    9553.1579   -1092.1293    1492.3364    28259.266     15.68109    13.580192    25.303971    5388.5365 
  998500      998.485    601.72561    24.733767   -441.77882   -417.04505    9288.8215     2294.456    251.77581    25320.233    15.681093    13.580194    25.303953    5388.5344 
  999000      998.985    568.37004    23.362695   -440.40074   -417.03804    9151.0969    1123.2302   -1716.1048    28046.165    15.681095    13.580196    25.303936    5388.5324 
  999500      999.485    596.08235    24.501802   -441.53354   -417.03174    7208.9642    -2068.793   -3631.9452    27327.631    15.681098    13.580198    25.303918    5388.5303 
 1000000      999.985    548.83901    22.559877    -439.5863   -417.02643    9098.8744   -4108.1096    5516.6137    25888.119      15.6811      13.5802    25.303901    5388.5282 
 1000015         1000    555.53799    22.835237   -439.86215   -417.02692    8547.8895   -2113.8344    3950.9706    23806.532      15.6811      13.5802      25.3039    5388.5281 
Loop time of 978.515 on 28 procs for 1000000 steps with 319 atoms

Performance: 88.297 ns/day, 0.272 hours/ns, 1021.957 timesteps/s
87.5% CPU use with 28 MPI tasks x no OpenMP threads

MPI task timing breakdown:
Section |  min time  |  avg time  |  max time  |%varavg| %total
---------------------------------------------------------------
Pair    | 767.36     | 837.4      | 904.69     | 112.2 | 85.58
Neigh   | 0.019833   | 0.034374   | 0.045145   |   4.2 |  0.00
Comm    | 62.882     | 129.23     | 196.92     | 278.4 | 13.21
Output  | 0.10076    | 0.1031     | 0.12803    |   1.5 |  0.01
Modify  | 4.725      | 6.5533     | 8.681      |  49.8 |  0.67
Other   |            | 5.194      |            |       |  0.53

Nlocal:    11.3929 ave 15 max 5 min
Histogram: 1 0 4 3 1 0 1 7 1 10
Nghost:    686.286 ave 743 max 654 min
Histogram: 5 3 8 3 1 1 2 1 2 2
Neighs:    732.857 ave 989 max 324 min
Histogram: 1 3 4 1 0 3 3 3 3 7
FullNghs:  1465.71 ave 1958 max 638 min
Histogram: 1 4 3 1 0 1 6 2 2 8

Total # of neighbors = 41040
Ave neighs/atom = 128.652
Neighbor list builds = 494
Dangerous builds = 0

write_restart   POSCAR_1x1x1.rest

#unfix    1
#undump   1
Total wall time: 0:16:18
