LAMMPS (7 Dec 2015)
#----------- Initialize Simulation ------------ restart01
#processors	2 2 2
units		metal
boundary	p p p     ## periodic boundary condition  on x y z axis ##
atom_style atomic
#atom_modify map array sort 0 0.0

read_data	POSCAR_1x1x1.lammps
  triclinic box = (0 0 0) to (15.272 13.2259 28.3129) with tilt (-7.6359 0 0)
  2 by 2 by 7 MPI processor grid
  reading atoms ...
  319 atoms

#----------- Define Potential -----------------
pair_style meam
pair_coeff * * MgAlZn.library.meam Mg Al Zn MgAlZn.parameter.meam Mg Al Zn 	#1=Mg 2=Al 3=Zn	#atoms/mass

#----------- Neighbor List --------------------
neighbor 2.0 bin
neigh_modify delay 10 check yes

#--------------  Run a simulation (minimization) ---------------------------------------
minimize       1.0e-4   1.0e-6   100   1000          #結構優化的條件
WARNING: Resetting reneighboring criteria during minimization (../min.cpp:168)
Neighbor list info ...
  2 neighbor list requests
  update every 1 steps, delay 0 steps, check yes
  max neighbors/atom: 2000, page size: 100000
  master list distance cutoff = 8
  ghost atom cutoff = 8
  binsize = 4 -> bins = 6 4 8
Memory usage per processor = 8.64587 Mbytes
Step Temp E_pair E_mol TotEng Press 
       0            0   -429.40496            0   -429.40496   -8235.1083 
      14            0   -452.34926            0   -452.34926   -25045.118 
Loop time of 0.021726 on 28 procs for 14 steps with 319 atoms

89.6% CPU use with 28 MPI tasks x no OpenMP threads

Minimization stats:
  Stopping criterion = energy tolerance
  Energy initial, next-to-last, final = 
        -429.404958273     -452.315981225     -452.349259822
  Force two-norm initial, final = 21.3 0.739243
  Force max component initial, final = 4.27293 0.177829
  Final line search alpha, max atom move = 0.314246 0.0558819
  Iterations, force evaluations = 14 24

MPI task timing breakdown:
Section |  min time  |  avg time  |  max time  |%varavg| %total
---------------------------------------------------------------
Pair    | 0.017488   | 0.018383   | 0.019648   |   0.4 | 84.61
Neigh   | 0          | 0          | 0          |   0.0 |  0.00
Comm    | 0.001223   | 0.002377   | 0.003299   |   0.9 | 10.94
Output  | 0          | 0          | 0          |   0.0 |  0.00
Modify  | 0          | 0          | 0          |   0.0 |  0.00
Other   |            | 0.0009663  |            |       |  4.45

Nlocal:    11.3929 ave 16 max 6 min
Histogram: 1 2 4 0 2 4 3 4 6 2
Nghost:    643.179 ave 696 max 589 min
Histogram: 3 4 3 2 1 2 4 2 3 4
Neighs:    695.214 ave 1009 max 356 min
Histogram: 2 2 3 3 3 2 4 5 3 1
FullNghs:  1390.43 ave 1939 max 718 min
Histogram: 1 2 4 0 5 2 2 4 6 2

Total # of neighbors = 38932
Ave neighs/atom = 122.044
Neighbor list builds = 0
Dangerous builds = 0
velocity all  create 600.0 4928459 #rot yes dist gaussian

#--------------  Run a simulation (Relaxation)  ----------------------------------------
fix  1  all  nvt   temp  600.0  600.0  100				#damping constant
#fix  2  all  npt   temp  393.0  393.0  50 iso 0.0 0.0 1000.0
fix  2  all deform 1 x final 0 15.2767 y final 0 13.23 z final 0 28.2779 xy final -7.63825 units lattice
#fix  3  all  npt   temp  393.0  393.0  50 z 0.0 0.0 1000.0

#variable b equal 1
#fix 2 all efield  0.0  0.0  v_b
#compute pot all pe/atom


#----------- Output --------------------------
thermo	 500
timestep  0.001		#1.0 fs
thermo_style	custom step time temp ke pe etotal press pxx pyy pzz lx ly lz vol

dump 1 all custom 10000 dump.eq id type x y z
dump_modify 1 sort  id

run        1000000	#1000 ps
Neighbor list info ...
  2 neighbor list requests
  update every 1 steps, delay 10 steps, check yes
  max neighbors/atom: 2000, page size: 100000
  master list distance cutoff = 8
  ghost atom cutoff = 8
  binsize = 4 -> bins = 6 4 8
Memory usage per processor = 7.55182 Mbytes
Step Time Temp KinEng PotEng TotEng Press Pxx Pyy Pzz Lx Ly Lz Volume 
      14            0          600    24.662836   -452.34926   -427.68642   -20438.771    -7727.942   -9322.1103   -44266.261       15.272      13.2259      28.3129    5718.8079 
     500        0.486    318.72096    13.100938   -440.78369   -427.68275   -13100.998   -906.63903   -983.52544   -37412.829    15.272002    13.225902    28.312883    5718.8061 
    1000        0.986    312.21299    12.833429   -440.51579   -427.68236   -14337.823   -2645.2229   -1694.5811   -38673.666    15.272005    13.225904    28.312865    5718.8044 
    1500        1.486    308.85586    12.695435    -440.3773   -427.68186   -13752.312   -790.77658   -3590.4755   -36875.683    15.272007    13.225906    28.312848    5718.8026 
    2000        1.986    297.95011    12.247158   -439.92795   -427.68079   -13630.136   -2498.2317   -1782.9594   -36609.218    15.272009    13.225908     28.31283    5718.8008 
    2500        2.486    305.69607    12.565553   -440.24488   -427.67932    -13545.46   -646.27815   -1094.2318   -38895.869    15.272012     13.22591    28.312813    5718.7991 
    3000        2.986    325.32489    13.372391   -441.05045   -427.67806   -13716.808   -1557.1499   -873.86236   -38719.412    15.272014    13.225912    28.312795    5718.7973 
    3500        3.486    314.60386    12.931706   -440.60791    -427.6762   -13447.989    2488.9422     -2444.92   -40387.989    15.272016    13.225914    28.312778    5718.7955 
    4000        3.986    317.47123    13.049568   -440.72369   -427.67412   -13715.913    1131.6311   -11.416693   -42267.952    15.272019    13.225916     28.31276    5718.7938 
    4500        4.486     305.0091    12.537316   -440.20858   -427.67127   -12933.523   -57.967693   -1801.0021   -36941.598    15.272021    13.225918    28.312743     5718.792 
    5000        4.986    329.42178    13.540792   -441.20973   -427.66894   -14915.255   -2179.5786   -3247.5325   -39318.654    15.272023     13.22592    28.312725    5718.7902 
    5500        5.486    318.88013     13.10748   -440.77296   -427.66548   -13534.642   -392.15284   -1488.6711   -38723.101    15.272026    13.225922    28.312708    5718.7885 
    6000        5.986     296.5038    12.187707   -439.84921    -427.6615   -14124.817    90.874257   -4816.3315   -37648.994    15.272028    13.225925     28.31269    5718.7867 
    6500        6.486     306.9989    12.619106   -440.27752   -427.65842   -13571.906   -592.47538   -3192.1279   -36931.115     15.27203    13.225927    28.312673    5718.7849 
    7000        6.986    323.60791    13.301814   -440.95605   -427.65424    -13475.03   -1465.7063   -3242.4217   -35716.963    15.272033    13.225929    28.312655    5718.7831 
    7500        7.486    310.33203    12.756113   -440.40578   -427.64966    -14221.42   -2079.9059   -2205.4551   -38378.898    15.272035    13.225931    28.312638    5718.7814 
    8000        7.986    314.65169    12.933671   -440.57878   -427.64511   -14298.209    458.74577   -2031.2937    -41322.08    15.272038    13.225933     28.31262    5718.7796 
    8500        8.486    332.26735    13.657759   -441.29832   -427.64056   -13367.652    2573.1575   -4883.3008   -37792.814     15.27204    13.225935    28.312603    5718.7778 
    9000        8.986    315.65581    12.974946   -440.61004    -427.6351   -13578.518   -1521.5203   -2952.3146   -36261.719    15.272042    13.225937    28.312585    5718.7761 
    9500        9.486    321.31199    13.207441   -440.83691   -427.62947   -13971.311    575.12231   -2033.3389   -40455.718    15.272045    13.225939    28.312568    5718.7743 
   10000        9.986    303.24142    12.464656   -440.08804   -427.62339   -13249.651    1222.1611   -4226.9009   -36744.214    15.272047    13.225941     28.31255    5718.7725 
   10500       10.486    300.77345     12.36321   -439.98013   -427.61692   -13971.149   -1439.5069    -2099.111    -38374.83    15.272049    13.225943    28.312533    5718.7708 
   11000       10.986    309.01202    12.701854   -440.31257   -427.61071   -15079.973   -3420.2654   -3119.1581   -38700.496    15.272052    13.225945    28.312515     5718.769 
   11500       11.486    319.46397    13.131479   -440.73525   -427.60377   -12898.584    2632.2636    -2701.387   -38626.629    15.272054    13.225947    28.312498    5718.7672 
   12000       11.986     307.2527    12.629538   -440.22547   -427.59594   -13702.324   -625.25388   -1560.6968    -38921.02    15.272056    13.225949     28.31248    5718.7655 
   12500       12.486     309.6968    12.730002   -440.31905   -427.58905   -13403.621    -1045.544   -1763.7594   -37401.559    15.272059    13.225951    28.312463    5718.7637 
   13000       12.986    341.29789    14.028956   -441.61059   -427.58163   -13942.077    8.8807897    -3123.076   -38712.035    15.272061    13.225953    28.312445    5718.7619 
   13500       13.486    329.68174    13.551478   -441.12498    -427.5735   -12878.729    1993.0286   -2108.7584   -38520.458    15.272063    13.225955    28.312428    5718.7602 
   14000       13.986    322.54612     13.25817   -440.82257    -427.5644   -13776.359   -417.16423   -3952.3509   -36959.563    15.272066    13.225957     28.31241    5718.7584 
   14500       14.486    314.63274    12.932892   -440.48847   -427.55558   -13713.088   -2152.0131   -1020.3047   -37966.945    15.272068    13.225959    28.312393    5718.7566 
   15000       14.986    304.57825    12.519606   -440.06612   -427.54651   -13776.604   -668.06726   -2226.1197   -38435.624     15.27207    13.225961    28.312375    5718.7549 
   15500       15.486    309.73049    12.731387   -440.26895   -427.53756   -14850.629   -994.27468   -1603.6693   -41953.944    15.272073    13.225963    28.312358    5718.7531 
   16000       15.986    328.18665    13.490022   -441.01777   -427.52774   -14544.391   -1116.8514     -5222.26    -37294.06    15.272075    13.225966     28.31234    5718.7513 
   16500       16.486     315.9316    12.986282   -440.50366   -427.51738   -14163.526   -1321.7351   -2860.2959   -38308.546    15.272077    13.225968    28.312323    5718.7495 
   17000       16.986    337.20123    13.860564   -441.36851   -427.50794   -13665.442    981.15221   -3053.6313   -38923.846     15.27208     13.22597    28.312305    5718.7478 
   17500       17.486    320.01057    13.153947   -440.65108   -427.49713   -13684.485   -1203.5476    -3175.693   -36674.214    15.272082    13.225972    28.312288     5718.746 
   18000       17.986    313.63436    12.891854   -440.37792   -427.48607   -14763.705   -501.22129   -4782.8923       -39007    15.272085    13.225974     28.31227    5718.7442 
   18500       18.486    317.66142    13.057386   -440.53249    -427.4751   -13486.557   -588.60184   -2791.1124   -37079.956    15.272087    13.225976    28.312253    5718.7425 
   19000       18.986    334.14682    13.735013   -441.19906   -427.46405   -14147.794   -1483.8004   -1657.4247   -39302.155    15.272089    13.225978    28.312235    5718.7407 
   19500       19.486    309.06686    12.704109   -440.15627   -427.45216   -14554.148   -1239.3233   -4985.8924   -37437.229    15.272092     13.22598    28.312218    5718.7389 
   20000       19.986    320.42797    13.171104   -440.61118   -427.44008   -13004.441   -966.56377   -1193.4939   -36853.266    15.272094    13.225982      28.3122    5718.7372 
   20500       20.486    308.97073    12.700157   -440.12793   -427.42778   -13349.577   -2382.6537   -1835.9949   -35830.082    15.272096    13.225984    28.312183    5718.7354 
   21000       20.986    300.62818    12.357239   -439.77207   -427.41483   -12998.527   -711.87462    -809.6752   -37474.032    15.272099    13.225986    28.312165    5718.7336 
   21500       21.486    305.95048    12.576011     -439.978   -427.40199   -13081.474   -1030.1362   -1392.4496   -36821.835    15.272101    13.225988    28.312148    5718.7319 
   22000       21.986    324.62243    13.343516   -440.73268   -427.38916   -13432.947   -1025.4209   -924.12244   -38349.298    15.272103     13.22599     28.31213    5718.7301 
   22500       22.486    315.04776    12.949952   -440.32554   -427.37559   -13054.533    640.19797   -2875.5904   -36928.205    15.272106    13.225992    28.312113    5718.7283 
   23000       22.986    325.36311    13.373961   -440.73594   -427.36198   -14186.886   -2758.2062   -1337.3659   -38465.085    15.272108    13.225994    28.312095    5718.7266 
   23500       23.486    328.71096    13.511574   -440.85983   -427.34826   -14298.661   -1362.8569   -3130.8961   -38402.231     15.27211    13.225996    28.312078    5718.7248 
   24000       23.986    317.83191    13.064394   -440.39788   -427.33348   -15476.159   -2201.8964    -3970.402   -40256.179    15.272113    13.225998     28.31206     5718.723 
   24500       24.486    334.18431    13.736554   -441.05596    -427.3194   -14700.653   -1915.5319   -3511.1028   -38675.325    15.272115       13.226    28.312043    5718.7213 
   25000       24.986    322.69382    13.264241   -440.56904    -427.3048   -13618.586   -2210.0165   -4696.2071   -33949.533    15.272117    13.226002    28.312025    5718.7195 
   25500       25.486     324.5942    13.342356   -440.63187   -427.28951   -13756.763   -1144.7659   -2349.5852   -37775.939     15.27212    13.226004    28.312008    5718.7177 
   26000       25.986    309.57744    12.725096   -439.99955   -427.27445   -13302.079   -911.47302   -1246.6249   -37748.139    15.272122    13.226007     28.31199    5718.7159 
   26500       26.486    328.22594    13.491637   -440.75046   -427.25883   -14163.425   -2981.1551   -3293.5651   -36215.555    15.272124    13.226009    28.311973    5718.7142 
   27000       26.986    352.86542    14.504437   -441.74831   -427.24388   -13783.969    1788.7528     -3386.81    -39753.85    15.272127    13.226011    28.311955    5718.7124 
   27500       27.486     324.6346    13.344016   -440.57138   -427.22736   -13416.437   -576.53014   -1034.0348   -38638.747    15.272129    13.226013    28.311938    5718.7106 
   28000       27.986     313.2255    12.875048   -440.08602   -427.21097   -14071.714   -778.83938   -2335.0554   -39101.246    15.272132    13.226015     28.31192    5718.7089 
   28500       28.486    314.45502    12.925587   -440.12019    -427.1946   -13313.189   -1640.1883    625.05559   -38924.435    15.272134    13.226017    28.311903    5718.7071 
   29000       28.986     327.0849    13.444735   -440.62289   -427.17816   -13041.498   -884.39309    -1864.902   -36375.198    15.272136    13.226019    28.311885    5718.7053 
   29500       29.486    332.12455    13.651889   -440.81333   -427.16144   -13926.878   -3057.8969   -2012.9662    -36709.77    15.272139    13.226021    28.311868    5718.7036 
   30000       29.986    326.02984    13.401367   -440.54601   -427.14465   -13831.691   -1315.8661    -2845.739   -37333.466    15.272141    13.226023     28.31185    5718.7018 
   30500       30.486    322.18356    13.243267   -440.37013   -427.12686   -13559.468    -338.5791   -2295.8416   -38043.983    15.272143    13.226025    28.311833       5718.7 
   31000       30.986    316.80287    13.022095   -440.13147   -427.10938   -13032.807   -296.31667      -1948.4   -36853.705    15.272146    13.226027    28.311815    5718.6983 
   31500       31.486    328.10744    13.486766   -440.57874   -427.09198   -12966.332    1096.4522   -1566.7729   -38428.676    15.272148    13.226029    28.311798    5718.6965 
   32000       31.986    304.67245    12.523478   -439.59744   -427.07397     -13333.9   -877.96555    848.94626    -39972.68     15.27215    13.226031     28.31178    5718.6947 
   32500       32.486    318.41557    13.088385   -440.14468    -427.0563   -13977.823   -1519.6685    2066.8536   -42480.654    15.272153    13.226033    28.311763     5718.693 
   33000       32.986     308.3209    12.673446   -439.71148   -427.03803   -13767.153   -2248.9637    221.57304    -39274.07    15.272155    13.226035    28.311745    5718.6912 
   33500       33.486    318.05225     13.07345   -440.09345      -427.02   -13055.165   -391.57877   -4467.0001   -34306.916    15.272157    13.226037    28.311728    5718.6894 
   34000       33.986     338.3242    13.906724   -440.90859   -427.00186   -13921.047   -1287.2193   -1871.2305   -38604.692     15.27216    13.226039     28.31171    5718.6877 
   34500       34.486    335.16774    13.776978   -440.76041   -426.98344   -13596.301    -1794.423   -763.31937   -38231.162    15.272162    13.226041    28.311693    5718.6859 
   35000       34.986    324.13157    13.323339   -440.28839   -426.96505   -13918.197   -2513.7777   -1669.4683   -37571.344    15.272164    13.226043    28.311675    5718.6841 
   35500       35.486    318.84768    13.106146   -440.05213   -426.94599   -12653.291     2071.994   -476.67716   -39555.191    15.272167    13.226045    28.311658    5718.6823 
   36000       35.986    325.36612    13.374085   -440.30173   -426.92765   -13719.171   -253.88735   -3856.2009   -37047.424    15.272169    13.226048     28.31164    5718.6806 
   36500       36.486    330.07247    13.567539   -440.47617   -426.90863   -12493.423     331.6039   -1516.4557   -36295.418    15.272171     13.22605    28.311623    5718.6788 
   37000       36.986    329.14511     13.52942   -440.41925   -426.88983   -13625.014    219.38038   -2293.8214   -38800.601    15.272174    13.226052    28.311605     5718.677 
   37500       37.486    309.86595    12.736955    -439.6079   -426.87095   -12113.296     1153.888    933.76052   -38427.538    15.272176    13.226054    28.311588    5718.6753 
   38000       37.986    325.56951    13.382446   -440.23472   -426.85227    -14712.73   -3011.1278   -3726.4512   -37400.612    15.272179    13.226056     28.31157    5718.6735 
   38500       38.486    330.08729    13.568148   -440.40172   -426.83357   -12977.889    673.73597   -1289.2355   -38318.167    15.272181    13.226058    28.311553    5718.6717 
   39000       38.986    322.47615    13.255294    -440.0697   -426.81441   -14100.035    1694.6538   -2987.2851   -41007.474    15.272183     13.22606    28.311535      5718.67 
   39500       39.486    328.26175    13.493109   -440.28822   -426.79511   -13320.482   -248.09064   -368.73537   -39344.619    15.272186    13.226062    28.311518    5718.6682 
   40000       39.986    318.89256    13.107991   -439.88393   -426.77594   -12385.538    1928.0891   -1821.1466   -37263.556    15.272188    13.226064      28.3115    5718.6664 
   40500       40.486    323.65552    13.303771   -440.06087    -426.7571   -13504.259   -955.76067    455.08211   -40012.098     15.27219    13.226066    28.311483    5718.6647 
   41000       40.986    310.51621    12.763684   -439.50137   -426.73769   -13466.662   -1384.4396    -1595.529   -37420.016    15.272193    13.226068    28.311465    5718.6629 
   41500       41.486    320.51289    13.174595   -439.89343   -426.71883   -13495.823   -1707.1587   -1945.9744   -36834.336    15.272195     13.22607    28.311448    5718.6611 
   42000       41.986    353.68601    14.538166   -441.23834   -426.70018   -14293.217   -3074.5645   -637.24514   -39167.841    15.272197    13.226072     28.31143    5718.6594 
   42500       42.486    309.74663     12.73205   -439.41283   -426.68078   -13339.423   -1205.8326   -1260.1103   -37552.325      15.2722    13.226074    28.311413    5718.6576 
   43000       42.986    344.51509    14.161198    -440.8235    -426.6623   -14720.344   -1827.4301    -2876.096   -39457.505    15.272202    13.226076    28.311395    5718.6558 
   43500       43.486    345.36695    14.196214   -440.83992   -426.64371   -14694.341   -1330.0797   -2398.0541   -40354.889    15.272204    13.226078    28.311378    5718.6541 
   44000       43.986     327.5851    13.465296   -440.08962   -426.62432   -13605.587   -1217.0862   -3296.6401   -36303.036    15.272207     13.22608     28.31136    5718.6523 
   44500       44.486    315.80628     12.98113   -439.58629   -426.60516    -13146.09    460.56893   -3128.9314   -36769.908    15.272209    13.226082    28.311343    5718.6505 
   45000       44.986    324.03873    13.319523   -439.90624   -426.58672   -13243.656    823.84973   -2722.5075   -37832.311    15.272211    13.226084    28.311325    5718.6487 
   45500       45.486    334.20749    13.737507   -440.30553   -426.56802   -13972.844   -202.62751   -2045.0045   -39670.901    15.272214    13.226086    28.311308     5718.647 
   46000       45.986    332.14446    13.652707    -440.2025    -426.5498   -13791.558    158.54541   -3108.0838   -38425.136    15.272216    13.226089     28.31129    5718.6452 
   46500       46.486    316.87013     13.02486   -439.55587   -426.53101   -12312.581   -1018.9398    63.958857   -35982.763    15.272218    13.226091    28.311273    5718.6434 
   47000       46.986    330.98925    13.605222   -440.11762    -426.5124   -13948.588   -897.66413   -1677.5772   -39270.522    15.272221    13.226093    28.311255    5718.6417 
   47500       47.486    337.96182    13.891828   -440.38655   -426.49473   -14204.155      -151.46   -4218.4324   -38242.573    15.272223    13.226095    28.311238    5718.6399 
   48000       47.986    313.78514    12.898052    -439.3737   -426.47565   -13662.713   -704.97536   -2624.2338    -37658.93    15.272226    13.226097     28.31122    5718.6381 
   48500       48.486    341.64744    14.043324   -440.50111   -426.45778    -13549.09    1009.8925   -3592.6211   -38064.541    15.272228    13.226099    28.311203    5718.6364 
   49000       48.986    319.12843    13.117687   -439.55691   -426.43922    -12721.74   -238.26283   -2697.1962   -35229.762     15.27223    13.226101    28.311185    5718.6346 
   49500       49.486    327.45345    13.459884   -439.88115   -426.42126   -12897.724   -604.88867    1380.9938   -39469.276    15.272233    13.226103    28.311168    5718.6328 
   50000       49.986    313.67048    12.893339   -439.29661   -426.40328   -11477.551    80.033718   -1165.9911   -33346.695    15.272235    13.226105     28.31115    5718.6311 
   50500       50.486    349.07526    14.348643   -440.73402   -426.38538   -13602.833    1270.5611    -4852.818   -37226.243    15.272237    13.226107    28.311133    5718.6293 
   51000       50.986    326.65501    13.427065    -439.7947   -426.36763   -13994.045    37.250067    -2098.364   -39921.021     15.27224    13.226109    28.311115    5718.6275 
   51500       51.486    341.89058    14.053319   -440.40351   -426.35019     -12449.7   -54.666841   -81.133661   -37213.299    15.272242    13.226111    28.311098    5718.6258 
   52000       51.986    329.74819    13.554209   -439.88637   -426.33216   -13664.646   -991.82405   -2841.2517   -37160.862    15.272244    13.226113     28.31108     5718.624 
   52500       52.486    328.24332    13.492352   -439.80743   -426.31507   -14232.563   -2030.6856   -3609.0079   -37057.997    15.272247    13.226115    28.311063    5718.6222 
   53000       52.986    340.63138    14.001559   -440.29953   -426.29797   -13371.822    1108.9629   -3167.9054   -38056.524    15.272249    13.226117    28.311045    5718.6204 
   53500       53.486    318.43168    13.089047   -439.36911   -426.28006   -11529.419    2626.4016    330.05319   -37544.713    15.272251    13.226119    28.311028    5718.6187 
   54000       53.986    354.13532    14.556635   -440.82064     -426.264   -13484.345   -575.03015   -2086.5655   -37791.439    15.272254    13.226121     28.31101    5718.6169 
   54500       54.486    325.30995    13.371776   -439.61749   -426.24572   -13530.687    896.55915   -1685.4543   -39803.166    15.272256    13.226123    28.310993    5718.6151 
   55000       54.986    333.88575    13.724282   -439.95383   -426.22955   -12445.811      1207.91   -2909.7482   -35635.595    15.272258    13.226125    28.310975    5718.6134 
   55500       55.486    323.51562    13.298021   -439.51049   -426.21246   -13092.246    964.59812   -2116.6758   -38124.659    15.272261    13.226127    28.310958    5718.6116 
   56000       55.986    333.38977    13.703895   -439.89926   -426.19537   -13164.845    1696.9032   -363.69748    -40827.74    15.272263     13.22613     28.31094    5718.6098 
   56500       56.486    344.05118    14.142129   -440.32112   -426.17899   -12943.941    1428.1862   -3750.8502   -36509.158    15.272265    13.226132    28.310923    5718.6081 
   57000       56.986    310.13435    12.747988    -438.9102   -426.16221   -12324.751    3083.9385   -901.70684   -39156.484    15.272268    13.226134    28.310905    5718.6063 
   57500       57.486    326.01617    13.400805   -439.54646   -426.14565   -13070.149   -237.32395   -2686.9652   -36286.157     15.27227    13.226136    28.310888    5718.6045 
   58000       57.986    332.74896    13.677555    -439.8062   -426.12865   -13437.733     745.5402   -2899.5722   -38159.166    15.272273    13.226138     28.31087    5718.6028 
   58500       58.486    347.03035    14.264588   -440.37709    -426.1125   -13758.744   -1307.3035   -2859.6695    -37109.26    15.272275     13.22614    28.310853     5718.601 
   59000       58.986    328.50762    13.503216   -439.59962    -426.0964   -12546.912   -1744.6154   -3175.5531   -32720.569    15.272277    13.226142    28.310835    5718.5992 
   59500       59.486     346.2083    14.230797   -440.31095   -426.08015   -13000.787    1609.3868   -2102.7923   -38508.955     15.27228    13.226144    28.310818    5718.5975 
   60000       59.986    324.94045    13.356588   -439.42021   -426.06362   -12424.021    1106.4502    804.94392   -39183.457    15.272282    13.226146      28.3108    5718.5957 
   60500       60.486    329.06733    13.526223   -439.57375   -426.04753   -13524.283   -1085.7383   -4097.2737   -35389.837    15.272284    13.226148    28.310783    5718.5939 
   61000       60.986    346.37301    14.237568   -440.26912   -426.03156   -12037.083    309.89929   -1209.5216   -35211.626    15.272287     13.22615    28.310765    5718.5922 
   61500       61.486    343.92711     14.13703   -440.15242   -426.01539   -13277.648    1579.4569   -1662.2356   -39750.166    15.272289    13.226152    28.310748    5718.5904 
   62000       61.986    332.00105    13.646812   -439.64621    -425.9994    -13599.97    982.87085   -2526.1966   -39256.585    15.272291    13.226154     28.31073    5718.5886 
   62500       62.486    326.90115    13.437182   -439.42023   -425.98304   -11263.968    2250.0864    77.393056   -36119.384    15.272294    13.226156    28.310713    5718.5868 
   63000       62.986    334.61017    13.754059   -439.72145   -425.96739   -12723.803   -187.54309   -934.06165   -37049.804    15.272296    13.226158    28.310695    5718.5851 
   63500       63.486    316.74507    13.019719    -438.9711   -425.95138   -14162.469   -151.89753   -2626.2717   -39709.237    15.272298     13.22616    28.310678    5718.5833 
   64000       63.986    342.53387    14.079761   -440.01579   -425.93603   -13059.418   -480.81108   -1806.4988   -36890.944    15.272301    13.226162     28.31066    5718.5815 
   64500       64.486    346.00476    14.222431   -440.14248   -425.92005   -13717.434   -2645.9036   -2994.4549   -35511.943    15.272303    13.226164    28.310643    5718.5798 
   65000       64.986     324.1601    13.324512   -439.22825   -425.90374   -14073.179    -511.5477   -2347.4978   -39360.492    15.272305    13.226166    28.310625     5718.578 
   65500       65.486    326.00623    13.400397   -439.28907   -425.88867   -11258.723     3245.769   -1324.3712   -35697.566    15.272308    13.226168    28.310608    5718.5762 
   66000       65.986    321.40346    13.211201   -439.08388   -425.87268   -13079.239    120.68695   -3066.1808   -36292.223     15.27231    13.226171     28.31059    5718.5745 
   66500       66.486    319.52809    13.134115   -438.99083   -425.85672   -12377.819    1563.1862   -2508.9712   -36187.671    15.272312    13.226173    28.310573    5718.5727 
   67000       66.986    336.99002    13.851883   -439.69342   -425.84153   -13311.835    1362.3801   -3589.4617   -37708.424    15.272315    13.226175    28.310555    5718.5709 
   67500       67.486    338.54783    13.915916   -439.74204   -425.82612   -12682.331    1408.0131    -1749.666    -37705.34    15.272317    13.226177    28.310538    5718.5692 
   68000       67.986    334.16578    13.735793    -439.5458   -425.81001   -12226.171   -1263.0679   -2107.7056   -33307.738     15.27232    13.226179     28.31052    5718.5674 
   68500       68.486    344.62668    14.165785   -439.96057   -425.79478    -13453.07    637.81841   -2304.2293     -38692.8    15.272322    13.226181    28.310503    5718.5656 
   69000       68.986    351.67886    14.455663   -440.23473   -425.77907   -14109.317   -2299.0557   -3160.9447    -36867.95    15.272324    13.226183    28.310485    5718.5639 
   69500       69.486    323.10198    13.281018    -439.0441   -425.76308   -11767.534    1815.9146   -339.82308   -36778.693    15.272327    13.226185    28.310468    5718.5621 
   70000       69.986    325.30746    13.371674   -439.11873   -425.74705   -13118.719     209.0626   -1803.6136   -37761.605    15.272329    13.226187     28.31045    5718.5603 
   70500       70.486    318.83637    13.105681    -438.8378   -425.73212   -12882.649   -750.17781   -1656.6033   -36241.166    15.272331    13.226189    28.310433    5718.5585 
   71000       70.986    330.16899    13.571506    -439.2879    -425.7164   -13943.407   -512.49382   -1123.9426   -40193.784    15.272334    13.226191    28.310415    5718.5568 
   71500       71.486    332.19709     13.65487   -439.35536   -425.70049    -12473.22   -400.75572   -655.43965   -36363.466    15.272336    13.226193    28.310398     5718.555 
   72000       71.986     352.4621    14.487858   -440.17305   -425.68519   -13313.647   -2245.3074    -503.8298   -37191.804    15.272338    13.226195     28.31038    5718.5532 
   72500       72.486    358.34682    14.729748   -440.39935    -425.6696   -13615.555   -384.46304   -3598.1738   -36864.027    15.272341    13.226197    28.310363    5718.5515 
   73000       72.986    326.77733    13.432093   -439.08538   -425.65329   -12507.954    1412.2371   -750.95095   -38185.147    15.272343    13.226199    28.310345    5718.5497 
   73500       73.486    346.43623    14.240166   -439.87726    -425.6371   -13480.104    780.68791   -1149.2125   -40071.789    15.272345    13.226201    28.310328    5718.5479 
   74000       73.986    328.11946     13.48726   -439.10843   -425.62117   -12330.839   -1325.7967   -1066.1393   -34600.581    15.272348    13.226203     28.31031    5718.5462 
   74500       74.486     353.2952    14.522102   -440.12757   -425.60547   -14298.343   -1262.9647   -5897.5864   -35734.479     15.27235    13.226205    28.310293    5718.5444 
   75000       74.986    331.92431    13.643658   -439.23273   -425.58908   -12508.223    1232.7761   -3171.0685   -35586.377    15.272352    13.226207    28.310275    5718.5426 
   75500       75.486    348.48775    14.324493   -439.89766   -425.57317   -12973.045    1728.3484   -2366.1328   -38281.349    15.272355    13.226209    28.310258    5718.5409 
   76000       75.986    344.05018    14.142088   -439.69869   -425.55661   -13997.434   -3046.7575   -1178.1074   -37767.438    15.272357    13.226212     28.31024    5718.5391 
   76500       76.486    355.33921    14.606121   -440.14727   -425.54115   -12052.629    2365.7302    293.15039   -38816.767    15.272359    13.226214    28.310223    5718.5373 
   77000       76.986    346.16775    14.229131    -439.7538   -425.52467   -13487.373    -164.6437   -88.869413   -40208.606    15.272362    13.226216    28.310205    5718.5356 
   77500       77.486    354.59796    14.575652   -440.08425    -425.5086   -13321.007   -251.75718   -535.58591   -39175.678    15.272364    13.226218    28.310188    5718.5338 
   78000       77.986    348.20612    14.312917   -439.80558   -425.49267   -13875.903     662.5054   -1293.1872   -40997.028    15.272367     13.22622     28.31017     5718.532 
   78500       78.486    347.31622    14.276338   -439.75275   -425.47641   -13605.154   -1675.1119   -3535.0385   -35605.312    15.272369    13.226222    28.310153    5718.5303 
   79000       78.986    327.34824     13.45556    -438.9154   -425.45984   -12755.173   -1305.3716   -1224.6319   -35735.516    15.272371    13.226224    28.310135    5718.5285 
   79500       79.486    347.06882    14.266169   -439.70936   -425.44319   -12636.697    1706.6184   -2955.1216   -36661.586    15.272374    13.226226    28.310118    5718.5267 
   80000       79.986    344.66762    14.167468   -439.59388   -425.42641   -11981.789    1862.6154   -1905.8272   -35902.157    15.272376    13.226228      28.3101    5718.5249 
   80500       80.486    342.83444    14.092116   -439.50196   -425.40984   -13837.064   -844.38525   -3679.5871   -36987.218    15.272378     13.22623    28.310083    5718.5232 
   81000       80.986    344.30379    14.152513   -439.54565   -425.39314   -12371.075   -1757.0038   -484.07931   -34872.143    15.272381    13.226232    28.310065    5718.5214 
   81500       81.486    346.00484    14.222434   -439.59915   -425.37672   -13551.606   -2530.5187    1831.5618   -39955.861    15.272383    13.226234    28.310048    5718.5196 
   82000       81.986    343.23576    14.108612   -439.46797   -425.35935   -14211.996    -48.62047   -2487.9348   -40099.434    15.272385    13.226236     28.31003    5718.5179 
   82500       82.486    348.64939    14.331138   -439.67333   -425.34219   -12424.427    1444.5218    -3742.563    -34975.24    15.272388    13.226238    28.310013    5718.5161 
   83000       82.986    344.81093    14.173359   -439.49913   -425.32577   -12551.122   -2573.5972     806.9914   -35886.759     15.27239     13.22624    28.309995    5718.5143 
   83500       83.486    341.73641    14.046981   -439.35515   -425.30817   -12529.176    1626.2516    1460.8503   -40674.629    15.272392    13.226242    28.309978    5718.5126 
   84000       83.986    351.34391    14.441895    -439.7333   -425.29141   -12971.344    326.58323   -2562.6582   -36677.956    15.272395    13.226244     28.30996    5718.5108 
   84500       84.486    346.39221    14.238357    -439.5125   -425.27414   -12196.091    418.15195    1038.8632   -38045.287    15.272397    13.226246    28.309943     5718.509 
   85000       84.986    359.08437    14.760065   -440.01656    -425.2565   -13695.377   -132.66334   -2304.6687   -38648.799    15.272399    13.226248    28.309925    5718.5073 
   85500       85.486    346.22846    14.231626   -439.47057   -425.23895   -13602.074     14.66909   -2703.3595   -38117.533    15.272402     13.22625    28.309908    5718.5055 
   86000       85.986    355.91124    14.629634   -439.85106   -425.22142   -13874.722    528.60512   -1803.5581   -40349.214    15.272404    13.226253     28.30989    5718.5037 
   86500       86.486    324.14919    13.324064   -438.52752   -425.20346   -11973.152   -322.90939   -1364.3634   -34232.182    15.272406    13.226255    28.309873     5718.502 
   87000       86.986    333.37779    13.703403   -438.88892   -425.18551   -12420.643    1704.0885   -3526.4305   -35439.586    15.272409    13.226257    28.309855    5718.5002 
   87500       87.486    354.74142    14.581549   -439.74976   -425.16822   -12463.213    1964.7946   -1086.9339     -38267.5    15.272411    13.226259    28.309838    5718.4984 
   88000       87.986    343.32801    14.112404   -439.26266   -425.15026   -12265.173    830.11377    172.13842   -37797.772    15.272414    13.226261     28.30982    5718.4966 
   88500       88.486     337.8834    13.888605   -439.02046   -425.13186   -12355.543   -1224.7653    2263.2609   -38105.125    15.272416    13.226263    28.309803    5718.4949 
   89000       88.986    355.99666    14.633145   -439.74723   -425.11408   -13451.439    462.27689   -1656.9695   -39159.626    15.272418    13.226265    28.309785    5718.4931 
   89500       89.486    367.09682    15.089414   -440.18555   -425.09614     -14058.3    181.31027   -1691.3054   -40664.906    15.272421    13.226267    28.309768    5718.4913 
   90000       89.986    332.32647    13.660188   -438.73745   -425.07726    -12849.94    1318.4053   -2782.7559    -37085.47    15.272423    13.226269     28.30975    5718.4896 
   90500       90.486    345.55586    14.203979   -439.26279   -425.05881   -13022.325   -1618.9735    -2005.072   -35442.928    15.272425    13.226271    28.309733    5718.4878 
   91000       90.986    363.45905    14.939885   -439.98028   -425.04039   -12478.358    1854.7599   -2565.8449   -36723.989    15.272428    13.226273    28.309715     5718.486 
   91500       91.486    374.17854    15.380506   -440.40273   -425.02222   -14019.469   -1290.9457   -3066.2431   -37701.219     15.27243    13.226275    28.309698    5718.4843 
   92000       91.986    340.00861    13.975961   -438.97903   -425.00307   -12839.311    156.32582   -1798.8885    -36875.37    15.272432    13.226277     28.30968    5718.4825 
   92500       92.486    354.78794    14.583461   -439.56808   -424.98462    -13562.98     344.7877   -2551.3056   -38482.422    15.272435    13.226279    28.309663    5718.4807 
   93000       92.986    361.44025    14.856902   -439.82278   -424.96588   -13457.403   -1758.4781   -1936.5777   -36677.154    15.272437    13.226281    28.309645     5718.479 
   93500       93.486    367.71284    15.114736   -440.06183   -424.94709   -13240.806   -1198.5603    214.66326   -38738.521    15.272439    13.226283    28.309628    5718.4772 
   94000       93.986    337.49204    13.872518   -438.79988   -424.92736    -11846.65    983.32248   -1851.7519   -34671.521    15.272442    13.226285     28.30961    5718.4754 
   94500       94.486    348.65631    14.331422   -439.24044   -424.90901   -12823.261   -1584.5915   -1275.4174   -35609.774    15.272444    13.226287    28.309593    5718.4737 
   95000       94.986    338.16067    13.900002   -438.78964   -424.88964   -13163.677   -1473.4245   -295.48224   -37722.124    15.272446    13.226289    28.309575    5718.4719 
   95500       95.486    343.37906    14.114502   -438.98511   -424.87061   -11376.972    380.40949    2455.4468   -36966.771    15.272449    13.226291    28.309558    5718.4701 
   96000       95.986    340.59929    14.000241   -438.85132   -424.85108   -11325.743    1078.2514    1841.7264   -36897.207    15.272451    13.226294     28.30954    5718.4683 
   96500       96.486    368.36726    15.141635   -439.97391   -424.83227   -12994.678   -474.92334   -2781.7926   -35727.318    15.272453    13.226296    28.309523    5718.4666 
   97000       96.986    341.28137    14.028277   -438.84025   -424.81197   -12092.879    1120.8335    325.52198   -37724.992    15.272456    13.226298    28.309505    5718.4648 
   97500       97.486    355.29743    14.604404   -439.39707   -424.79267   -11832.423    1244.1744   -1067.4573   -35673.985    15.272458      13.2263    28.309488     5718.463 
   98000       97.986    357.53939    14.696559   -439.46969   -424.77313   -13289.326    582.44554   -2305.2435   -38145.181    15.272461    13.226302     28.30947    5718.4613 
   98500       98.486    358.73391    14.745659   -439.49845   -424.75279   -13038.643    3648.6639    -1870.998   -40893.594    15.272463    13.226304    28.309453    5718.4595 
   99000       98.986    358.57973    14.739322   -439.47226   -424.73294   -13682.817   -367.68705   -2629.7411   -38051.024    15.272465    13.226306    28.309435    5718.4577 
   99500       99.486    371.02544    15.250899   -439.96431   -424.71341    -12800.48    2062.1026   -1579.7194   -38883.823    15.272468    13.226308    28.309418     5718.456 
  100000       99.986    335.69607    13.798695    -438.4915   -424.69281   -12626.764    785.24285    1425.0913   -40090.625     15.27247     13.22631      28.3094    5718.4542 
  100500      100.486     347.6435    14.289791   -438.96273   -424.67294   -12244.526    2086.8082    578.49875   -39398.884    15.272472    13.226312    28.309383    5718.4524 
  101000      100.986    331.99879    13.646719   -438.29913   -424.65241   -12188.212    548.04253   -2678.5308   -34434.148    15.272475    13.226314    28.309365    5718.4507 
  101500      101.486    343.21541    14.107775   -438.73965   -424.63188   -12521.182    874.32218   -3068.1034   -35369.765    15.272477    13.226316    28.309348    5718.4489 
  102000      101.986    330.25524    13.575051   -438.18642   -424.61137   -13537.152    1076.0944    -3370.459   -38317.092    15.272479    13.226318     28.30933    5718.4471 
  102500      102.486    339.58774    13.958661   -438.55003   -424.59137   -11394.542    661.54911   -1743.9277   -33101.247    15.272482     13.22632    28.309313    5718.4454 
  103000      102.986    359.27293    14.767815   -439.33893   -424.57111    -13781.26    831.21563   -2186.6872   -39988.307    15.272484    13.226322    28.309295    5718.4436 
  103500      103.486    339.85255    13.969546   -438.51963   -424.55008   -13164.801    1369.5746   -1674.3677   -39189.611    15.272486    13.226324    28.309278    5718.4418 
  104000      103.986    379.95973    15.618141    -440.1481   -424.52996   -12676.923   -309.98198   -846.73407   -36874.052    15.272489    13.226326     28.30926      5718.44 
  104500      104.486    355.19374    14.600141   -439.10881   -424.50867     -12668.6     354.4652   -2181.7939    -36178.47    15.272491    13.226328    28.309243    5718.4383 
  105000      104.986    350.96906    14.426487   -438.91442   -424.48793    -12868.91    917.29738   -891.72952   -38632.297    15.272493     13.22633    28.309225    5718.4365 
  105500      105.486    346.32913    14.235764   -438.70251   -424.46674   -12673.421    982.71305   -2495.9804   -36506.997    15.272496    13.226332    28.309208    5718.4347 
  106000      105.986    379.59135    15.602998   -440.04927   -424.44627   -12329.381    1737.3695    311.70924   -39037.221    15.272498    13.226335     28.30919     5718.433 
  106500      106.486    353.96036    14.549444   -438.97451   -424.42507   -11512.593    1840.8546   -1599.1592   -34779.475      15.2725    13.226337    28.309173    5718.4312 
  107000      106.986     349.4961    14.365942   -438.76982   -424.40388   -12795.234     499.1062   -2166.5911   -36718.217    15.272503    13.226339    28.309155    5718.4294 
  107500      107.486    364.69683    14.990763   -439.37377     -424.383   -12618.539    1942.1443    139.42625   -39937.187    15.272505    13.226341    28.309138    5718.4277 
  108000      107.986    361.30846    14.851485   -439.21261   -424.36112   -11474.912    1043.1678    -520.0555   -34947.848    15.272508    13.226343     28.30912    5718.4259 
  108500      108.486    346.61741    14.247614   -438.58716   -424.33955   -11485.751    1193.3386    78.173473   -35728.765     15.27251    13.226345    28.309103    5718.4241 
  109000      108.986    365.62467    15.028902   -439.34764   -424.31874   -12347.004     78.85094    554.75514   -37674.619    15.272512    13.226347    28.309085    5718.4224 
  109500      109.486    342.46612    14.076976   -438.37424   -424.29726   -12529.275   -1407.0265   -492.59852     -35688.2    15.272515    13.226349    28.309068    5718.4206 
  110000      109.986    372.61317    15.316162   -439.59284   -424.27668   -11610.884    1113.7754   -159.82327   -35786.604    15.272517    13.226351     28.30905    5718.4188 
  110500      110.486     373.8756    15.368054    -439.6226   -424.25454   -13428.943   -1377.9566   -905.95712   -38002.917    15.272519    13.226353    28.309033    5718.4171 
  111000      110.986     351.2882    14.439605   -438.67254   -424.23294   -12432.184    110.57364   -508.12822   -36898.997    15.272522    13.226355    28.309015    5718.4153 
  111500      111.486    366.53961     15.06651   -439.27794   -424.21143    -11423.78   -128.93578    1190.7004   -35333.105    15.272524    13.226357    28.308998    5718.4135 
  112000      111.986    360.61589    14.823017    -439.0123   -424.18929   -12054.222   -882.87205   -148.67079   -35131.124    15.272526    13.226359     28.30898    5718.4117 
  112500      112.486    356.92307    14.671225   -438.83844   -424.16721   -12375.897    2825.5507   -3324.9769   -36628.266    15.272529    13.226361    28.308963      5718.41 
  113000      112.986    361.16111    14.845429   -438.99113    -424.1457   -12935.885    53.449129   -308.76286    -38552.34    15.272531    13.226363    28.308945    5718.4082 
  113500      113.486    362.87935    14.916056   -439.03984   -424.12378    -10737.43    1542.0439     290.9974   -34045.332    15.272533    13.226365    28.308928    5718.4064 
  114000      113.986    336.23757    13.820953   -437.92271   -424.10176   -12740.962    546.88373   -568.14936   -38201.621    15.272536    13.226367     28.30891    5718.4047 
  114500      114.486    363.25065    14.931318   -439.01136   -424.08004    -12358.34    215.87502    37.293404    -37328.19    15.272538    13.226369    28.308893    5718.4029 
  115000      114.986     361.4113    14.855712   -438.91315   -424.05744   -11800.223    1148.0841    852.53417   -37401.289     15.27254    13.226371    28.308875    5718.4011 
  115500      115.486    359.08731    14.760186   -438.79612   -424.03594   -11509.174   -1210.0064     309.3526   -33626.867    15.272543    13.226373    28.308858    5718.3994 
  116000      115.986    358.21364    14.724273   -438.73769   -424.01342   -12358.735    808.34094   -2313.5066    -35571.04    15.272545    13.226376     28.30884    5718.3976 
  116500      116.486    356.82403    14.667154    -438.6585   -423.99135   -12861.241     2421.014   -2426.0849   -38578.652    15.272547    13.226378    28.308823    5718.3958 
  117000      116.986    390.11022    16.035374    -440.0049   -423.96953   -13625.972   -506.06755    77.675039   -40449.523     15.27255     13.22638    28.308805    5718.3941 
  117500      117.486    367.95948    15.124874   -439.07188     -423.947   -12123.576    2041.5205   -1466.3303   -36945.919    15.272552    13.226382    28.308788    5718.3923 
  118000      117.986    356.43498    14.651162   -438.57584   -423.92468   -13348.826    1824.0669     -2161.65   -39708.896    15.272555    13.226384     28.30877    5718.3905 
  118500      118.486    371.78986     15.28232    -439.1849   -423.90258   -12285.334    1046.4774    129.49629   -38031.975    15.272557    13.226386    28.308753    5718.3888 
  119000      118.986    386.31043    15.879184   -439.75931   -423.88012   -12727.703    142.42385   -1006.2061   -37319.328    15.272559    13.226388    28.308735     5718.387 
  119500      119.486    366.05076    15.046416   -438.90399   -423.85757   -12866.667    2380.8517   -4207.6846   -36773.167    15.272562     13.22639    28.308718    5718.3852 
  120000      119.986    361.22913    14.848225   -438.68349   -423.83527   -11766.247      2841.91    -1990.988   -36149.663    15.272564    13.226392      28.3087    5718.3834 
  120500      120.486    360.97758    14.837884   -438.65052   -423.81263    -12192.03    1351.7434   -648.29165   -37279.543    15.272566    13.226394    28.308683    5718.3817 
  121000      120.986    384.10924    15.788705   -439.57924   -423.79053   -12402.999   -866.54427    324.45489   -36666.909    15.272569    13.226396    28.308665    5718.3799 
  121500      121.486     374.5181    15.394464   -439.16179   -423.76733   -13641.785    990.05552   -2992.2135   -38923.197    15.272571    13.226398    28.308648    5718.3781 
  122000      121.986     336.7655    13.842654   -437.58656    -423.7439   -11851.861    841.75346   -749.61726   -35647.719    15.272573      13.2264     28.30863    5718.3764 
  122500      122.486    363.12319    14.926079   -438.64777   -423.72169   -12816.699    689.99697   -1470.3884   -37669.706    15.272576    13.226402    28.308613    5718.3746 
  123000      122.986    392.25047    16.123348   -439.82328   -423.69994   -12659.035    2548.1149   -1522.3343   -39002.885    15.272578    13.226404    28.308595    5718.3728 
  123500      123.486    380.65676    15.646792   -439.32316   -423.67637   -12783.766    430.30558   -3282.0752   -35499.529     15.27258    13.226406    28.308578    5718.3711 
  124000      123.986    365.09253    15.007028   -438.66074   -423.65371   -11701.181    1133.1331   -1406.3085   -34830.368    15.272583    13.226408     28.30856    5718.3693 
  124500      124.486    375.34324    15.428381   -439.05954   -423.63116   -11238.543    575.69642   -502.28414   -33789.042    15.272585     13.22641    28.308543    5718.3675 
  125000      124.986    369.35646    15.182296   -438.79036   -423.60806   -11863.924    4342.1903     -2134.54   -37799.422    15.272587    13.226412    28.308525    5718.3658 
  125500      125.486    370.24894    15.218981   -438.80439   -423.58541   -11278.574    1803.5547    300.90552   -35940.183     15.27259    13.226414    28.308508     5718.364 
  126000      125.986    354.42283    14.568453   -438.13031   -423.56185   -11862.679    878.26143    613.42116    -37079.72    15.272592    13.226417     28.30849    5718.3622 
  126500      126.486    358.66277    14.742735   -438.28157   -423.53883    -11714.67    2018.1399   -1706.9742   -35455.175    15.272594    13.226419    28.308473    5718.3605 
  127000      126.986    383.08779    15.746719   -439.26272     -423.516   -11747.162    1693.8512   -1179.2948   -35756.043    15.272597    13.226421    28.308455    5718.3587 
  127500      127.486    355.39214    14.608296    -438.1011    -423.4928   -11916.823     1854.235    257.10728   -37861.812    15.272599    13.226423    28.308438    5718.3569 
  128000      127.986    379.73676    15.608975   -439.07915   -423.47017   -13240.122    862.95556   -3198.0454   -37385.275    15.272602    13.226425     28.30842    5718.3551 
  128500      128.486    368.72008    15.156138   -438.60267   -423.44653   -11690.905    2245.8136   -1376.9053   -35941.623    15.272604    13.226427    28.308403    5718.3534 
  129000      128.986    382.46808    15.721245   -439.14483   -423.42359   -11693.668    1225.8001   -1202.7058   -35104.098    15.272606    13.226429    28.308385    5718.3516 
  129500      129.486    380.92795    15.657939   -439.05816   -423.40022   -12532.894   -1091.6877    833.22716   -37340.222    15.272609    13.226431    28.308368    5718.3498 
  130000      129.986    367.26899    15.096491   -438.47336   -423.37687   -11712.422    1823.5942   -1003.4946   -35957.367    15.272611    13.226433     28.30835    5718.3481 
  130500      130.486    357.47025    14.693717   -438.04707   -423.35335   -11061.991    151.75166    1287.7481   -34625.473    15.272613    13.226435    28.308333    5718.3463 
  131000      130.986    376.60536     15.48026   -438.81049   -423.33023   -11473.546    3031.8349    1392.2999   -38844.772    15.272616    13.226437    28.308315    5718.3445 
  131500      131.486    384.31885    15.797321   -439.10446   -423.30714   -11877.098    -382.4535    2548.6557   -37797.495    15.272618    13.226439    28.308298    5718.3428 
  132000      131.986    361.70195    14.867659   -438.15137   -423.28371   -12288.164     1509.557    -692.8568   -37681.192     15.27262    13.226441     28.30828     5718.341 
  132500      132.486    381.86784    15.696573   -438.95735   -423.26078   -11926.085   -113.65341    1366.7326   -37031.335    15.272623    13.226443    28.308263    5718.3392 
  133000      132.986    388.65361      15.9755   -439.21254   -423.23704   -13859.992   -757.32972   -2416.3376    -38406.31    15.272625    13.226445    28.308245    5718.3375 
  133500      133.486    369.09297    15.171465   -438.38471   -423.21324   -12304.686    933.70291    -490.5315   -37357.229    15.272627    13.226447    28.308228    5718.3357 
  134000      133.986     347.2305    14.272815   -437.46232   -423.18951    -10752.32    1118.2287    2025.2841   -35400.474     15.27263    13.226449     28.30821    5718.3339 
  134500      134.486    364.49133    14.982316   -438.14837   -423.16606   -10964.557    1299.0885    1534.6605    -35727.42    15.272632    13.226451    28.308193    5718.3321 
  135000      134.986    352.25605    14.479389   -437.62147   -423.14208   -11725.511    1401.1672     31.96182   -36609.663    15.272634    13.226453    28.308175    5718.3304 
  135500      135.486     381.9034    15.698035    -438.8173   -423.11926   -11380.233    1773.6112   -3148.7136   -32765.596    15.272637    13.226455    28.308158    5718.3286 
  136000      135.986    364.41795      14.9793   -438.07492   -423.09562    -12377.72   -601.35936   -426.35559   -36105.446    15.272639    13.226458     28.30814    5718.3268 
  136500      136.486    375.00218    15.414362   -438.48613   -423.07177   -12410.423    2821.9245    -2145.236   -37907.958    15.272641     13.22646    28.308123    5718.3251 
  137000      136.986    387.51518    15.928705   -438.97686   -423.04815   -12089.196    2017.8421   -666.87055   -37618.558    15.272644    13.226462    28.308105    5718.3233 
  137500      137.486    381.63623    15.687053   -438.71176    -423.0247   -11501.194    780.21628    700.21875   -35984.016    15.272646    13.226464    28.308088    5718.3215 
  138000      137.986    366.91716    15.082029   -438.08176   -422.99973   -10535.435    642.22424    4198.2709     -36446.8    15.272649    13.226466     28.30807    5718.3198 
  138500      138.486    398.74767    16.390414   -439.36833   -422.97792   -11867.025     374.9674   -1093.6712   -34882.371    15.272651    13.226468    28.308053     5718.318 
  139000      138.986    351.77806    14.459741    -437.4125   -422.95276   -11032.445    602.37562    -825.6383   -32874.072    15.272653     13.22647    28.308035    5718.3162 
  139500      139.486    383.19265    15.751029   -438.68116   -422.93013   -13399.797   -30.780448   -1074.6933   -39093.918    15.272656    13.226472    28.308018    5718.3145 
  140000      139.986    375.95419    15.453494    -438.3594   -422.90591   -12077.254     237.4007    141.21917   -36610.381    15.272658    13.226474       28.308    5718.3127 
  140500      140.486    355.86987    14.627933   -437.50965   -422.88172   -11182.883    653.24885    1987.1364   -36189.036     15.27266    13.226476    28.307983    5718.3109 
  141000      140.986    371.25741    15.260434   -438.11797   -422.85753   -11406.167     1318.662    2435.6657    -37972.83    15.272663    13.226478    28.307965    5718.3092 
  141500      141.486    376.53608    15.477413   -438.31159   -422.83418   -11201.347    1341.9897   -1221.4043   -33724.626    15.272665     13.22648    28.307948    5718.3074 
  142000      141.986    353.57159    14.533463   -437.34323   -422.80977   -11341.456    3178.7409    709.52611   -37912.636    15.272667    13.226482     28.30793    5718.3056 
  142500      142.486    376.33083    15.468976   -438.25467   -422.78569   -12231.285   -549.05676    837.19551   -36981.994     15.27267    13.226484    28.307913    5718.3038 
  143000      142.986    372.93891    15.329552    -438.0916   -422.76205   -11796.749    1205.2278    2569.5973   -39165.071    15.272672    13.226486    28.307895    5718.3021 
  143500      143.486     363.7523    14.951939   -437.69026   -422.73832   -10475.689   -275.50049    2145.4336   -33297.001    15.272674    13.226488    28.307878    5718.3003 
  144000      143.986    377.92814    15.534633   -438.24929   -422.71466   -12902.237   -2494.1715   -753.37727   -35459.163    15.272677     13.22649     28.30786    5718.2985 
  144500      144.486    340.76325     14.00698    -436.6976   -422.69062   -11513.456    1220.7755   -407.78253   -35353.361    15.272679    13.226492    28.307843    5718.2968 
  145000      144.986    378.18159    15.545051   -438.21185    -422.6668   -11993.063    662.57656    594.12037   -37235.887    15.272681    13.226494    28.307825     5718.295 
  145500      145.486    375.76794    15.445838   -438.08852   -422.64268   -10494.629    2337.8595    624.00761   -34445.754    15.272684    13.226496    28.307808    5718.2932 
  146000      145.986    368.26669    15.137502   -437.75561   -422.61811   -11423.443   -512.47657    820.68047   -34578.533    15.272686    13.226499     28.30779    5718.2915 
  146500      146.486    353.74145    14.540445   -437.13469   -422.59425   -11713.002   -1414.1002   -41.258643   -33683.648    15.272688    13.226501    28.307773    5718.2897 
  147000      146.986    391.27681    16.083326   -438.65379   -422.57046   -11950.422    -62.22833    1877.4197   -37666.456    15.272691    13.226503    28.307755    5718.2879 
  147500      147.486    378.87546    15.573572   -438.12016   -422.54659   -12067.318   -388.53569    254.80555   -36068.223    15.272693    13.226505    28.307738    5718.2862 
  148000      147.986    388.29613    15.960806    -438.4834    -422.5226   -11101.403    1421.3569   -171.15518    -34554.41    15.272696    13.226507     28.30772    5718.2844 
  148500      148.486    380.59629    15.644306   -438.14254   -422.49823    -11901.48    656.05116    154.03012   -36514.521    15.272698    13.226509    28.307703    5718.2826 
  149000      148.986    370.94181    15.247461    -437.7214   -422.47394   -10901.174     4053.829    309.10503   -37066.457      15.2727    13.226511    28.307685    5718.2809 
  149500      149.486    398.24217    16.369635   -438.81986   -422.45022   -11277.833    1730.1429   -188.03701   -35375.604    15.272703    13.226513    28.307668    5718.2791 
  150000      149.986    377.23932    15.506319   -437.93142    -422.4251   -10776.714    2979.9876    988.72177   -36298.853    15.272705    13.226515     28.30765    5718.2773 
  150500      150.486    363.93959    14.959637   -437.36034   -422.40071   -10790.574    2638.0623     194.5921   -35204.376    15.272707    13.226517    28.307633    5718.2755 
  151000      150.986    417.71525    17.170071   -439.54711   -422.37704     -13047.7    906.40228   -1710.6519   -38338.852     15.27271    13.226519    28.307615    5718.2738 
  151500      151.486    357.96086    14.713883    -437.0658   -422.35191   -11782.623    3730.8541   -535.20868   -38543.515    15.272712    13.226521    28.307598     5718.272 
  152000      151.986     370.4563    15.227505   -437.55511   -422.32761   -11886.899    2122.7004   -1810.0428   -35973.356    15.272714    13.226523     28.30758    5718.2702 
  152500      152.486    359.19621    14.764662   -437.06732   -422.30265   -10920.452    1130.7402    736.89916   -34628.995    15.272717    13.226525    28.307563    5718.2685 
  153000      152.986    406.60306    16.713307   -438.99236   -422.27905   -12171.386    1250.8496    -933.2436   -36831.765    15.272719    13.226527    28.307545    5718.2667 
  153500      153.486    375.81239    15.447665   -437.70146   -422.25379   -11351.516    2510.7855   -2663.5344   -33901.799    15.272721    13.226529    28.307528    5718.2649 
  154000      153.986    345.46239    14.200137   -436.42929   -422.22916   -11059.627    1344.8008     148.2178   -34671.899    15.272724    13.226531     28.30751    5718.2632 
  154500      154.486    379.22441    15.587916   -437.79328   -422.20537   -12218.092    3108.3661   -1057.5719   -38705.069    15.272726    13.226533    28.307493    5718.2614 
  155000      154.986    395.99548    16.277286     -438.458   -422.18072   -11804.868    2224.3496   -1480.3099   -36158.643    15.272728    13.226535    28.307475    5718.2596 
  155500      155.486    381.99072    15.701624   -437.85786   -422.15624   -11152.253      1831.36   -497.52496   -34790.593    15.272731    13.226537    28.307458    5718.2579 
  156000      155.986     385.4269    15.842867   -437.97482   -422.13195   -11142.447    290.14542    263.05683   -33980.543    15.272733     13.22654     28.30744    5718.2561 
  156500      156.486    397.76889    16.350181   -438.45765   -422.10747   -10227.531    2117.2656    1128.2299   -33928.087    15.272735    13.226542    28.307423    5718.2543 
  157000      156.986    369.12951    15.172967     -437.255   -422.08204   -9425.2713    5664.7025   -102.17076   -33838.346    15.272738    13.226544    28.307405    5718.2525 
  157500      157.486    396.89748    16.314362   -438.37269   -422.05833   -11295.361   -78.338315   -1153.4588   -32654.287     15.27274    13.226546    28.307388    5718.2508 
  158000      157.986    384.88986    15.820792    -437.8538     -422.033   -11536.136    2556.4549    1316.3256   -38481.189    15.272743    13.226548     28.30737     5718.249 
  158500      158.486    378.56678    15.560884   -437.56888   -422.00799   -10687.541    150.74528    2807.3002   -35020.669    15.272745     13.22655    28.307353    5718.2472 
  159000      158.986    403.72447    16.594984    -438.5786   -421.98362   -11794.157    1979.5637   -162.61916   -37199.417    15.272747    13.226552    28.307335    5718.2455 
  159500      159.486    366.49737    15.064774   -437.02311   -421.95834   -10992.565    2556.1682   -1426.1361   -34107.728     15.27275    13.226554    28.307318    5718.2437 
  160000      159.986     380.5131    15.640887   -437.57475   -421.93387   -11150.835   -1904.2064    304.57926   -31852.877    15.272752    13.226556      28.3073    5718.2419 
  160500      160.486    373.77344    15.363855   -437.27245    -421.9086    -11017.17    1254.3085   -1045.4107   -33260.407    15.272754    13.226558    28.307283    5718.2402 
  161000      160.986     361.2746    14.850094   -436.73399    -421.8839    -11383.71    3957.7341    801.39599    -38910.26    15.272757     13.22656    28.307265    5718.2384 
  161500      161.486    390.05957    16.033292   -437.89286   -421.85957   -11147.912    1526.0085   -1765.0209   -33204.722    15.272759    13.226562    28.307248    5718.2366 
  162000      161.986    387.48874    15.927619   -437.76202    -421.8344   -11277.506    2926.3982   -2737.0071   -34021.908    15.272761    13.226564     28.30723    5718.2349 
  162500      162.486     413.7207    17.005876   -438.81599   -421.81011   -11797.963    218.06946     778.9665   -36390.925    15.272764    13.226566    28.307213    5718.2331 
  163000      162.986    399.79425    16.433433   -438.21776   -421.78433   -11363.341    1455.8048    954.38287   -36500.211    15.272766    13.226568    28.307195    5718.2313 
  163500      163.486    417.46392     17.15974   -438.91917   -421.75943   -11465.362    241.21704    2732.2387   -37369.543    15.272768     13.22657    28.307178    5718.2296 
  164000      163.986    359.16198    14.763255   -436.49707   -421.73381   -11042.366    2648.4622   -196.05954   -35579.501    15.272771    13.226572     28.30716    5718.2278 
  164500      164.486    388.23402    15.958253   -437.66777   -421.70952   -11858.103    140.92817    756.70927   -36471.948    15.272773    13.226574    28.307143     5718.226 
  165000      164.986    380.54845     15.64234   -437.32672   -421.68438   -11534.498    3890.1871    567.74519   -39061.427    15.272775    13.226576    28.307125    5718.2242 
  165500      165.486    403.52682     16.58686   -438.24617   -421.65931   -13012.811   -1222.2507   -1679.8937   -36136.288    15.272778    13.226578    28.307108    5718.2225 
  166000      165.986    358.56707    14.738801   -436.37207   -421.63327    -10227.43     646.0645   -211.66753   -31116.688     15.27278    13.226581     28.30709    5718.2207 
  166500      166.486    387.38244    15.923249   -437.53213   -421.60888   -11095.921    4328.1848   -1554.6783   -36061.269    15.272782    13.226583    28.307073    5718.2189 
  167000      166.986    388.05141    15.950747   -437.53497   -421.58422   -12189.268     3355.011   -1001.0659   -38921.748    15.272785    13.226585    28.307055    5718.2172 
  167500      167.486    389.58509    16.013788   -437.57225   -421.55846   -11696.824    2147.3051   -693.55065   -36544.227    15.272787    13.226587    28.307038    5718.2154 
  168000      167.986    388.12158    15.953631   -437.48673    -421.5331   -10388.963    3983.4751     853.0498   -36003.414     15.27279    13.226589     28.30702    5718.2136 
  168500      168.486    355.59694    14.616715   -436.12416   -421.50745   -11735.277    1994.1133      2589.82   -39789.764    15.272792    13.226591    28.307003    5718.2119 
  169000      168.986    397.94018    16.357222   -437.84003   -421.48281   -11219.379    1847.2339     2009.262   -37514.632    15.272794    13.226593    28.306985    5718.2101 
  169500      169.486    389.53892    16.011891   -437.46973   -421.45784   -11818.172    802.13951   -1267.8965    -34988.76    15.272797    13.226595    28.306968    5718.2083 
  170000      169.986    390.10495    16.035157   -437.46764   -421.43248   -11218.795    2379.8475    243.40807   -36279.641    15.272799    13.226597     28.30695    5718.2066 
  170500      170.486    396.04544     16.27934   -437.68685   -421.40751   -11994.718    1569.6853    1766.4931   -39320.331    15.272801    13.226599    28.306933    5718.2048 
  171000      170.986    417.51993    17.162043   -438.54458   -421.38253   -12192.847     417.9135   -82.187481   -36914.266    15.272804    13.226601    28.306915     5718.203 
  171500      171.486     404.2581    16.616918   -437.97327   -421.35635   -10844.717    1824.4419    481.40719   -34839.999    15.272806    13.226603    28.306898    5718.2012 
  172000      171.986    404.09404    16.610175   -437.94126   -421.33109   -11311.201    2741.6382   -287.52483   -36387.718    15.272808    13.226605     28.30688    5718.1995 
  172500      172.486    404.58221    16.630241   -437.93556   -421.30532   -10977.271    909.27832   -1646.7714   -32194.321    15.272811    13.226607    28.306863    5718.1977 
  173000      172.986    398.70359    16.388602   -437.66941   -421.28081   -10560.206    1466.1094    2088.2794   -35235.008    15.272813    13.226609    28.306845    5718.1959 
  173500      173.486    374.01749    15.373887   -436.62867   -421.25478   -10196.024    2895.6669    1781.4581   -35265.197    15.272815    13.226611    28.306828    5718.1942 
  174000      173.986    408.30171     16.78313   -438.01291   -421.22978   -11158.647   -1449.5122    1216.7877   -33243.217    15.272818    13.226613     28.30681    5718.1924 
  174500      174.486    391.37115    16.087204   -437.29128   -421.20407   -11495.388    229.32855   -1.8122466    -34713.68     15.27282    13.226615    28.306793    5718.1906 
  175000      174.986    388.44352    15.966864   -437.14513   -421.17827   -10994.626    2287.2199   -138.93004   -35132.167    15.272822    13.226617    28.306775    5718.1889 
  175500      175.486     369.5484    15.190186   -436.34223   -421.15204   -10440.259    3403.4072    75.871256   -34800.056    15.272825    13.226619    28.306758    5718.1871 
  176000      175.986    413.43715    16.994221   -438.12137   -421.12715   -11319.803    2209.4912    1559.1947   -37728.095    15.272827    13.226622     28.30674    5718.1853 
  176500      176.486    408.89507     16.80752   -437.90917   -421.10165   -12246.398   -633.80039   -3919.1343    -32186.26    15.272829    13.226624    28.306723    5718.1836 
  177000      176.986    390.77746      16.0628   -437.13783   -421.07503   -11056.248    1627.6654    -680.5404    -34115.87    15.272832    13.226626    28.306705    5718.1818 
  177500      177.486    386.64821    15.893069   -436.94239   -421.04932     -10505.3    3019.8622    759.05557   -35294.816    15.272834    13.226628    28.306688      5718.18 
  178000      177.986    392.09329    16.116887   -437.14153   -421.02465    -11435.73   -222.63046    1996.7406     -36081.3    15.272837     13.22663     28.30667    5718.1783 
  178500      178.486    392.60679    16.137995   -437.13598   -420.99799   -11192.123    3572.1116   -186.74102   -36961.739    15.272839    13.226632    28.306653    5718.1765 
  179000      178.986    404.41804    16.623493   -437.59555   -420.97206   -10579.961     5006.598    1617.6137   -38364.093    15.272841    13.226634    28.306635    5718.1747 
  179500      179.486    382.80496    15.735093   -436.68127   -420.94617   -10765.115     1798.426    3890.9518   -37984.723    15.272844    13.226636    28.306618    5718.1729 
  180000      179.986    415.17606    17.065698   -437.98667   -420.92098   -11484.842     1700.622   -1867.5715   -34287.576    15.272846    13.226638      28.3066    5718.1712 
  180500      180.486      406.044    16.690328    -437.5846   -420.89427   -11221.864    3510.4899    103.94275   -37280.024    15.272848     13.22664    28.306583    5718.1694 
  181000      180.986    401.52666    16.504643     -437.373   -420.86836   -10656.228     2188.339    905.41495   -35062.437    15.272851    13.226642    28.306565    5718.1676 
  181500      181.486    425.41286    17.486479   -438.32995   -420.84347   -11233.905    2933.0065   -1409.1702   -35225.552    15.272853    13.226644    28.306548    5718.1659 
  182000      181.986     416.0029    17.099685   -437.91675   -420.81706   -12310.882    796.54203    1351.0622    -39080.25    15.272855    13.226646     28.30653    5718.1641 
  182500      182.486    419.08511    17.226379    -438.0172   -420.79083   -11660.966   -48.247768   -1000.4349   -33934.215    15.272858    13.226648    28.306513    5718.1623 
  183000      182.986    406.25487    16.698995   -437.46368   -420.76468    -10975.93     2853.726     214.9726   -35996.489     15.27286     13.22665    28.306495    5718.1606 
  183500      183.486    383.83333    15.777364   -436.51598   -420.73861   -11192.593    1717.6485    281.40488   -35576.831    15.272862    13.226652    28.306478    5718.1588 
  184000      183.986    415.46203    17.077453   -437.79047   -420.71302   -11488.052    758.68137    1286.0581   -36508.895    15.272865    13.226654     28.30646     5718.157 
  184500      184.486     418.1802    17.189183   -437.87581   -420.68662   -9998.3103    2952.8301     1501.884   -34449.645    15.272867    13.226656    28.306443    5718.1553 
  185000      184.986    385.08188    15.828685   -436.48936   -420.66068   -11089.943   -247.87423    2118.5369    -35140.49    15.272869    13.226658    28.306425    5718.1535 
  185500      185.486    409.67743    16.839679   -437.47496   -420.63528   -11228.862   -955.06572    1305.1571   -34036.677    15.272872     13.22666    28.306408    5718.1517 
  186000      185.986     398.4904    16.379839   -436.98841   -420.60857   -9936.5291    2779.9775    2096.3987   -34685.964    15.272874    13.226663     28.30639    5718.1499 
  186500      186.486    415.15954    17.065019   -437.64755   -420.58253   -10929.018    1773.7078    -1197.668   -33363.095    15.272876    13.226665    28.306373    5718.1482 
  187000      186.986    415.21154    17.067157    -437.6242   -420.55704   -10552.149      1827.24    2553.7866   -36037.474    15.272879    13.226667    28.306355    5718.1464 
  187500      187.486    402.58978    16.548343   -437.07917   -420.53082   -9891.8886    3820.8647    2440.3479   -35936.878    15.272881    13.226669    28.306338    5718.1446 
  188000      187.986       395.86    16.271717   -436.77562   -420.50391   -11741.846    2503.8846   -2885.5869   -34843.836    15.272884    13.226671     28.30632    5718.1429 
  188500      188.486     414.5193    17.038702    -437.5169    -420.4782   -10962.794    2068.4081    1024.6015   -35981.392    15.272886    13.226673    28.306303    5718.1411 
  189000      188.986    412.24653    16.945281   -437.39724   -420.45196    -10391.85    2531.0607    4262.1677   -37968.777    15.272888    13.226675    28.306285    5718.1393 
  189500      189.486    401.02523    16.484032   -436.90882   -420.42478   -12084.055   -178.72344   -696.84755   -35376.593    15.272891    13.226677    28.306268    5718.1376 
  190000      189.986    427.81834    17.585356   -437.98461   -420.39925   -11153.969    980.11163    112.33316    -34554.35    15.272893    13.226679     28.30625    5718.1358 
  190500      190.486    393.40749    16.170907   -436.54313   -420.37223   -10318.633    1291.2248    4156.4617   -36403.586    15.272895    13.226681    28.306233     5718.134 
  191000      190.986    382.84865    15.736889   -436.08332   -420.34644    -11702.13   -420.11445    3357.5695   -38043.846    15.272898    13.226683    28.306215    5718.1323 
  191500      191.486    396.19595    16.285526   -436.60523   -420.31971   -9808.5641    1738.6564    2628.2797   -33792.628      15.2729    13.226685    28.306198    5718.1305 
  192000      191.986    387.38964    15.923545   -436.21687   -420.29332   -10535.375    665.19867    3573.0516   -35844.375    15.272902    13.226687     28.30618    5718.1287 
  192500      192.486    407.37841    16.745178   -437.01276   -420.26758   -9977.3452    2802.6414    626.33606   -33361.013    15.272905    13.226689    28.306163    5718.1269 
  193000      192.986    408.78111    16.802836   -437.04379   -420.24096   -9799.3181    3352.2927     686.9097   -33437.157    15.272907    13.226691    28.306145    5718.1252 
  193500      193.486    426.01319    17.511156   -437.72594   -420.21478   -11173.749    2884.1456    1105.1043   -37510.498    15.272909    13.226693    28.306128    5718.1234 
  194000      193.986    404.18057    16.613732   -436.80211   -420.18838   -10955.657     3044.422    1526.1482   -37437.542    15.272912    13.226695     28.30611    5718.1216 
  194500      194.486    418.08351    17.185208   -437.34661    -420.1614    -11143.47      1729.51    1916.4757   -37076.396    15.272914    13.226697    28.306093    5718.1199 
  195000      194.986    398.74519    16.390312   -436.52485   -420.13454   -10488.651    4025.2432    1044.9917   -36536.188    15.272916    13.226699    28.306075    5718.1181 
  195500      195.486    426.45575    17.529347   -437.63784   -420.10849   -9603.6578     2971.939    2283.0944   -34066.007    15.272919    13.226701    28.306058    5718.1163 
  196000      195.986    396.63071    16.303397   -436.38428   -420.08088   -10389.171    4686.4047   -933.36671    -34920.55    15.272921    13.226704     28.30604    5718.1146 
  196500      196.486    427.51263     17.57279   -437.62795   -420.05516   -12404.696     1881.585   -740.25548   -38355.417    15.272923    13.226706    28.306023    5718.1128 
  197000      196.986    420.40796    17.280754   -437.30893   -420.02817   -10915.561    4458.6329   -3905.7932   -33299.522    15.272926    13.226708    28.306005     5718.111 
  197500      197.486    395.21111    16.245045   -436.24645   -420.00141   -9357.0221    2673.0105    3662.0266   -34406.103    15.272928     13.22671    28.305988    5718.1093 
  198000      197.986    416.10173    17.103748   -437.07904   -419.97529   -12182.096   -1716.5107    956.29572   -35786.074    15.272931    13.226712     28.30597    5718.1075 
  198500      198.486    427.37373     17.56708   -437.51588    -419.9488    -11149.33    939.35242    3042.5736   -37429.917    15.272933    13.226714    28.305953    5718.1057 
  199000      198.986    424.90168    17.465467   -437.38727   -419.92181   -11552.925    3808.3725   -65.276884    -38401.87    15.272935    13.226716    28.305935    5718.1039 
  199500      199.486    406.57858    16.712301   -436.60726   -419.89496   -10239.121    2113.0699    2651.2936   -35481.727    15.272938    13.226718    28.305918    5718.1022 
  200000      199.986    432.34362    17.771366   -437.64041   -419.86904   -9770.0535    2290.6857    4635.6654   -36236.512     15.27294     13.22672      28.3059    5718.1004 
  200500      200.486    433.87924    17.834487    -437.6763   -419.84182   -10591.694    775.66816    1364.6971   -33915.447    15.272942    13.226722    28.305883    5718.0986 
  201000      200.986    428.67556    17.620592   -437.43553   -419.81494   -11413.087    1022.6156   -1299.3768   -33962.501    15.272945    13.226724    28.305865    5718.0969 
  201500      201.486     409.6146    16.837096   -436.62596   -419.78886   -10147.374    4192.4781   -59.792377   -34574.809    15.272947    13.226726    28.305848    5718.0951 
  202000      201.986    390.74903    16.061632   -435.82297   -419.76134   -9454.4055    5187.8161    1378.3233   -34929.356    15.272949    13.226728     28.30583    5718.0933 
  202500      202.486    411.50265    16.914704   -436.64924   -419.73453   -9921.1633    3537.6206    2287.1474   -35588.258    15.272952     13.22673    28.305813    5718.0916 
  203000      202.986    417.10128    17.144834   -436.85261   -419.70778   -11271.257    3695.5683    190.37685   -37699.717    15.272954    13.226732    28.305795    5718.0898 
  203500      203.486    422.47814    17.365848   -437.04781   -419.68196   -11304.485    2511.2122   -1467.1461    -34957.52    15.272956    13.226734    28.305778     5718.088 
  204000      203.986    423.80151    17.420245   -437.07505   -419.65481   -9437.3566    6182.1196   -1260.0594    -33234.13    15.272959    13.226736     28.30576    5718.0863 
  204500      204.486    417.89205    17.177338   -436.80518   -419.62784    -9880.806    2505.2352    788.06799   -32935.721    15.272961    13.226738    28.305743    5718.0845 
  205000      204.986    430.15437    17.681377   -437.28245   -419.60107   -11648.975   -809.90116    106.80345   -34243.828    15.272963     13.22674    28.305725    5718.0827 
  205500      205.486    419.38095    17.238539   -436.81248   -419.57395   -10713.618    1373.8544    3481.3341   -36996.041    15.272966    13.226742    28.305708     5718.081 
  206000      205.986    400.64721    16.468494   -436.01483   -419.54634   -9171.4433    2766.7198    1851.5644   -32132.614    15.272968    13.226745     28.30569    5718.0792 
  206500      206.486    417.22545    17.149938   -436.67051   -419.52057   -9036.2329    3781.5551     2276.449   -33166.703     15.27297    13.226747    28.305673    5718.0774 
  207000      206.986    408.99795    16.811749   -436.30442   -419.49268   -9979.6676    2159.6137    2974.5925   -35073.209    15.272973    13.226749    28.305655    5718.0756 
  207500      207.486    401.23256    16.492554   -435.95813   -419.46557    -10519.43   -2202.0327    6753.1159   -36109.374    15.272975    13.226751    28.305638    5718.0739 
  208000      207.986    421.13961    17.310828   -436.74996   -419.43913   -10160.688     2752.784    -470.8107   -32764.039    15.272978    13.226753     28.30562    5718.0721 
  208500      208.486    420.90066    17.301006   -436.71295   -419.41194   -9243.3534    3361.3599    1249.1024   -32340.523     15.27298    13.226755    28.305603    5718.0703 
  209000      208.986    406.15622     16.69494   -436.07912   -419.38418    -9753.381    3309.9873    2086.5071   -34656.637    15.272982    13.226757    28.305585    5718.0686 
  209500      209.486    409.20981    16.820457   -436.17794   -419.35748   -9814.2396    4910.4995    4298.1676   -38651.386    15.272985    13.226759    28.305568    5718.0668 
  210000      209.986    395.16512    16.243154   -435.57358   -419.33043    -9808.429    4032.7586    2764.2961   -36222.342    15.272987    13.226761     28.30555     5718.065 
  210500      210.486    423.47464    17.406809   -436.71001    -419.3032   -9530.4843    4947.5005     1323.525   -34862.478    15.272989    13.226763    28.305533    5718.0633 
  211000      210.986    423.08836    17.390931   -436.66757   -419.27664   -10421.517    1733.4345    461.65335    -33459.64    15.272992    13.226765    28.305515    5718.0615 
  211500      211.486    429.16879    17.640866   -436.89041   -419.24954    -11087.74    3381.1555    2247.2436   -38891.619    15.272994    13.226767    28.305498    5718.0597 
  212000      211.986    429.90668    17.671196   -436.89364   -419.22245   -11410.606    1607.3874    528.25413    -36367.46    15.272996    13.226769     28.30548     5718.058 
[...]
  948500      948.486    594.04094     24.41789   -432.26825   -407.85036   -5428.1047    6166.6016    6543.4135   -28994.329    15.276458    13.229789    28.279703    5715.4499 
  949000      948.986    586.06803    24.090166   -431.93869   -407.84852   -5117.5442    7039.4155    7675.5359   -30067.584     15.27646    13.229791    28.279685    5715.4481 
  949500      949.486    603.10198    24.790342   -432.63625   -407.84591   -6285.8733    6017.6421    5432.7617   -30308.024    15.276463    13.229793    28.279668    5715.4464 
  950000      949.986    564.77575    23.214952   -431.05613   -407.84118   -3696.6596    11751.533     6287.942   -29129.454    15.276465    13.229795     28.27965    5715.4446 
  950500      950.486    578.80081    23.791449   -431.62828   -407.83683   -3939.8915    8035.5204    4009.7352    -23864.93    15.276467    13.229797    28.279633    5715.4428 
  951000      950.986    588.20948     24.17819   -432.01194   -407.83375   -4753.7121    8799.4168    7068.3369    -30128.89     15.27647    13.229799    28.279615     5715.441 
  951500      951.486    577.73906    23.747806   -431.57711    -407.8293   -5701.7231     8295.045    6421.2873   -31821.502    15.276472    13.229801    28.279598    5715.4393 
  952000      951.986    598.17023    24.587624   -432.41344   -407.82581   -4878.5207    9462.3912    4220.6041   -28318.557    15.276474    13.229803     28.27958    5715.4375 
  952500      952.486    561.89491    23.096537   -430.91774   -407.82121   -4856.8156    8829.1877     7743.534   -31143.168    15.276477    13.229805    28.279563    5715.4357 
  953000      952.986    548.45861    22.544241   -430.36123   -407.81699   -6206.7752    721.38499    8247.1074   -27588.818    15.276479    13.229807    28.279545    5715.4339 
  953500      953.486    590.65599    24.278753   -432.09273   -407.81397   -6535.3139    3286.8918    6904.7201   -29797.554    15.276481    13.229809    28.279528    5715.4322 
  954000      953.986    557.63597    22.921474   -430.73144   -407.80997   -4404.9651    5474.8176    9658.8116   -28348.524    15.276484    13.229811     28.27951    5715.4304 
  954500      954.486    574.24018    23.603985   -431.40943   -407.80545   -5456.1453    8127.2236    5417.1423   -29912.802    15.276486    13.229813    28.279493    5715.4286 
  955000      954.986    545.29108    22.414041   -430.21452   -407.80048   -4804.3318    8626.6125    6365.1277   -29404.736    15.276488    13.229815    28.279475    5715.4269 
  955500      955.486    587.80649    24.161625   -431.95915   -407.79752   -6252.2521    6069.2329    3388.7364   -28214.725    15.276491    13.229817    28.279458    5715.4251 
  956000      955.986    542.58231    22.302697   -430.09627   -407.79357   -4869.3796    5178.0281    5811.6709   -25597.838    15.276493     13.22982     28.27944    5715.4233 
  956500      956.486    573.39332    23.569175   -431.36022   -407.79104   -5322.2223    8814.5544    2857.1545   -27638.376    15.276495    13.229822    28.279423    5715.4215 
  957000      956.986    569.44862     23.40703   -431.19427   -407.78724    -5606.549    7178.3255    5224.0677    -29222.04    15.276498    13.229824    28.279405    5715.4198 
  957500      957.486    597.70919    24.568673   -432.35221   -407.78354   -6776.8742     2775.462    6259.2034   -29365.288      15.2765    13.229826    28.279388     5715.418 
  958000      957.986    600.52315     24.68434   -432.46384    -407.7795   -6241.0717     5460.896    4406.9789    -28591.09    15.276503    13.229828     28.27937    5715.4162 
  958500      958.486    557.16408    22.902077   -430.67736   -407.77528   -6062.4053     7495.513    3735.8122   -29418.541    15.276505     13.22983    28.279353    5715.4145 
  959000      958.986    548.18727    22.533088   -430.30186   -407.76877   -5748.7267    7082.7123     1284.126   -25613.018    15.276507    13.229832    28.279335    5715.4127 
  959500      959.486    574.06694    23.596864   -431.36182   -407.76495   -5101.9763    8078.9493    5151.2815    -28536.16     15.27651    13.229834    28.279318    5715.4109 
  960000      959.986    585.77295    24.078037   -431.83688   -407.75884   -5583.8931    6313.2503    6371.8801    -29436.81    15.276512    13.229836      28.2793    5715.4091 
  960500      960.486    571.51341    23.491902   -431.24726   -407.75536   -4127.0566    7767.8575    6752.6037   -26901.631    15.276514    13.229838    28.279283    5715.4074 
  961000      960.986    578.13521    23.764089   -431.51543   -407.75135    -5138.795    8009.3695    7125.0563   -30550.811    15.276517     13.22984    28.279265    5715.4056 
  961500      961.486    574.54764    23.616623   -431.36232    -407.7457   -4974.0391    11992.547    5332.1148   -32246.779    15.276519    13.229842    28.279248    5715.4038 
  962000      961.986    562.46133    23.119819   -430.85929   -407.73947   -5995.1356    8049.9283    6740.5484   -32775.884    15.276521    13.229844     28.27923    5715.4021 
  962500      962.486    560.18931    23.026428   -430.76044   -407.73401   -5804.3915    7459.9031    5236.6211   -30109.699    15.276524    13.229846    28.279213    5715.4003 
  963000      962.986    564.25648    23.193608    -430.9211   -407.72749   -4628.3753    6554.9028    5227.6571   -25667.686    15.276526    13.229848    28.279195    5715.3985 
  963500      963.486     590.2802    24.263306   -431.98576   -407.72245   -6415.8089    4586.2078    5205.0989   -29038.733    15.276528     13.22985    28.279178    5715.3967 
  964000      963.986    559.43534    22.995437   -430.71161   -407.71618   -4345.3246    6090.7656    4621.3758   -23748.115    15.276531    13.229852     28.27916     5715.395 
  964500      964.486    571.51941    23.492149   -431.20326   -407.71111   -5336.4858    6931.6843    8063.1856   -31004.327    15.276533    13.229854    28.279143    5715.3932 
  965000      964.986    575.34933    23.649577   -431.35558     -407.706   -4605.7867    8405.5004    7654.6074   -29877.468    15.276535    13.229856    28.279125    5715.3914 
  965500      965.486    576.92128    23.714191   -431.41402   -407.69983   -7396.2437    5822.7916    3562.3559   -31573.879    15.276538    13.229858    28.279108    5715.3896 
  966000      965.986    586.27093    24.098506   -431.79306   -407.69456   -5356.6695    5346.7522    8269.8172   -29686.578     15.27654    13.229861     28.27909    5715.3879 
  966500      966.486    592.04501    24.335848   -432.02498   -407.68913   -5516.2215    7190.0618    7729.0572   -31467.784    15.276542    13.229863    28.279073    5715.3861 
  967000      966.986    595.18738    24.465014   -432.14793   -407.68292   -5707.7731    5994.5002    3794.3454   -26912.165    15.276545    13.229865    28.279055    5715.3843 
  967500      967.486     586.3664     24.10243   -431.77877   -407.67634   -5851.0781    6004.1726    8088.8317   -31646.239    15.276547    13.229867    28.279038    5715.3826 
  968000      967.986    553.08268    22.734312   -430.40641    -407.6721   -6471.7512    5895.1842    5263.1764   -30573.614     15.27655    13.229869     28.27902    5715.3808 
  968500      968.486    564.99878     23.22412   -430.89059   -407.66647    -5151.078    3593.1109    7116.4059   -26162.751    15.276552    13.229871    28.279003     5715.379 
  969000      968.986    546.74257    22.473703   -430.13403   -407.66033   -5983.0794    4429.0384    6597.8173   -28976.094    15.276554    13.229873    28.278985    5715.3772 
  969500      969.486    580.94537      23.8796   -431.53422   -407.65462   -4665.8304    6863.0677    6372.9711    -27233.53    15.276557    13.229875    28.278968    5715.3755 
  970000      969.986    558.32281    22.949706   -430.59873   -407.64903   -5371.2149    4213.7551     8259.908   -28587.308    15.276559    13.229877     28.27895    5715.3737 
  970500      970.486    596.27454    24.509702   -432.15361   -407.64391   -6293.9571    5273.0024    3164.0811   -27318.955    15.276561    13.229879    28.278933    5715.3719 
  971000      970.986     608.1513    24.997892   -432.63677   -407.63888   -7386.5641    6156.8497    7197.8481    -35514.39    15.276564    13.229881    28.278915    5715.3702 
  971500      971.486    551.57839    22.672479   -430.30407   -407.63159   -4012.6787    7876.7156     9856.178    -29770.93    15.276566    13.229883    28.278898    5715.3684 
  972000      971.986     593.3955    24.391359   -432.01783   -407.62647   -5155.3803    5076.4207    5214.2918   -25756.853    15.276568    13.229885     28.27888    5715.3666 
  972500      972.486    563.99522    23.182869   -430.80231   -407.61944   -4999.1761    8563.3404    6290.0841   -29850.953    15.276571    13.229887    28.278863    5715.3648 
  973000      972.986     564.4967    23.203482   -430.81678    -407.6133   -5095.8761    9256.6638    7545.4834   -32089.776    15.276573    13.229889    28.278845    5715.3631 
  973500      973.486    553.57429    22.754519   -430.36028   -407.60576   -4523.3542    7175.3827    8046.1826   -28791.628    15.276575    13.229891    28.278828    5715.3613 
  974000      973.986    573.26624    23.563952   -431.16215    -407.5982   -5769.4084    6019.4579    5581.7762   -28909.459    15.276578    13.229893     28.27881    5715.3595 
  974500      974.486    572.41894    23.529124   -431.12104   -407.59191   -4144.7737    9857.5991    4153.2556   -26445.176     15.27658    13.229895    28.278793    5715.3578 
  975000      974.986     543.3701    22.335079   -429.92003   -407.58495    -4202.751    6882.2087    7435.4197   -26925.881    15.276582    13.229897    28.278775     5715.356 
  975500      975.486    574.44837    23.612543   -431.19207   -407.57952   -4128.7824    8572.0529    7060.7115   -28019.112    15.276585    13.229899    28.278758    5715.3542 
  976000      975.986    576.17388     23.68347   -431.25619   -407.57272   -5484.5758    6969.7956    2655.4215   -26078.945    15.276587    13.229902     28.27874    5715.3524 
  976500      976.486    537.51077    22.094233   -429.66037   -407.56614   -3841.7595    12007.505    4046.2904   -27579.074    15.276589    13.229904    28.278723    5715.3507 
  977000      976.986    599.20139    24.630009   -432.19147   -407.56146    -6152.191    7816.8387    6903.5061   -33176.918    15.276592    13.229906    28.278705    5715.3489 
  977500      977.486    594.59852    24.440809   -431.99455   -407.55374   -6299.8513    4122.0897    8040.4655   -31062.109    15.276594    13.229908    28.278688    5715.3471 
  978000      977.986    591.55741    24.315805   -431.86303   -407.54722   -5958.2907    4890.5202     6650.617   -29416.009    15.276597     13.22991     28.27867    5715.3453 
  978500      978.486    559.03907    22.979148   -430.51804   -407.53889   -5906.2001    3508.4125    6260.5684   -27487.581    15.276599    13.229912    28.278653    5715.3436 
  979000      978.986    562.62919    23.126719   -430.65807   -407.53135   -4787.1993    5645.2994    7562.6808   -27569.578    15.276601    13.229914    28.278635    5715.3418 
  979500      979.486    578.56017    23.781557   -431.30628   -407.52472   -4350.7074    9616.5548    7555.5237   -30224.201    15.276604    13.229916    28.278618      5715.34 
  980000      979.986    577.04666    23.719345   -431.23617   -407.51683   -5284.4499     8249.331     8030.894   -32133.575    15.276606    13.229918      28.2786    5715.3383 
  980500      980.486    569.28847    23.400446   -430.91024   -407.50979   -5916.2326    3558.0156    6323.0532   -27629.766    15.276608     13.22992    28.278583    5715.3365 
  981000      980.986    553.58534    22.754974    -430.2574   -407.50243   -4720.1371    8381.3524    3002.6308   -25544.394    15.276611    13.229922    28.278565    5715.3347 
  981500      981.486    591.51065    24.313883   -431.81029   -407.49641   -5270.1038    7292.5297    6534.5765   -29637.418    15.276613    13.229924    28.278548    5715.3329 
  982000      981.986    555.55052    22.835752    -430.3231   -407.48735   -5308.7947    7328.8737    3310.6073   -26565.865    15.276615    13.229926     28.27853    5715.3312 
  982500      982.486    575.91642    23.672887   -431.15284   -407.47996   -6120.7342    9124.5477    1971.6098    -29458.36    15.276618    13.229928    28.278513    5715.3294 
  983000      982.986    574.47637    23.613694   -431.08522   -407.47152   -4999.9722    14279.462    416.15413   -29695.532     15.27662     13.22993    28.278495    5715.3276 
  983500      983.486    599.62335    24.647353   -432.11265    -407.4653   -4945.8692    12624.478    892.67377    -28354.76    15.276622    13.229932    28.278478    5715.3259 
  984000      983.986    559.12592    22.982718   -430.43977   -407.45705   -5093.3915    12693.403    2126.8941   -30100.471    15.276625    13.229934     28.27846    5715.3241 
  984500      984.486    571.54191    23.493074   -430.94185   -407.44878   -6211.3122    8685.9275    3670.1994   -30990.063    15.276627    13.229936    28.278443    5715.3223 
  985000      984.986    546.21561    22.452043   -429.89377   -407.44172   -4977.5774    10221.987    4180.3755   -29335.095    15.276629    13.229938    28.278425    5715.3205 
  985500      985.486    574.26863    23.605155   -431.03954   -407.43439   -6169.1879    12639.521   -2606.9449    -28540.14    15.276632     13.22994    28.278408    5715.3188 
  986000      985.986    581.82812    23.915885   -431.34185   -407.42596   -5337.5152    13277.792   -511.01434   -28779.324    15.276634    13.229943     28.27839     5715.317 
  986500      986.486    545.79631    22.434808   -429.85211    -407.4173   -5438.1054    7961.9707    3990.8817   -28267.169    15.276636    13.229945    28.278373    5715.3152 
  987000      986.986    573.92401    23.590989   -431.00116   -407.41017   -5224.9547    9252.5712    4687.1545    -29614.59    15.276639    13.229947    28.278355    5715.3134 
  987500      987.486    569.86535    23.424159    -430.8262   -407.40204   -4176.3055    10026.511    2816.0859   -25371.514    15.276641    13.229949    28.278338    5715.3117 
  988000      987.986    563.44024    23.160057   -430.55466    -407.3946    -5560.847    10289.331    1745.8133   -28717.685    15.276644    13.229951     28.27832    5715.3099 
  988500      988.486    581.21243    23.890578   -431.27712   -407.38654   -5100.7441    11646.526   -3455.4447   -23493.314    15.276646    13.229953    28.278303    5715.3081 
  989000      988.986    584.73014    24.035172   -431.41337   -407.37819   -6219.2471     11197.18    5046.4651   -34901.386    15.276648    13.229955    28.278285    5715.3064 
  989500      989.486    583.09794    23.968081    -431.3377   -407.36962    -4853.401    12771.788    263.78863   -27595.779    15.276651    13.229957    28.278268    5715.3046 
  990000      989.986    524.03397    21.540273   -428.90017   -407.35989   -4017.6009    14495.074    1825.0445   -28372.921    15.276653    13.229959     28.27825    5715.3028 
  990500      990.486    579.65227    23.826448   -431.17855    -407.3521   -5853.7884    11194.255    1471.2441   -30226.865    15.276655    13.229961    28.278233     5715.301 
  991000      990.986     573.5926    23.577367   -430.91963   -407.34227   -4429.9223    11880.252    1972.8835   -27142.902    15.276658    13.229963    28.278215    5715.2993 
  991500      991.486     571.9547    23.510041   -430.84388   -407.33383   -5640.8261     9606.151    419.21728   -26947.847     15.27666    13.229965    28.278198    5715.2975 
  992000      991.986    562.31108    23.113643   -430.43819   -407.32455   -5207.0975    10759.637    534.87352   -26915.803    15.276662    13.229967     28.27818    5715.2957 
  992500      992.486    581.64406     23.90832   -431.22443   -407.31611   -5633.5659    10769.513   -48.737973   -27621.473    15.276665    13.229969    28.278163     5715.294 
  993000      992.986    550.12264     22.61264   -429.91904    -407.3064   -5558.0344    9339.3278    2962.3045   -28975.736    15.276667    13.229971    28.278145    5715.2922 
  993500      993.486    563.86413    23.177481   -430.47557   -407.29809   -4059.4905    15093.972    522.71127   -27795.154    15.276669    13.229973    28.278128    5715.2904 
  994000      993.986     617.2114    25.370306   -432.66075   -407.29044   -4764.3612    11437.359    3309.5197   -29039.962    15.276672    13.229975     28.27811    5715.2886 
  994500      994.486    616.43755    25.338497   -432.61843   -407.27993    -6866.183    10068.767    1737.9576   -32405.274    15.276674    13.229977    28.278093    5715.2869 
  995000      994.986    579.84151    23.834227   -431.10607   -407.27184   -4693.6452    8874.0521    5853.1069   -28808.095    15.276676    13.229979    28.278075    5715.2851 
  995500      995.486    558.14716    22.942486   -430.20373   -407.26125   -4437.7275    13506.016     -1386.54   -25432.658    15.276679    13.229981    28.278058    5715.2833 
  996000      995.986    561.04384    23.061553   -430.31385    -407.2523   -4793.4363    10657.364    2254.6504   -27292.324    15.276681    13.229984     28.27804    5715.2815 
  996500      996.486    560.27559    23.029975   -430.27303   -407.24306   -2437.4067    17007.953    3672.6359   -27992.809    15.276683    13.229986    28.278023    5715.2798 
  997000      996.986    579.97577    23.839745   -431.07195   -407.23221   -4923.4766    10312.361    865.81735   -25948.608    15.276686    13.229988    28.278005     5715.278 
  997500      997.486     572.4669    23.531095   -430.75304   -407.22194   -4917.8791    10176.242    3118.3858   -28048.265    15.276688     13.22999    28.277988    5715.2762 
  998000      997.986    591.51608    24.314106   -431.52668   -407.21258   -5765.4163    13874.403    1313.8672   -32484.519    15.276691    13.229992     28.27797    5715.2745 
  998500      998.486    560.16563    23.025455    -430.2287   -407.20325   -4932.1948    11425.694    598.43091    -26820.71    15.276693    13.229994    28.277953    5715.2727 
  999000      998.986    588.60203    24.194325   -431.38837   -407.19404   -3992.4679    13231.626    3665.1095   -28874.139    15.276695    13.229996    28.277935    5715.2709 
  999500      999.486    582.70269    23.951834   -431.13631   -407.18447    -4885.217    11416.842    4259.2822   -30331.775    15.276698    13.229998    28.277918    5715.2691 
 1000000      999.986    594.35715    24.430888   -431.60563   -407.17475   -6342.7613    9788.2379    924.37611   -29740.898      15.2767        13.23      28.2779    5715.2674 
 1000014         1000    564.89145    23.219708   -430.39299   -407.17329   -5686.4833    11305.518    2732.8854   -31097.853      15.2767        13.23      28.2779    5715.2673 
Loop time of 873.486 on 28 procs for 1000000 steps with 319 atoms

Performance: 98.914 ns/day, 0.243 hours/ns, 1144.839 timesteps/s
86.7% CPU use with 28 MPI tasks x no OpenMP threads

MPI task timing breakdown:
Section |  min time  |  avg time  |  max time  |%varavg| %total
---------------------------------------------------------------
Pair    | 728.99     | 763        | 787.15     |  55.1 | 87.35
Neigh   | 0.033792   | 0.049134   | 0.065991   |   3.9 |  0.01
Comm    | 73.397     | 97.132     | 128.41     | 147.9 | 11.12
Output  | 0.10183    | 0.10455    | 0.12901    |   1.5 |  0.01
Modify  | 5.33       | 8.0369     | 10.629     |  44.3 |  0.92
Other   |            | 5.16       |            |       |  0.59

Nlocal:    11.3929 ave 17 max 6 min
Histogram: 1 4 2 3 5 3 5 2 0 3
Nghost:    646.536 ave 698 max 592 min
Histogram: 2 4 4 1 5 0 1 2 5 4
Neighs:    693.786 ave 1115 max 350 min
Histogram: 1 4 3 4 5 5 2 3 0 1
FullNghs:  1387.57 ave 2132 max 729 min
Histogram: 1 4 2 3 6 2 7 0 2 1

Total # of neighbors = 38852
Ave neighs/atom = 121.793
Neighbor list builds = 721
Dangerous builds = 0

write_restart   POSCAR_1x1x1.rest

#unfix    1
#undump   1
Total wall time: 0:14:33
