LAMMPS (7 Dec 2015)
#----------- Initialize Simulation ------------ restart01
#processors	2 2 2
units		metal
boundary	p p p     ## periodic boundary condition  on x y z axis ##
atom_style atomic
#atom_modify map array sort 0 0.0

read_data	POSCAR_1x1x1.lammps
  triclinic box = (0 0 0) to (15.2197 13.1806 28.6978) with tilt (-7.60973 0 0)
  2 by 2 by 7 MPI processor grid
  reading atoms ...
  319 atoms

#----------- Define Potential -----------------
pair_style meam
pair_coeff * * MgAlZn.library.meam Mg Al Zn MgAlZn.parameter.meam Mg Al Zn 	#1=Mg 2=Al 3=Zn	#atoms/mass

#----------- Neighbor List --------------------
neighbor 2.0 bin
neigh_modify delay 10 check yes

#--------------  Run a simulation (minimization) ---------------------------------------
minimize       1.0e-4   1.0e-6   100   1000          #結構優化的條件
WARNING: Resetting reneighboring criteria during minimization (../min.cpp:168)
Neighbor list info ...
  2 neighbor list requests
  update every 1 steps, delay 0 steps, check yes
  max neighbors/atom: 2000, page size: 100000
  master list distance cutoff = 8
  ghost atom cutoff = 8
  binsize = 4 -> bins = 6 4 8
Memory usage per processor = 8.64967 Mbytes
Step Temp E_pair E_mol TotEng Press 
       0            0   -425.07396            0   -425.07396    -2546.725 
      15            0   -449.25685            0   -449.25685   -21144.336 
Loop time of 0.0234992 on 28 procs for 15 steps with 319 atoms

80.1% CPU use with 28 MPI tasks x no OpenMP threads

Minimization stats:
  Stopping criterion = energy tolerance
  Energy initial, next-to-last, final = 
        -425.073956352     -449.220046681      -449.25684598
  Force two-norm initial, final = 21.2883 0.821641
  Force max component initial, final = 3.10562 0.144318
  Final line search alpha, max atom move = 0.316298 0.0456474
  Iterations, force evaluations = 15 26

MPI task timing breakdown:
Section |  min time  |  avg time  |  max time  |%varavg| %total
---------------------------------------------------------------
Pair    | 0.018465   | 0.019741   | 0.021207   |   0.4 | 84.01
Neigh   | 0          | 0          | 0          |   0.0 |  0.00
Comm    | 0.0013024  | 0.0027341  | 0.0040407  |   1.2 | 11.63
Output  | 0          | 0          | 0          |   0.0 |  0.00
Modify  | 0          | 0          | 0          |   0.0 |  0.00
Other   |            | 0.001024   |            |       |  4.36

Nlocal:    11.3929 ave 16 max 7 min
Histogram: 2 2 3 3 4 5 3 2 3 1
Nghost:    640.286 ave 700 max 593 min
Histogram: 7 2 2 1 3 5 0 4 2 2
Neighs:    690.214 ave 962 max 400 min
Histogram: 3 1 3 3 3 4 4 1 2 4
FullNghs:  1380.43 ave 2007 max 834 min
Histogram: 2 3 3 3 4 4 3 2 3 1

Total # of neighbors = 38652
Ave neighs/atom = 121.166
Neighbor list builds = 0
Dangerous builds = 0
velocity all  create 600.0 4928459 #rot yes dist gaussian

#--------------  Run a simulation (Relaxation)  ----------------------------------------
fix  1  all  nvt   temp  600.0  600.0  100				#damping constant
#fix  2  all  npt   temp  393.0  393.0  50 iso 0.0 0.0 1000.0
fix  2  all deform 1 x final 0 15.2244 y final 0 13.1847 z final 0 28.6628 xy final -7.6121 units lattice
#fix  3  all  npt   temp  393.0  393.0  50 z 0.0 0.0 1000.0

#variable b equal 1
#fix 2 all efield  0.0  0.0  v_b
#compute pot all pe/atom


#----------- Output --------------------------
thermo	 500
timestep  0.001		#1.0 fs
thermo_style	custom step time temp ke pe etotal press pxx pyy pzz lx ly lz vol

dump 1 all custom 10000 dump.eq id type x y z
dump_modify 1 sort  id

run        1000000	#1000 ps
Neighbor list info ...
  2 neighbor list requests
  update every 1 steps, delay 10 steps, check yes
  max neighbors/atom: 2000, page size: 100000
  master list distance cutoff = 8
  ghost atom cutoff = 8
  binsize = 4 -> bins = 6 4 8
Memory usage per processor = 7.55562 Mbytes
Step Time Temp KinEng PotEng TotEng Press Pxx Pyy Pzz Lx Ly Lz Volume 
      15            0          600    24.662836   -449.25685   -424.59401   -16568.481     977.1499   -2781.5265   -47901.067      15.2197      13.1806      28.6978    5756.9158 
     500        0.485    316.12649    12.994293   -437.58477   -424.59047   -8957.6055    9855.2345    7966.2541   -44694.305    15.219702    13.180602    28.697783    5756.9141 
    1000        0.985    322.26954    13.246801   -437.83704   -424.59024   -9521.7976    8825.7348    7109.6003   -44500.728    15.219705    13.180604    28.697766    5756.9124 
    1500        1.485    314.44993    12.925378   -437.51476   -424.58938   -10896.399    9142.6047    5934.6332   -47766.435    15.219707    13.180606    28.697748    5756.9107 
    2000        1.985     307.8962    12.655989   -437.24408   -424.58809   -11518.354    9021.6389    5520.7683    -49097.47    15.219709    13.180608    28.697731    5756.9089 
    2500        2.485    324.99308    13.358751   -437.94634   -424.58759   -10446.408    9032.7179    3513.0601   -43885.003    15.219712     13.18061    28.697713    5756.9072 
    3000        2.985    319.86107    13.147802   -437.73374   -424.58594   -10205.761    10976.537    7869.0634   -49462.884    15.219714    13.180612    28.697696    5756.9055 
    3500        3.485    321.42007    13.211884   -437.79604   -424.58416   -10707.568    10670.956    5851.8977   -48645.558    15.219716    13.180614    28.697678    5756.9038 
    4000        3.985    323.01707    13.277528   -437.85915   -424.58162   -10471.369    8446.2166    6911.1486   -46771.473    15.219719    13.180616    28.697661     5756.902 
    4500        4.485    306.43553    12.595948   -437.17503   -424.57908   -9758.4808    9143.1079    5020.3462   -43438.896    15.219721    13.180618    28.697643    5756.9003 
    5000        4.985    305.37642    12.552414   -437.12877   -424.57636   -8852.9766    9914.3614    6018.3061   -42491.597    15.219723     13.18062    28.697626    5756.8986 
    5500        5.485    298.19004     12.25702   -436.82991   -424.57289   -9113.0316    10001.988    9222.4431   -46563.526    15.219726    13.180622    28.697608    5756.8969 
    6000        5.985    314.89609    12.943717   -437.51413   -424.57041    -10027.84     9718.883     5484.221   -45286.625    15.219728    13.180625    28.697591    5756.8951 
    6500        6.485    310.88966    12.779034   -437.34512   -424.56609   -10788.225    8646.3258    6108.2853   -47119.287     15.21973    13.180627    28.697573    5756.8934 
    7000        6.985     313.4038    12.882377   -437.44474   -424.56237   -9672.8846    8783.5891    8706.1759   -46508.419    15.219733    13.180629    28.697556    5756.8917 
    7500        7.485    322.43844    13.253744   -437.81136   -424.55762   -10036.279    10951.842    4932.2893   -45992.967    15.219735    13.180631    28.697538    5756.8899 
    8000        7.985    310.04666    12.744383   -437.29752   -424.55314   -9579.4813    9425.4602    7445.1264    -45609.03    15.219738    13.180633    28.697521    5756.8882 
    8500        8.485    338.22258    13.902546   -438.45044   -424.54789   -10475.745    7227.7948    5679.1716     -44334.2     15.21974    13.180635    28.697503    5756.8865 
    9000        8.985    312.27318    12.835904   -437.37828   -424.54238   -8947.2378    9645.2963    6239.0474   -42726.057    15.219742    13.180637    28.697486    5756.8848 
    9500        9.485    322.39593    13.251996   -437.78911   -424.53711   -9131.2848     10344.91    5480.6369   -43219.401    15.219745    13.180639    28.697468     5756.883 
   10000        9.985    301.74292     12.40306   -436.93361   -424.53055   -9710.1314    10990.457    7504.6456   -47625.497    15.219747    13.180641    28.697451    5756.8813 
   10500       10.485    314.86541    12.942456   -437.46751   -424.52506    -10426.77     9266.938     6281.298   -46828.545    15.219749    13.180643    28.697433    5756.8796 
   11000       10.985    309.93942    12.739975   -437.25835   -424.51838   -9820.8702    9338.7381    4102.5194   -42903.868    15.219752    13.180645    28.697416    5756.8779 
   11500       11.485    318.44117    13.089437   -437.60126   -424.51182   -10252.574    9594.6125    6450.2747   -46802.608    15.219754    13.180647    28.697398    5756.8761 
   12000       11.985    320.62013    13.179003   -437.68331   -424.50431   -10194.651    10163.651    3503.2318   -44250.837    15.219756    13.180649    28.697381    5756.8744 
   12500       12.485    308.32148     12.67347   -437.17057    -424.4971   -10221.368    8887.1834    5174.3593   -44725.648    15.219759    13.180651    28.697363    5756.8727 
   13000       12.985    342.31573    14.070794    -438.5604   -424.48961     -11115.9      9382.91    4744.0291   -47474.639    15.219761    13.180653    28.697346     5756.871 
   13500       13.485    302.61343    12.438842   -436.91994    -424.4811   -9487.8268    9110.5543    7162.8548   -44736.889    15.219763    13.180655    28.697328    5756.8692 
   14000       13.985    304.69462    12.524389   -436.99721   -424.47282   -9494.0389    9327.5516    7116.8132   -44926.482    15.219766    13.180657    28.697311    5756.8675 
   14500       14.485    328.30803    13.495012    -437.9591   -424.46409   -9610.4098    8818.8434    7250.8912   -44900.964    15.219768    13.180659    28.697293    5756.8658 
   15000       14.985    327.11345    13.445909   -437.90087   -424.45496   -10659.655    8391.8518    5946.6627    -46317.48     15.21977    13.180661    28.697276    5756.8641 
   15500       15.485    307.31314    12.632022   -437.07764   -424.44562   -10749.858    8810.9715    5294.3171   -46354.862    15.219773    13.180663    28.697258    5756.8623 
   16000       15.985    319.92569    13.150458   -437.58639   -424.43594   -10711.472    11089.183    5372.1965   -48595.797    15.219775    13.180666    28.697241    5756.8606 
   16500       16.485    307.07626    12.622286   -437.04824   -424.42595   -9400.2794    11176.993    5798.9256   -45176.757    15.219777    13.180668    28.697223    5756.8589 
   17000       16.985    327.23681    13.450979   -437.86682   -424.41584   -10698.015    7896.6643    5549.7672   -45540.475     15.21978     13.18067    28.697206    5756.8571 
   17500       17.485    324.86928    13.353663   -437.75916   -424.40549   -10621.643    9543.2292    4578.9577   -45987.117    15.219782    13.180672    28.697188    5756.8554 
   18000       17.985     311.7346    12.813766   -437.20762   -424.39385   -10123.778    9623.9849     7143.655   -47138.974    15.219785    13.180674    28.697171    5756.8537 
   18500       18.485    298.60405    12.274038   -436.65705   -424.38301   -10065.859    10190.918    6179.5592   -46568.054    15.219787    13.180676    28.697153     5756.852 
   19000       18.985    307.84957    12.654072   -437.02564   -424.37157   -9293.4785    10364.204     6699.812   -44944.452    15.219789    13.180678    28.697136    5756.8502 
   19500       19.485    315.59563    12.972472   -437.33241   -424.35994   -11007.765    8220.4357    4558.0449   -45801.775    15.219792     13.18068    28.697118    5756.8485 
   20000       19.985    317.10789    13.034633   -437.38246   -424.34782   -9260.1437    9566.9767    6800.2684   -44147.676    15.219794    13.180682    28.697101    5756.8468 
   20500       20.485    306.24688    12.588194   -436.92371   -424.33552   -10436.559    9101.7929    5759.3193   -46170.788    15.219796    13.180684    28.697083    5756.8451 
   21000       20.985     318.7304    13.101326   -437.42439   -424.32306   -11596.645    8370.5898     5325.332   -48485.858    15.219799    13.180686    28.697066    5756.8433 
   21500       21.485    336.03677    13.812699   -438.12338   -424.31068   -12010.202    6823.5118    5413.3729   -48267.491    15.219801    13.180688    28.697048    5756.8416 
   22000       21.985    311.39213    12.799688   -437.09659    -424.2969   -10005.274    11960.193     4698.196   -46674.212    15.219803     13.18069    28.697031    5756.8399 
   22500       22.485    319.61585    13.137722   -437.42163   -424.28391   -10250.795     7352.138    6528.5909   -44633.112    15.219806    13.180692    28.697013    5756.8382 
   23000       22.985    312.10732    12.829086   -437.09914   -424.27006   -9700.8957    9753.6784    5965.3645    -44821.73    15.219808    13.180694    28.696996    5756.8364 
   23500       23.485    320.73966    13.183916   -437.43989   -424.25597   -9793.6933    10492.129    5100.0633   -44973.273     15.21981    13.180696    28.696978    5756.8347 
   24000       23.985    325.97894    13.399275   -437.64128   -424.24201   -9610.3742    10055.172    5694.0978   -44580.392    15.219813    13.180698    28.696961     5756.833 
   24500       24.485     325.1489    13.365157   -437.59262   -424.22746   -9867.4462    8618.1672    8185.8807   -46406.387    15.219815      13.1807    28.696943    5756.8313 
   25000       24.985    342.56802    14.081165   -438.29414   -424.21297   -10422.162    9002.1369    5165.5664    -45434.19    15.219817    13.180702    28.696926    5756.8295 
   25500       25.485    324.58605    13.342021   -437.53957   -424.19755   -9613.8043    10754.854    5506.1685   -45102.435     15.21982    13.180704    28.696908    5756.8278 
   26000       25.985    299.14556    12.296296   -436.47844   -424.18214   -9934.7664    11223.656    4721.9872   -45749.942    15.219822    13.180707    28.696891    5756.8261 
   26500       26.485     329.9267    13.561546     -437.729   -424.16746   -10641.559    8687.9156    5166.8923   -45779.486    15.219824    13.180709    28.696873    5756.8243 
   27000       26.985    309.61166    12.726503   -436.87752   -424.15102   -11257.892    8118.6286    6661.7152    -48554.02    15.219827    13.180711    28.696856    5756.8226 
   27500       27.485     311.8223     12.81737   -436.95321   -424.13583    -10007.87    8526.4355    7640.6906   -46190.735    15.219829    13.180713    28.696838    5756.8209 
   28000       27.985    319.18502    13.120013   -437.23933   -424.11932   -10385.845    7211.2085    5067.4765   -43436.219    15.219832    13.180715    28.696821    5756.8192 
   28500       28.485    315.71359    12.977321   -437.07992    -424.1026   -9552.4794    10288.896    5105.9499   -44052.284    15.219834    13.180717    28.696803    5756.8174 
   29000       28.985    331.67675    13.633482   -437.71974   -424.08626   -10764.246    9690.7176    4177.1674   -46160.623    15.219836    13.180719    28.696786    5756.8157 
   29500       29.485    333.94151    13.726574   -437.79597    -424.0694   -10460.777    9146.0214    4102.3596   -44630.711    15.219839    13.180721    28.696768     5756.814 
   30000       29.985    322.82332    13.269564   -437.32192   -424.05236   -9725.8865    10393.491    6027.9161   -45599.067    15.219841    13.180723    28.696751    5756.8123 
   30500       30.485    329.61669    13.548804   -437.58372   -424.03491   -9335.8927    10536.113    7036.2679   -45580.059    15.219843    13.180725    28.696733    5756.8105 
   31000       30.985    314.43021    12.924568   -436.94195   -424.01738   -9181.3314    9543.9588    4235.6871    -41323.64    15.219846    13.180727    28.696716    5756.8088 
   31500       31.485    322.05132    13.237831   -437.23789   -424.00006   -10085.488    11944.374    5831.9979   -48032.837    15.219848    13.180729    28.696698    5756.8071 
   32000       31.985    310.62004    12.767952   -436.75017   -423.98222   -10371.752     8880.144    6504.2477   -46499.649     15.21985    13.180731    28.696681    5756.8054 
   32500       32.485    325.22007    13.368082   -437.33271   -423.96463   -10114.065    8700.7715    4223.5689   -43266.535    15.219853    13.180733    28.696663    5756.8036 
   33000       32.985    312.72259    12.854376   -436.80055   -423.94617   -10179.443    8830.0647    5740.1763   -45108.571    15.219855    13.180735    28.696646    5756.8019 
   33500       33.485    326.67923     13.42806   -437.35642   -423.92836   -9714.9394    9949.0871    6821.9778   -45915.883    15.219857    13.180737    28.696628    5756.8002 
   34000       33.985    323.57798    13.300584    -437.2102   -423.90962    -10567.92     9400.805     5920.632   -47025.198     15.21986    13.180739    28.696611    5756.7985 
   34500       34.485    295.15278    12.132174   -436.02334   -423.89117   -9749.2774    10444.489    6319.4554   -46011.776    15.219862    13.180741    28.696593    5756.7967 
   35000       34.985    311.76347    12.814952   -436.68827   -423.87332    -9598.718    9768.4092       6451.8   -45016.363    15.219864    13.180743    28.696576     5756.795 
   35500       35.485    316.87875    13.025214    -436.8799   -423.85469   -10423.517    6985.9914    7630.2197   -45886.762    15.219867    13.180745    28.696558    5756.7933 
   36000       35.985    342.88572    14.094224   -437.93068   -423.83645   -10373.287    7362.1812    6992.7157   -45474.758    15.219869    13.180748    28.696541    5756.7915 
   36500       36.485    320.78197    13.185655   -437.00298   -423.81733   -9964.8778    9339.0152    5559.0912    -44792.74    15.219871     13.18075    28.696523    5756.7898 
   37000       36.985    314.85148    12.941884   -436.74044   -423.79855   -8722.9886    11646.074    5628.6455   -43443.685    15.219874    13.180752    28.696506    5756.7881 
   37500       37.485    328.36254    13.497252   -437.27731   -423.78005   -10288.955    10543.176    5825.9246   -47235.965    15.219876    13.180754    28.696488    5756.7864 
   38000       37.985    318.70777    13.100396   -436.86109   -423.76069   -10035.969    6846.7416     6385.594   -43340.241    15.219879    13.180756    28.696471    5756.7846 
   38500       38.485    306.35977    12.592834   -436.33435   -423.74152   -9598.3244    9938.6853     6377.968   -45111.626    15.219881    13.180758    28.696453    5756.7829 
   39000       38.985    335.51953    13.791438   -437.51445   -423.72301   -10280.548    8267.3827     5113.682    -44222.71    15.219883     13.18076    28.696436    5756.7812 
   39500       39.485    306.79159    12.610584   -436.31452   -423.70393   -9462.2292     9228.069    5761.3851   -43376.142    15.219886    13.180762    28.696418    5756.7795 
   40000       39.985    318.13329    13.076782   -436.76148   -423.68469   -9197.6151    9147.7498    5709.1723   -42449.767    15.219888    13.180764    28.696401    5756.7777 
   40500       40.485    339.96187    13.974039   -437.64004     -423.666    -9483.727    10760.127    7621.3183   -46832.627     15.21989    13.180766    28.696383     5756.776 
   41000       40.985    319.00033    13.112421   -436.75908   -423.64666   -9268.7638    9580.6634    9093.7235   -46480.678    15.219893    13.180768    28.696366    5756.7743 
   41500       41.485    343.07564     14.10203   -437.72967   -423.62764   -9688.8918    10020.908    4503.3432   -43590.927    15.219895     13.18077    28.696348    5756.7726 
   42000       41.985    339.40704    13.951233    -437.5601   -423.60887   -10466.379     9396.071    6241.1679   -47036.376    15.219897    13.180772    28.696331    5756.7708 
   42500       42.485    318.34965    13.085675   -436.67481   -423.58913   -9886.9628    8122.4162    5969.7605   -43753.065      15.2199    13.180774    28.696313    5756.7691 
   43000       42.985    316.54636    13.011552   -436.58211   -423.57056   -9810.8139    8901.4748    7308.2859   -45642.203    15.219902    13.180776    28.696296    5756.7674 
   43500       43.485    340.90561    14.012832   -437.56476   -423.55193   -9343.6068    8571.6015    8113.0043   -44715.426    15.219904    13.180778    28.696278    5756.7656 
   44000       43.985    332.75893    13.677965     -437.211   -423.53304   -10140.587    9798.4931    7417.7922   -47638.048    15.219907     13.18078    28.696261    5756.7639 
   44500       44.485    336.78353    13.843395   -437.35748   -423.51409   -11158.599    9678.5649    4058.1772   -47212.538    15.219909    13.180782    28.696243    5756.7622 
   45000       44.985    339.92761    13.972631   -437.46819   -423.49556   -9707.5387    9775.6086    7361.5462   -46259.771    15.219911    13.180784    28.696226    5756.7605 
   45500       45.485    316.58978    13.013336   -436.49025   -423.47691   -10161.313    10839.568    7091.2759   -48414.782    15.219914    13.180786    28.696208    5756.7587 
   46000       45.985    335.85971    13.805421   -437.26422    -423.4588   -9682.7679    9502.6398    4657.1905   -43208.134    15.219916    13.180789    28.696191     5756.757 
   46500       46.485    320.50086      13.1741   -436.61389   -423.43979   -9581.2499    8620.5914    7724.8789    -45089.22    15.219918    13.180791    28.696173    5756.7553 
   47000       46.985    319.05737    13.114766   -436.53616   -423.42139   -9742.7479    9809.7767    6117.8832   -45155.904    15.219921    13.180793    28.696156    5756.7536 
   47500       47.485    332.81011    13.680068   -437.08293   -423.40286   -9071.0008     8393.626    7230.0502   -42836.679    15.219923    13.180795    28.696138    5756.7518 
   48000       47.985    337.31761    13.865348   -437.25012   -423.38478   -9597.1288    7764.3578    7090.8461    -43646.59    15.219926    13.180797    28.696121    5756.7501 
   48500       48.485    312.09455    12.828561   -436.19466    -423.3661   -9302.1579    10943.596    9042.0907    -47892.16    15.219928    13.180799    28.696103    5756.7484 
   49000       48.985    317.23785    13.039975    -436.3883   -423.34833   -8653.0937    11470.441    4385.2451   -41814.967     15.21993    13.180801    28.696086    5756.7467 
   49500       49.485    327.01249    13.441759   -436.77208   -423.33032   -9440.0711    9665.8246    5869.3882   -43855.426    15.219933    13.180803    28.696068    5756.7449 
   50000       49.985    329.65263    13.550281   -436.86325   -423.31296   -9790.9872    11276.218    4741.3104    -45390.49    15.219935    13.180805    28.696051    5756.7432 
   50500       50.485    344.13168    14.145439   -437.44062   -423.29518   -11357.417    7229.3383    5319.2146   -46620.804    15.219937    13.180807    28.696033    5756.7415 
   51000       50.985    332.30577    13.659338    -436.9368   -423.27746   -8726.2409    9206.1257    6730.1381   -42114.986     15.21994    13.180809    28.696016    5756.7398 
   51500       51.485    331.75001    13.636493   -436.89594   -423.25944   -8997.2239    9847.3937    7462.3574   -44301.423    15.219942    13.180811    28.695998     5756.738 
   52000       51.985    340.71568    14.005025   -437.24736   -423.24234   -9105.0469    9704.8057    8640.6451   -45660.591    15.219944    13.180813    28.695981    5756.7363 
   52500       52.485    343.44752    14.117316   -437.34283   -423.22551   -9510.9408    10392.741    5085.6776   -44011.241    15.219947    13.180815    28.695963    5756.7346 
   53000       52.985    323.06036    13.279308   -436.48663   -423.20732   -10014.236     9303.406     5476.563   -44822.676    15.219949    13.180817    28.695946    5756.7328 
   53500       53.485    327.30335    13.453715   -436.64439   -423.19068   -9836.2999    8722.4738    8265.3788   -46496.752    15.219951    13.180819    28.695928    5756.7311 
   54000       53.985    327.92237    13.479159   -436.65279   -423.17363   -8917.1815    9492.2846    7545.3536   -43789.183    15.219954    13.180821    28.695911    5756.7294 
   54500       54.485    343.36274    14.113831   -437.27065   -423.15682   -9207.2912    11409.333    6856.7054   -45887.912    15.219956    13.180823    28.695893    5756.7277 
   55000       54.985    330.39188    13.580668   -436.72054   -423.13987   -8464.8014    12358.359     8189.125   -45941.889    15.219958    13.180825    28.695876    5756.7259 
   55500       55.485    339.05607    13.936807   -437.05959   -423.12278   -9079.3483    10632.757    7797.0643   -45667.866    15.219961    13.180827    28.695858    5756.7242 
   56000       55.985    335.26711    13.781063   -436.88693   -423.10586   -10137.408    10785.992    4332.4781   -45530.694    15.219963     13.18083    28.695841    5756.7225 
   56500       56.485    320.01516    13.154135   -436.24331   -423.08917   -9626.2355    13752.005    3974.2213   -46604.933    15.219965    13.180832    28.695823    5756.7208 
   57000       56.985     335.5267    13.791733   -436.86501   -423.07328   -8969.4652    9975.4114    7517.7025   -44401.509    15.219968    13.180834    28.695806     5756.719 
   57500       57.485    330.96313    13.604149   -436.66108   -423.05693   -9190.0437    9637.0045    7342.4273   -44549.563     15.21997    13.180836    28.695788    5756.7173 
   58000       57.985    335.10273    13.774306   -436.81459   -423.04028   -9996.2106     8128.265    8025.5082   -46142.405    15.219973    13.180838    28.695771    5756.7156 
   58500       58.485    335.09132    13.773837   -436.79802   -423.02418   -9765.9012    11000.683    6094.6458   -46393.033    15.219975     13.18084    28.695753    5756.7139 
   59000       58.985    324.08308    13.321346   -436.32895   -423.00761   -8545.5635    12162.626    7105.5735    -44904.89    15.219977    13.180842    28.695736    5756.7121 
   59500       59.485    332.10005    13.650882   -436.64298    -422.9921   -8744.7422    9653.4318    7269.9277   -43157.586     15.21998    13.180844    28.695718    5756.7104 
   60000       59.985    343.30549    14.111478    -437.0875   -422.97602   -8893.6543    9059.5256    6182.3931   -41922.882    15.219982    13.180846    28.695701    5756.7087 
   60500       60.485     322.7751    13.267582   -436.22704   -422.95945   -8751.9733    11864.837    5826.0933    -43946.85    15.219984    13.180848    28.695683    5756.7069 
   61000       60.985    338.20574    13.901854   -436.84587   -422.94402   -9304.7113    11635.817      7901.07   -47451.021    15.219987     13.18085    28.695666    5756.7052 
   61500       61.485    320.13383    13.159014   -436.08704   -422.92802   -9198.6985    8567.7574    7305.6987   -43469.552    15.219989    13.180852    28.695648    5756.7035 
   62000       61.985    330.23686    13.574296   -436.48589    -422.9116   -8752.6911    8641.5447    7618.2499   -42517.868    15.219991    13.180854    28.695631    5756.7018 
   62500       62.485    337.63547    13.878413   -436.77439   -422.89598   -8803.6423    9768.8521    8472.2834   -44652.063    15.219994    13.180856    28.695613       5756.7 
   63000       62.985     332.6546    13.673676   -436.55361   -422.87994    -9598.035    8694.7743    4839.0471   -42327.926    15.219996    13.180858    28.695596    5756.6983 
   63500       63.485    344.02038    14.140863   -437.00503   -422.86417   -9767.3868    10080.501    4696.0347   -44078.696    15.219998     13.18086    28.695578    5756.6966 
   64000       63.985    307.09463    12.623041   -435.47136   -422.84832   -9116.7741    10332.727    8779.1334   -46462.183    15.220001    13.180862    28.695561    5756.6949 
   64500       64.485    356.02339    14.634244   -437.46718   -422.83293   -9956.5406    9528.1068    4604.9529   -44002.681    15.220003    13.180864    28.695543    5756.6931 
   65000       64.985    340.91864    14.013367   -436.83071   -422.81734    -9621.785    9807.3939    3264.0048   -41936.754    15.220005    13.180866    28.695526    5756.6914 
   65500       65.485    344.68217    14.168066   -436.96944   -422.80138   -8772.8604    10936.169    7750.0308   -45004.781    15.220008    13.180868    28.695508    5756.6897 
   66000       65.985    342.48239    14.077645   -436.86345   -422.78581    -9965.787     9465.298    6997.4156   -46360.074     15.22001    13.180871    28.695491     5756.688 
   66500       66.485     338.6196    13.918866   -436.68899   -422.77012   -9210.6227    10189.395    6093.8283   -43915.091    15.220012    13.180873    28.695473    5756.6862 
   67000       66.985    338.79749    13.926178   -436.68022   -422.75404   -9765.9049    10998.637    7467.6424   -47763.994    15.220015    13.180875    28.695456    5756.6845 
   67500       67.485    343.46513     14.11804   -436.85706   -422.73902   -9551.7509    9159.8814    6926.0874   -44741.221    15.220017    13.180877    28.695438    5756.6828 
   68000       67.985     341.1454    14.022688   -436.74536   -422.72268   -10258.413    8724.6713    5340.2986   -44840.209     15.22002    13.180879    28.695421     5756.681 
   68500       68.485    352.49874    14.489364   -437.19676   -422.70739   -10786.091    7540.0986    7471.8787   -47370.252    15.220022    13.180881    28.695403    5756.6793 
   69000       68.985    350.44898     14.40511   -437.09773   -422.69262   -9831.1324    9813.4428    7217.6052   -46524.445    15.220024    13.180883    28.695386    5756.6776 
   69500       69.485    335.72402    13.799844   -436.47573   -422.67588   -9299.0437    9637.4162    7483.7917   -45018.339    15.220027    13.180885    28.695368    5756.6759 
   70000       69.985    338.00808     13.89373   -436.55356   -422.65983   -9538.0847    8694.8734     6827.024   -44136.151    15.220029    13.180887    28.695351    5756.6741 
   70500       70.485    331.89877    13.642608   -436.28664   -422.64404   -9312.0929    10406.847    5594.9164   -43938.042    15.220031    13.180889    28.695333    5756.6724 
   71000       70.985    359.88711    14.793061    -437.4218   -422.62874   -10628.239    8230.5888    2892.6896   -43007.997    15.220034    13.180891    28.695316    5756.6707 
   71500       71.485    336.43784    13.829185    -436.4421   -422.61292   -9487.0868    9616.2729    7249.1657   -45326.699    15.220036    13.180893    28.695298     5756.669 
   72000       71.985    326.10508     13.40446   -436.00128   -422.59682   -9315.2221    9206.0763    9347.1551   -46498.898    15.220038    13.180895    28.695281    5756.6672 
   72500       72.485    345.86191    14.216559   -436.79806    -422.5815   -9962.9615    9423.9706    6038.2079   -45351.063    15.220041    13.180897    28.695263    5756.6655 
   73000       72.985     337.8184    13.885933   -436.45164    -422.5657   -9213.2189    10713.516    4828.6218   -43181.795    15.220043    13.180899    28.695246    5756.6638 
   73500       73.485    337.43432    13.870145   -436.42024    -422.5501   -8749.8393    10921.269    7356.9275   -44527.714    15.220045    13.180901    28.695228    5756.6621 
   74000       73.985    331.21642     13.61456   -436.14838   -422.53382   -8281.4908    13036.641    9281.8501   -47162.964    15.220048    13.180903    28.695211    5756.6603 
   74500       74.485    333.50894    13.708794   -436.22644   -422.51765   -8678.3239    10282.784    6556.2126   -42873.968     15.22005    13.180905    28.695193    5756.6586 
   75000       74.985    314.90353    12.944023   -435.44602     -422.502   -8785.4319    9884.0569    6892.4049   -43132.758    15.220052    13.180907    28.695176    5756.6569 
   75500       75.485    346.45412    14.240902   -436.72664   -422.48574   -9835.5718    9464.8503     4854.581   -43826.147    15.220055    13.180909    28.695158    5756.6552 
   76000       75.985    335.05128    13.772191   -436.24225   -422.47006   -9845.1439    7616.1741    6182.2459   -43333.852    15.220057    13.180912    28.695141    5756.6534 
   76500       76.485    335.78081    13.802178   -436.25565   -422.45347   -9316.0902     10621.01    7770.7533   -46340.034    15.220059    13.180914    28.695123    5756.6517 
   77000       76.985      344.097    14.144013   -436.58133   -422.43732   -9238.3966    10921.556    6816.0536   -45452.799    15.220062    13.180916    28.695106      5756.65 
   77500       77.485    356.31948    14.646415   -437.06801    -422.4216   -8987.3765     9721.961    3582.9971   -40267.088    15.220064    13.180918    28.695088    5756.6482 
   78000       77.985    349.07366    14.348577   -436.75386   -422.40529   -9995.2803    10857.122    4492.4552   -45335.418    15.220067     13.18092    28.695071    5756.6465 
   78500       78.485    343.77437    14.130751   -436.51957   -422.38882   -9954.8615    8770.9626    5740.5306   -44376.078    15.220069    13.180922    28.695053    5756.6448 
   79000       78.985    329.95428     13.56268   -435.93431   -422.37163   -8935.0484    9823.2346    8030.1966   -44658.577    15.220071    13.180924    28.695036    5756.6431 
   79500       79.485    345.50274    14.201796   -436.55738   -422.35559   -8115.6484    9742.5058    7214.4982   -41303.949    15.220074    13.180926    28.695018    5756.6413 
   80000       79.985    324.45166    13.336497   -435.67505   -422.33855   -8880.8988    10571.522    6620.3049   -43834.524    15.220076    13.180928    28.695001    5756.6396 
   80500       80.485    360.40829    14.814484   -437.13717   -422.32269   -10604.759     9194.453    4820.7293   -45829.459    15.220078     13.18093    28.694983    5756.6379 
   81000       80.985    344.86095    14.175415   -436.48148   -422.30607   -9698.6379    9973.8846    5759.6269   -44829.425    15.220081    13.180932    28.694966    5756.6362 
   81500       81.485    343.55297    14.121651    -436.4111   -422.28945   -9748.7386    11266.595    5519.6521   -46032.463    15.220083    13.180934    28.694948    5756.6344 
   82000       81.985    361.52571    14.860415   -437.13344   -422.27302   -9442.7003    9192.3657    5863.1204   -43383.587    15.220085    13.180936    28.694931    5756.6327 
   82500       82.485    329.15867    13.529977   -435.78552   -422.25555   -8964.8841    8006.8963    8219.3232   -43120.872    15.220088    13.180938    28.694913     5756.631 
   83000       82.985    343.69274    14.127396   -436.36634   -422.23894   -9661.2854    9089.0762    8912.9943   -46985.927     15.22009     13.18094    28.694896    5756.6293 
   83500       83.485    354.75286    14.582019   -436.80375   -422.22173   -8695.0186    8876.3429    6356.6971   -41318.096    15.220092    13.180942    28.694878    5756.6275 
   84000       83.985    339.87853    13.970614    -436.1745   -422.20389   -8897.2845    12969.362    6174.3146    -45835.53    15.220095    13.180944    28.694861    5756.6258 
   84500       84.485    321.27287    13.205833   -435.39233    -422.1865    -9302.822    9325.2434    6103.6512   -43337.361    15.220097    13.180946    28.694843    5756.6241 
   85000       84.985    350.82655    14.420629   -436.59022   -422.16959   -9475.0513    9989.9391    5193.6495   -43608.743    15.220099    13.180948    28.694826    5756.6223 
   85500       85.485    321.95544     13.23389   -435.38596   -422.15207   -9255.0566    9084.8674    9882.6703   -46732.708    15.220102     13.18095    28.694808    5756.6206 
   86000       85.985    342.31902    14.070929   -436.20567   -422.13474   -8977.1375    8647.5841    8086.1596   -43665.156    15.220104    13.180953    28.694791    5756.6189 
   86500       86.485    363.27764    14.932428   -437.04973    -422.1173    -9622.175    10638.319    4887.6026   -44392.446    15.220106    13.180955    28.694773    5756.6172 
   87000       86.985    350.53271    14.408551   -436.50836   -422.09981   -8322.3421    8541.2523    9000.3102   -42508.589    15.220109    13.180957    28.694756    5756.6154 
   87500       87.485    342.79283    14.090406     -436.172   -422.08159    -9322.951    11107.192    7459.1759   -46535.221    15.220111    13.180959    28.694738    5756.6137 
   88000       87.985    341.73438    14.046898   -436.11065   -422.06375   -8489.9112     11868.06    9294.6065     -46632.4    15.220114    13.180961    28.694721     5756.612 
   88500       88.485    332.30143    13.659159   -435.70519   -422.04603   -8202.9477    12111.707    6311.2386   -43031.789    15.220116    13.180963    28.694703    5756.6103 
   89000       88.985    343.31005    14.111666   -436.13951   -422.02784   -9115.2753    11291.115     6106.357   -44743.298    15.220118    13.180965    28.694686    5756.6085 
   89500       89.485    352.86809    14.504546   -436.51448   -422.00994   -8944.3073    11778.858    8053.3261   -46665.106    15.220121    13.180967    28.694668    5756.6068 
   90000       89.985    348.59826    14.329036   -436.32067   -421.99163   -9480.7184    9760.8596    4483.8873   -42686.902    15.220123    13.180969    28.694651    5756.6051 
   90500       90.485    332.49686    13.667192    -435.6402   -421.97301   -9529.8389    10995.886    4732.7213   -44318.124    15.220125    13.180971    28.694633    5756.6034 
   91000       90.985    342.38904    14.073808   -436.02847   -421.95466   -8649.2968    11004.158    6424.2392   -43376.288    15.220128    13.180973    28.694616    5756.6016 
   91500       91.485    352.62712    14.494641   -436.43105   -421.93641   -9140.8791    9791.4006    6451.1999   -43665.238     15.22013    13.180975    28.694598    5756.5999 
   92000       91.985    348.76495    14.335888   -436.25366   -421.91777   -9391.7717     11671.97    6598.3219   -46445.607    15.220132    13.180977    28.694581    5756.5982 
   92500       92.485    324.53707    13.340007   -435.23895   -421.89894    -8472.562    13059.638    7151.5542   -45628.878    15.220135    13.180979    28.694563    5756.5964 
   93000       92.985    350.82237    14.420457   -436.30092   -421.88046   -9451.3171     9102.622    8582.9958   -46039.569    15.220137    13.180981    28.694546    5756.5947 
   93500       93.485    339.37436     13.94989   -435.81133   -421.86144   -8105.8878    10756.205    7424.7526   -42498.621    15.220139    13.180983    28.694528     5756.593 
   94000       93.985    343.67076    14.126492   -435.96938   -421.84289   -7891.1366     10378.15    8733.9162   -42785.476    15.220142    13.180985    28.694511    5756.5913 
   94500       94.485    357.13103    14.679773   -436.50345   -421.82368   -8514.6183    10584.039    8330.2758    -44458.17    15.220144    13.180987    28.694493    5756.5895 
   95000       94.985    345.68471    14.209275   -436.01395   -421.80467   -8665.9508    8481.3533    9341.5563   -43820.762    15.220146    13.180989    28.694476    5756.5878 
   95500       95.485    338.85074    13.928367   -435.71342   -421.78505   -9246.7251    9432.8987    7535.4164    -44708.49    15.220149    13.180991    28.694458    5756.5861 
   96000       95.985    352.89008     14.50545   -436.27163   -421.76618   -7725.2669    10610.455    6683.5493   -40469.805    15.220151    13.180994    28.694441    5756.5844 
   96500       96.485    355.79741    14.624955    -436.3715   -421.74655   -8587.1094     11059.92    9136.4543   -45957.703    15.220153    13.180996    28.694423    5756.5826 
   97000       96.985    342.78141    14.089936   -435.81674    -421.7268    -8418.564    10608.493     5775.301   -41639.486    15.220156    13.180998    28.694406    5756.5809 
   97500       97.485    337.90284    13.889404   -435.59652   -421.70711   -9365.0514    10460.513    8067.5138   -46623.181    15.220158       13.181    28.694388    5756.5792 
   98000       97.985    362.69486    14.908473   -436.59623   -421.68776   -9062.2759     11606.88    7075.2433   -45868.951    15.220161    13.181002    28.694371    5756.5775 
   98500       98.485    330.46976    13.583869   -435.25117   -421.66731   -7577.0221    12245.698    6730.0771   -41706.842    15.220163    13.181004    28.694353    5756.5757 
   99000       98.985    348.66943    14.331961   -435.97993   -421.64797   -8309.0375     11546.32    8029.2029   -44502.636    15.220165    13.181006    28.694336     5756.574 
   99500       99.485    350.30209    14.399071   -436.02692   -421.62785   -8733.1422    12883.397    6267.0822   -45349.906    15.220168    13.181008    28.694318    5756.5723 
  100000       99.985    340.21899    13.984608   -435.59222   -421.60761   -9057.7276    9509.6769    6570.2024   -43253.062     15.22017     13.18101    28.694301    5756.5705 
  100500      100.485     342.4284    14.075426   -435.66332   -421.58789   -8984.7219    11227.076    8125.3855   -46306.627    15.220172    13.181012    28.694283    5756.5688 
  101000      100.985     370.4842    15.228652   -436.79649   -421.56784   -9339.9662    11419.478    4935.4661   -44374.842    15.220175    13.181014    28.694266    5756.5671 
  101500      101.485    368.06935     15.12939   -436.67703   -421.54764   -9392.3028    10414.205     5191.446   -43782.559    15.220177    13.181016    28.694248    5756.5654 
  102000      101.985    350.45745    14.405457   -435.93246     -421.527   -8609.1607    11895.011       7321.6   -45044.093    15.220179    13.181018    28.694231    5756.5636 
  102500      102.485    358.64298    14.741922   -436.24858   -421.50666   -10057.044    8630.8137    5380.7235    -44182.67    15.220182     13.18102    28.694213    5756.5619 
  103000      102.985    360.23208    14.807241   -436.29359   -421.48635   -9505.4245     9032.399     7650.987   -45199.659    15.220184    13.181022    28.694196    5756.5602 
  103500      103.485    338.41967    13.910648   -435.37531   -421.46466   -8477.1831    11093.693    9266.3177    -45791.56    15.220186    13.181024    28.694178    5756.5585 
  104000      103.985    338.91534    13.931022   -435.37561   -421.44458   -8574.7457    9972.9639    7750.7159   -43447.917    15.220189    13.181026    28.694161    5756.5567 
  104500      104.485     348.5683    14.327804   -435.75162   -421.42382   -9389.3603    10322.188    5669.0624   -44159.331    15.220191    13.181028    28.694143     5756.555 
  105000      104.985      344.751    14.170896   -435.57384   -421.40295   -8054.5514    11310.776    10467.363   -45941.793    15.220193     13.18103    28.694126    5756.5533 
  105500      105.485    345.08917    14.184796    -435.5667    -421.3819   -7711.4805    11290.575    7849.3603   -42274.377    15.220196    13.181032    28.694108    5756.5516 
  106000      105.985    359.70936    14.785755   -436.14713   -421.36137   -8601.7667    11485.013    9005.9136   -46296.227    15.220198    13.181035    28.694091    5756.5498 
  106500      106.485    342.36521    14.072828   -435.41292   -421.34009   -7951.3573    10440.627    5777.7224   -40072.421      15.2202    13.181037    28.694073    5756.5481 
  107000      106.985     346.2676    14.233235   -435.55227   -421.31903   -9139.0136    12504.052    5678.4324   -45599.526    15.220203    13.181039    28.694056    5756.5464 
  107500      107.485    350.80354    14.419683     -435.718   -421.29831   -8872.9563    10740.982    8002.2451   -45362.095    15.220205    13.181041    28.694038    5756.5446 
  108000      107.985    350.15218    14.392909   -435.67051    -421.2776   -8799.3608    9125.2773    9786.3792   -45309.739    15.220208    13.181043    28.694021    5756.5429 
  108500      108.485    368.23196    15.136074   -436.39226   -421.25619   -8115.4651    11215.775    7134.5779   -42696.748     15.22021    13.181045    28.694003    5756.5412 
  109000      108.985    364.84663    14.996921   -436.23205   -421.23513   -8223.0511    8383.9732    7032.8872   -40086.014    15.220212    13.181047    28.693986    5756.5395 
  109500      109.485    359.70832    14.785712   -435.99916   -421.21345   -9175.8306    12012.759    7400.6091    -46940.86    15.220215    13.181049    28.693968    5756.5377 
  110000      109.985    352.26894    14.479918   -435.67144   -421.19152   -8651.6607     8850.263    10742.766   -45548.011    15.220217    13.181051    28.693951     5756.536 
  110500      110.485    348.91554    14.342078   -435.51219   -421.17012   -8232.8566    9794.8232    6993.7099   -41487.103    15.220219    13.181053    28.693933    5756.5343 
  111000      110.985    362.57707    14.903631   -436.05225   -421.14862   -8184.0416    11095.958    6402.8768   -42050.959    15.220222    13.181055    28.693916    5756.5326 
  111500      111.485    346.79775    14.255026   -435.38196   -421.12693   -8862.6725    8970.3767     7323.926    -42882.32    15.220224    13.181057    28.693898    5756.5308 
  112000      111.985    362.49736    14.900355   -436.00604   -421.10569   -9035.2259    9468.1152    6003.5481   -42577.341    15.220226    13.181059    28.693881    5756.5291 
  112500      112.485     363.8053    14.954117   -436.03836   -421.08424   -9540.7677     9260.677    5799.4525   -43682.433    15.220229    13.181061    28.693863    5756.5274 
  113000      112.985    366.84328    15.078993   -436.14144   -421.06245   -8332.8956     10160.94    8086.5394   -43246.167    15.220231    13.181063    28.693846    5756.5257 
  113500      113.485    367.51715    15.106692   -436.14692   -421.04023   -9690.2936    9796.0521    5087.9397   -43954.872    15.220233    13.181065    28.693828    5756.5239 
  114000      113.985     358.9303    14.753732   -435.77194   -421.01821   -9114.4561    9539.0504    6935.5849   -43818.004    15.220236    13.181067    28.693811    5756.5222 
  114500      114.485    357.37969    14.689994   -435.68626   -420.99627   -8651.6326    9925.3756    7111.6181   -42991.892    15.220238    13.181069    28.693793    5756.5205 
  115000      114.985    364.91347    14.999668   -435.97349   -420.97382   -9910.3373    9892.2467     5502.569   -45125.827     15.22024    13.181071    28.693776    5756.5187 
  115500      115.485    362.14514    14.885877   -435.83724   -420.95137   -8727.9858    12054.009    7927.6778   -46165.644    15.220243    13.181073    28.693758     5756.517 
  116000      115.985    350.81564    14.420181    -435.3495   -420.92932   -9627.8156    10663.838    4946.8232   -44494.108    15.220245    13.181076    28.693741    5756.5153 
  116500      116.485     368.0705    15.129437   -436.03666   -420.90723   -8566.5456    11106.406     5766.877    -42572.92    15.220247    13.181078    28.693723    5756.5136 
  117000      116.985    342.29795    14.070064   -434.95463   -420.88456   -8641.3567    12938.624    7550.1063   -46412.801     15.22025     13.18108    28.693706    5756.5118 
  117500      117.485    369.12222    15.172668    -436.0354   -420.86273   -9479.5243    12590.342    6912.5629   -47941.478    15.220252    13.181082    28.693688    5756.5101 
  118000      117.985    333.20697    13.696381   -434.53642   -420.84004   -7373.4562    12385.712    7654.4613   -42160.542    15.220255    13.181084    28.693671    5756.5084 
  118500      118.485    356.41513    14.650346    -435.4684   -420.81806   -7902.0647    10874.056    6790.0026   -41370.253    15.220257    13.181086    28.693653    5756.5067 
  119000      118.985    360.79919    14.830552   -435.62672   -420.79617   -9036.8975    10627.725    6721.2191   -44459.637    15.220259    13.181088    28.693636    5756.5049 
  119500      119.485    361.72108    14.868446   -435.64214    -420.7737   -9043.3443    10272.179    8149.9278   -45552.139    15.220262     13.18109    28.693618    5756.5032 
  120000      119.985    350.82739    14.420664   -435.17116   -420.75049   -7715.3521    8898.4116    9334.2272   -41378.695    15.220264    13.181092    28.693601    5756.5015 
  120500      120.485    362.32726    14.893363   -435.62174   -420.72838   -8866.7515    11133.599    6805.0275   -44538.881    15.220266    13.181094    28.693583    5756.4998 
  121000      120.985     371.2232    15.259028   -435.96484   -420.70581    -8010.895     12326.69    5583.8562   -41943.231    15.220269    13.181096    28.693566     5756.498 
  121500      121.485     380.1715    15.626845   -436.30983   -420.68298   -9244.8671    9427.6295    7548.0699   -44710.301    15.220271    13.181098    28.693548    5756.4963 
  122000      121.985    344.23417    14.149651   -434.81023   -420.66058   -7739.8832    12975.706    7616.3831   -43811.738    15.220273      13.1811    28.693531    5756.4946 
  122500      122.485     354.2127    14.559816   -435.19741    -420.6376   -7075.7406    13497.447    9918.2412    -44642.91    15.220276    13.181102    28.693513    5756.4928 
  123000      122.985    350.72852      14.4166   -435.03136   -420.61476   -7886.3785    10993.158    7528.5377   -42180.831    15.220278    13.181104    28.693496    5756.4911 
  123500      123.485    355.99251    14.632974   -435.22503   -420.59205   -7605.7527    11453.125    8334.3782   -42604.762     15.22028    13.181106    28.693478    5756.4894 
  124000      123.985    372.22901    15.300372   -435.87019   -420.56981   -7675.5474    11467.035    7833.7123    -42327.39    15.220283    13.181108    28.693461    5756.4877 
  124500      124.485    361.61286    14.863997   -435.41079   -420.54679   -7714.5086    12687.049    6894.6336   -42725.208    15.220285     13.18111    28.693443    5756.4859 
  125000      124.985    366.37711    15.059831   -435.58352   -420.52369    -7421.519    10570.223    10480.335   -43315.115    15.220287    13.181112    28.693426    5756.4842 
  125500      125.485    388.18695    15.956318   -436.45818   -420.50186   -9025.5425    13141.123    7007.4383   -47225.189     15.22029    13.181114    28.693408    5756.4825 
  126000      125.985    367.84652     15.12023   -435.59868   -420.47845   -8717.5309    10893.975    8246.5534   -45293.121    15.220292    13.181117    28.693391    5756.4808 
  126500      126.485    357.81636    14.707943   -435.16316   -420.45522   -7669.8776    11009.365      9207.29   -43226.288    15.220294    13.181119    28.693373     5756.479 
  127000      126.985    350.13321     14.39213   -434.82404   -420.43191   -6320.1667    8967.8999    10556.037   -38484.437    15.220297    13.181121    28.693356    5756.4773 
  127500      127.485    387.18257    15.915034   -436.32466   -420.40962   -8892.3592    8789.4478    8134.5118   -43601.037    15.220299    13.181123    28.693338    5756.4756 
  128000      127.985    356.90799    14.670605   -435.05698   -420.38637   -9105.3614    9581.9202    6696.3471   -43594.351    15.220302    13.181125    28.693321    5756.4738 
  128500      128.485    380.11141    15.624375   -435.98733   -420.36296   -8466.3011      11003.9    9541.8392   -45944.642    15.220304    13.181127    28.693303    5756.4721 
  129000      128.985    372.08215    15.294335   -435.63466   -420.34033   -8190.4526    8696.8082    8115.3808   -41383.547    15.220306    13.181129    28.693286    5756.4704 
  129500      129.485    361.72486    14.868601   -435.18521   -420.31661   -7017.3035    10702.936    9449.6257   -41204.472    15.220309    13.181131    28.693268    5756.4687 
  130000      129.985    364.38536     14.97796   -435.27179   -420.29383    -7628.395    12307.363    7624.2802   -42816.828    15.220311    13.181133    28.693251    5756.4669 
  130500      130.485    345.38497    14.196955   -434.46679   -420.26983   -7412.7542     12890.97    7408.8029   -42538.035    15.220313    13.181135    28.693233    5756.4652 
  131000      130.985    376.50504    15.476136   -435.72334    -420.2472   -9046.5511    9964.9361    5841.1365   -42945.726    15.220316    13.181137    28.693216    5756.4635 
  131500      131.485    366.37948    15.059928   -435.28366   -420.22373   -8815.6941    13583.323    4589.5818   -44619.987    15.220318    13.181139    28.693198    5756.4618 
  132000      131.985    374.50721    15.394016    -435.5954   -420.20139    -8474.048    10574.928    7784.1033   -43781.175     15.22032    13.181141    28.693181      5756.46 
  132500      132.485    366.53059    15.066139   -435.24344    -420.1773    -7724.158    11247.832    7496.4442    -41916.75    15.220323    13.181143    28.693163    5756.4583 
  133000      132.985    373.90414    15.369227   -435.52354   -420.15431    -8485.354    8530.7835    8873.5509   -42860.396    15.220325    13.181145    28.693146    5756.4566 
  133500      133.485    381.96682    15.700641   -435.83111   -420.13047   -8431.4745    10280.393    6388.5693   -41963.386    15.220327    13.181147    28.693128    5756.4549 
  134000      133.985    356.13976    14.639027   -434.74585   -420.10682   -7558.3761    13938.802    5021.7459   -41635.676     15.22033    13.181149    28.693111    5756.4531 
  134500      134.485    382.27392    15.713265   -435.79723   -420.08396   -8294.8138    11729.181    7850.5675    -44464.19    15.220332    13.181151    28.693093    5756.4514 
  135000      134.985     353.6337    14.536016   -434.59638   -420.06036   -7984.5426    12684.868    9194.7856   -45833.281    15.220334    13.181153    28.693076    5756.4497 
  135500      135.485    375.65283    15.441107   -435.47843   -420.03733   -8518.2991    11996.801    7248.9056   -44800.604    15.220337    13.181155    28.693058    5756.4479 
  136000      135.985    372.33936    15.304907   -435.31919   -420.01428   -8036.0122    13084.084     6805.977   -43998.098    15.220339    13.181158    28.693041    5756.4462 
  136500      136.485    346.32971    14.235788   -434.22563   -419.98984   -7659.9172    13550.498    9918.0459   -46448.296    15.220341     13.18116    28.693023    5756.4445 
  137000      136.985    365.39507    15.019464   -434.98633   -419.96687   -7491.5006    13313.804    6710.4412   -42498.747    15.220344    13.181162    28.693006    5756.4428 
  137500      137.485    363.40418    14.937629   -434.88051   -419.94288   -6726.2673    14348.291    9318.7908   -43845.883    15.220346    13.181164    28.692988     5756.441 
  138000      137.985    360.34896    14.812045   -434.73166   -419.91961   -7488.4883    12515.027    7542.3055   -42522.797    15.220349    13.181166    28.692971    5756.4393 
  138500      138.485    357.96626    14.714105   -434.61015   -419.89604   -7663.9758    12372.026    11583.763   -46947.716    15.220351    13.181168    28.692953    5756.4376 
  139000      138.985    373.56297    15.355204   -435.22729   -419.87209   -8368.3209    11246.384    8916.2881   -45267.635    15.220353     13.18117    28.692936    5756.4359 
  139500      139.485    382.16329    15.708717   -435.55709   -419.84837   -7414.6602    11341.795    6090.5038    -39676.28    15.220356    13.181172    28.692918    5756.4341 
  140000      139.985    378.79394    15.570221   -435.39472    -419.8245   -7316.9642    13641.972    8203.9473   -43796.812    15.220358    13.181174    28.692901    5756.4324 
  140500      140.485    376.55941    15.478371   -435.27885   -419.80048   -8097.0497    10863.664      7670.29   -42825.103     15.22036    13.181176    28.692883    5756.4307 
  141000      140.985    372.59207    15.315295   -435.09179    -419.7765   -7627.0752    11410.138    9691.1754   -43982.539    15.220363    13.181178    28.692866     5756.429 
  141500      141.485    364.23911    14.971949   -434.72454   -419.75259   -7543.3865    12573.538     6682.856   -41886.553    15.220365     13.18118    28.692848    5756.4272 
  142000      141.985    373.44376    15.350304   -435.07923   -419.72893   -7884.4829    13582.353    8461.9491    -45697.75    15.220367    13.181182    28.692831    5756.4255 
  142500      142.485    386.90461    15.903608   -435.60831   -419.70471   -7939.4478    11337.938    7352.8764   -42509.158     15.22037    13.181184    28.692813    5756.4238 
  143000      142.985    379.31767    15.591749    -435.2718   -419.68005   -8263.5891    9595.9644    8824.0246   -43210.756    15.220372    13.181186    28.692796     5756.422 
  143500      143.485    386.08567    15.869946   -435.52651   -419.65656   -7878.7279    11920.111    8560.7794   -44117.074    15.220374    13.181188    28.692778    5756.4203 
  144000      143.985    370.97551    15.248847   -434.88106   -419.63221   -7869.5227    9583.0762    8722.5295   -41914.174    15.220377     13.18119    28.692761    5756.4186 
  144500      144.485    394.36421    16.210233   -435.81927   -419.60904   -7970.4395    10723.046    11096.719   -45731.084    15.220379    13.181192    28.692743    5756.4169 
  145000      144.985    370.26192    15.219515   -434.80448   -419.58496   -8356.7681    12131.481     7761.991   -44963.777    15.220381    13.181194    28.692726    5756.4151 
  145500      145.485    371.54667    15.272324    -434.8332   -419.56088   -8220.4399    8578.2177    8763.2799   -42002.817    15.220384    13.181196    28.692708    5756.4134 
  146000      145.985    384.03554    15.785676    -435.3229   -419.53723   -9311.0961    7941.3694    5685.8902   -41560.548    15.220386    13.181199    28.692691    5756.4117 
  146500      146.485    360.70036     14.82649   -434.33871   -419.51222   -7123.8445    11728.343    10363.362   -43463.238    15.220388    13.181201    28.692673      5756.41 
  147000      146.985    387.89694    15.944397   -435.43337   -419.48897   -8287.7056    11025.976    6799.0755   -42688.169    15.220391    13.181203    28.692656    5756.4082 
  147500      147.485    382.64469    15.728505   -435.19368   -419.46518   -8038.3926    13192.044     10147.07   -47454.292    15.220393    13.181205    28.692638    5756.4065 
  148000      147.985    386.00038     15.86644   -435.30705   -419.44061   -7346.2392    11998.439    6129.0022   -40166.159    15.220396    13.181207    28.692621    5756.4048 
  148500      148.485    402.71428     16.55346   -435.97035   -419.41689   -8367.7998     11744.92    6275.8117   -43124.131    15.220398    13.181209    28.692603     5756.403 
  149000      148.985    376.63352    15.481418    -434.8738   -419.39238   -8720.1493    11551.023    7777.5578   -45489.029      15.2204    13.181211    28.692586    5756.4013 
  149500      149.485    371.58685    15.273976   -434.64175   -419.36777   -8580.6454    14082.864    6642.3557   -46467.156    15.220403    13.181213    28.692568    5756.3996 
  150000      149.985    393.85316    16.189226   -435.53298   -419.34376   -8745.8739    9854.2444    7250.3615   -43342.228    15.220405    13.181215    28.692551    5756.3979 
  150500      150.485    366.11314     15.04898   -434.36746   -419.31848   -6374.3167    15280.859    8121.5854   -42525.394    15.220407    13.181217    28.692533    5756.3961 
  151000      150.985    380.35569    15.634416   -434.92904   -419.29462   -7442.0042    12092.734    8598.7311   -43017.477     15.22041    13.181219    28.692516    5756.3944 
  151500      151.485    362.37083    14.895154   -434.16537   -419.27021   -6497.5525    12458.198    11108.101   -43058.956    15.220412    13.181221    28.692498    5756.3927 
  152000      151.985     387.5239    15.929064    -435.1745   -419.24544    -8330.894     12771.48     6786.185   -44550.347    15.220414    13.181223    28.692481     5756.391 
  152500      152.485    382.16323    15.708715   -434.93044   -419.22172   -8271.7493    11122.658    5323.9194   -41261.825    15.220417    13.181225    28.692463    5756.3892 
  153000      152.985    363.91951    14.958812   -434.15559   -419.19678   -8156.3426    12042.862    7436.2829   -43948.172    15.220419    13.181227    28.692446    5756.3875 
  153500      153.485    379.88293    15.614984   -434.78711   -419.17213   -8764.7951    10513.498    7444.9487   -44252.832    15.220421    13.181229    28.692428    5756.3858 
  154000      153.985    377.97475    15.536548   -434.68422   -419.14768    -6306.933    13104.877     9740.709   -41766.385    15.220424    13.181231    28.692411    5756.3841 
  154500      154.485    357.42911    14.692026   -433.81554   -419.12351   -6890.6992    14881.821    7486.9728   -43040.892    15.220426    13.181233    28.692393    5756.3823 
  155000      154.985    377.01295    15.497014    -434.5959   -419.09889   -6947.4826    12353.338    9828.0958   -43023.882    15.220428    13.181235    28.692376    5756.3806 
  155500      155.485    379.32829    15.592186   -434.66684   -419.07466   -8427.9255    11439.938    9630.3318   -46354.046    15.220431    13.181237    28.692358    5756.3789 
  156000      155.985    364.94755    15.001069   -434.05095   -419.04989    -7717.599    12289.448    9582.4077   -45024.653    15.220433     13.18124    28.692341    5756.3771 
  156500      156.485    388.62868    15.974475    -434.9995   -419.02502   -8537.5011    11569.842    6789.1308   -43971.476    15.220435    13.181242    28.692323    5756.3754 
  157000      156.985    369.23312    15.177226    -434.1773   -419.00007   -7954.4939    11845.763    8282.8008   -43992.045    15.220438    13.181244    28.692306    5756.3737 
  157500      157.485    390.80255    16.063832    -435.0395   -418.97566    -7893.662    10551.918    9590.2682   -43823.172     15.22044    13.181246    28.692288     5756.372 
  158000      157.985    365.22895    15.012636   -433.96255   -418.94992   -7756.4814    9940.6756    8538.6602    -41748.78    15.220443    13.181248    28.692271    5756.3702 
  158500      158.485     392.3485    16.127378   -435.05361   -418.92623   -9322.6216    10125.978    6934.4346   -45028.277    15.220445     13.18125    28.692253    5756.3685 
  159000      158.985    385.77386    15.857129   -434.75837   -418.90124   -6627.6185    11624.673    8700.6539   -40208.182    15.220447    13.181252    28.692236    5756.3668 
  159500      159.485    400.37131    16.457153   -435.33414   -418.87698   -8500.8105    10374.409    5197.4998   -41074.341     15.22045    13.181254    28.692218    5756.3651 
  160000      159.985    380.52373    15.641324   -434.49308   -418.85176   -7986.1087    10894.445    8138.1178   -42990.889    15.220452    13.181256    28.692201    5756.3633 
  160500      160.485    377.70937     15.52564   -434.35223   -418.82659   -7235.7847    12614.722    8388.9943    -42711.07    15.220454    13.181258    28.692183    5756.3616 
  161000      160.985    396.69565    16.306066   -435.10843   -418.80236   -6934.2385    15615.579    9132.6974   -45550.992    15.220457     13.18126    28.692166    5756.3599 
  161500      161.485    383.15741     15.74958   -434.52687   -418.77729   -7497.2272    11333.148     10759.64    -44584.47    15.220459    13.181262    28.692148    5756.3581 
  162000      161.985    369.87838     15.20375   -433.95541   -418.75166   -6914.6378    12067.365    8784.4028   -41595.682    15.220461    13.181264    28.692131    5756.3564 
  162500      162.485    393.46596    16.173311   -434.90015   -418.72684   -7881.7006    10501.162    7486.5177   -41632.782    15.220464    13.181266    28.692113    5756.3547 
  163000      162.985    361.45933    14.857687   -433.55905   -418.70136   -7700.9908    11626.837    6234.1864   -40963.996    15.220466    13.181268    28.692096     5756.353 
  163500      163.485    402.24291    16.534085    -435.2118   -418.67772   -8078.9486    9040.3809    12107.103    -45384.33    15.220468     13.18127    28.692078    5756.3512 
  164000      163.985    387.02118      15.9084   -434.56033   -418.65193   -8423.4576    10625.819    6911.7544   -42807.946    15.220471    13.181272    28.692061    5756.3495 
  164500      164.485    387.47212    15.926935   -434.55364   -418.62671   -6352.5592    14316.225     6461.868    -39835.77    15.220473    13.181274    28.692043    5756.3478 
  165000      164.985     384.7847     15.81647   -434.41865   -418.60218     -7442.65    14050.683    8082.5665     -44461.2    15.220475    13.181276    28.692026    5756.3461 
  165500      165.485    373.21448    15.340879   -433.91756   -418.57668   -6980.9457    16209.077    6463.6189   -43615.533    15.220478    13.181278    28.692008    5756.3443 
  166000      165.985    376.13945    15.461109   -434.01316   -418.55205   -7098.6523    13412.968    7848.1817   -42557.107     15.22048    13.181281    28.691991    5756.3426 
  166500      166.485    407.21937    16.738641   -435.26485   -418.52621   -8891.4388    11862.169    7743.6832   -46280.169    15.220482    13.181283    28.691973    5756.3409 
  167000      166.985    388.42325    15.966031    -434.4675   -418.50147   -7516.7332    11334.727    11689.061   -45573.988    15.220485    13.181285    28.691956    5756.3392 
  167500      167.485    412.73266    16.965263    -435.4418   -418.47654   -7494.6451    10411.938    7210.5199   -40106.393    15.220487    13.181287    28.691938    5756.3374 
  168000      167.985    386.32257    15.879684   -434.33053   -418.45085   -7757.8273    10806.981    10981.778   -45062.241     15.22049    13.181289    28.691921    5756.3357 
  168500      168.485    386.34045    15.880418   -434.30532    -418.4249   -7817.7705    13112.063    8205.4673   -44770.842    15.220492    13.181291    28.691903     5756.334 
  169000      168.985     395.0827    16.239766   -434.64009   -418.40032   -8843.2208    10161.025    8718.6448   -45409.332    15.220494    13.181293    28.691886    5756.3322 
  169500      169.485    401.43194     16.50075   -434.87598   -418.37523   -7328.1512    11649.864     6473.075   -40107.392    15.220497    13.181295    28.691868    5756.3305 
  170000      169.985    376.30917    15.468085   -433.81748    -418.3494   -5641.1692    14193.602     8737.349   -39854.458    15.220499    13.181297    28.691851    5756.3288 
  170500      170.485    390.56424    16.054036   -434.37828   -418.32424   -7378.7668     11564.08    8930.7316   -42631.112    15.220501    13.181299    28.691833    5756.3271 
  171000      170.985    422.37308     17.36153   -435.66134   -418.29981   -9525.4998    8520.1451    7310.0877   -44406.732    15.220504    13.181301    28.691816    5756.3253 
  171500      171.485     398.0799    16.362965   -434.63704   -418.27407   -7516.5129    10468.451    7451.6696   -40469.659    15.220506    13.181303    28.691798    5756.3236 
  172000      171.985    379.03518    15.580137   -433.82901   -418.24887   -7229.0763    14307.003     7025.571   -43019.803    15.220508    13.181305    28.691781    5756.3219 
  172500      172.485    387.48198    15.927341   -434.15156   -418.22422   -6632.3478    11792.066    8323.8635   -40012.973    15.220511    13.181307    28.691763    5756.3202 
  173000      172.985     392.1089    16.117529   -434.31539   -418.19786    -7808.017    10962.795    7835.2595   -42222.106    15.220513    13.181309    28.691746    5756.3184 
  173500      173.485     399.1751    16.407983   -434.58131   -418.17333   -7642.4563    11522.399     10207.32   -44657.088    15.220515    13.181311    28.691728    5756.3167 
  174000      173.985    402.51098    16.545103   -434.69234   -418.14724   -7419.4988     11471.69    7665.4052   -41395.591    15.220518    13.181313    28.691711     5756.315 
  174500      174.485    390.24651    16.040976    -434.1621   -418.12112   -6645.4242    15024.586    9087.5237   -44048.382     15.22052    13.181315    28.691693    5756.3132 
  175000      174.985    396.34994    16.291856   -434.38719   -418.09533   -6766.7079     13073.42    9964.2594   -43337.803    15.220522    13.181317    28.691676    5756.3115 
  175500      175.485     355.4994    14.612705   -432.68168   -418.06898   -6925.9103    12919.056     6841.165   -40537.952    15.220525    13.181319    28.691658    5756.3098 
  176000      175.985    408.97066    16.810627   -434.85438   -418.04375   -7005.9759    13769.956     9333.944   -44121.828    15.220527    13.181322    28.691641    5756.3081 
  176500      176.485    376.90694    15.492656   -433.51013   -418.01748   -6179.8461    12415.162    11980.307   -42935.008    15.220529    13.181324    28.691623    5756.3063 
  177000      176.985    403.22453    16.574434   -434.56704    -417.9926   -6381.4188    13723.662    8750.0509   -41617.969    15.220532    13.181326    28.691606    5756.3046 
  177500      177.485    389.78945    16.022189   -433.98888   -417.96669   -6868.4642    11983.881    10144.265   -42733.539    15.220534    13.181328    28.691588    5756.3029 
  178000      177.985    420.96029    17.303458   -435.24403   -417.94057   -8111.5706    12677.231    6389.5529   -43401.496    15.220537     13.18133    28.691571    5756.3012 
  178500      178.485    377.11882    15.501366   -433.41553   -417.91416   -6019.4405    14655.421    11501.474   -44215.216    15.220539    13.181332    28.691553    5756.2994 
  179000      178.985    378.38879    15.553568   -433.44259   -417.88902   -6285.1223    12486.633    9567.8588   -40909.858    15.220541    13.181334    28.691536    5756.2977 
  179500      179.485    392.59033    16.137318   -434.00029   -417.86297   -5800.5646    14248.285    8401.6236   -40051.602    15.220544    13.181336    28.691518     5756.296 
  180000      179.985    403.00564    16.565437   -434.40242   -417.83699   -6979.4319     12005.21     10217.72   -43161.226    15.220546    13.181338    28.691501    5756.2943 
  180500      180.485    414.00472    17.017551    -434.8289   -417.81135   -8483.5125    11019.609    10828.716   -47298.863    15.220548     13.18134    28.691483    5756.2925 
  181000      180.985    418.70165    17.210617   -434.99612    -417.7855   -7525.2249    11645.353    9352.0964   -43573.124    15.220551    13.181342    28.691466    5756.2908 
  181500      181.485    395.91277    16.273886   -434.03277   -417.75888   -7404.3979    10808.132    8906.6863   -41928.012    15.220553    13.181344    28.691448    5756.2891 
  182000      181.985    406.65859     16.71559   -434.44909    -417.7335   -7355.1358    10894.206    8843.4965    -41803.11    15.220555    13.181346    28.691431    5756.2873 
  182500      182.485    407.13014    16.734973   -434.44254   -417.70757   -7415.8814    11431.885    9841.5702   -43521.099    15.220558    13.181348    28.691413    5756.2856 
  183000      182.985     411.2791    16.905515   -434.58702    -417.6815   -7305.1989    11231.645    9705.4995   -42852.742     15.22056     13.18135    28.691396    5756.2839 
  183500      183.485    433.90752     17.83565    -435.4911   -417.65545   -8486.3144    10121.537    9139.9857   -44720.466    15.220562    13.181352    28.691378    5756.2822 
  184000      183.985      415.012    17.058954   -434.68783   -417.62888   -6712.8389    12576.642    8143.8433   -40859.002    15.220565    13.181354    28.691361    5756.2804 
  184500      184.485    410.00146    16.852998   -434.45612   -417.60312   -6725.1448    12014.497    8977.3207   -41167.252    15.220567    13.181356    28.691343    5756.2787 
  185000      184.985    406.63594    16.714659    -434.2911   -417.57645    -7422.004     9699.683    9732.0625   -41697.757    15.220569    13.181358    28.691326     5756.277 
  185500      185.485    403.05439     16.56744   -434.11769   -417.55025   -7313.7816    11756.505    7264.0653   -40961.915    15.220572     13.18136    28.691308    5756.2753 
  186000      185.985    387.62636    15.933275   -433.45721   -417.52394   -7441.1469     8700.181    12220.685   -43244.306    15.220574    13.181363    28.691291    5756.2735 
  186500      186.485    417.02249    17.141595   -434.63998   -417.49839   -6478.3622    14133.351    7473.2751   -41041.713    15.220576    13.181365    28.691273    5756.2718 
  187000      186.985    416.88352    17.135883    -434.6079   -417.47202   -7678.7918    9940.5765    10319.143   -43296.095    15.220579    13.181367    28.691256    5756.2701 
  187500      187.485    375.52732    15.435948   -432.88097   -417.44502   -5861.2329    13943.549    12028.458   -43555.705    15.220581    13.181369    28.691238    5756.2683 
  188000      187.985    408.98736    16.811313   -434.23088   -417.41957   -7380.3498    10986.932    9333.4041   -42461.385    15.220584    13.181371    28.691221    5756.2666 
  188500      188.485    410.21297    16.861692   -434.25447   -417.39278   -7406.1644    12437.782    9642.0787   -44298.354    15.220586    13.181373    28.691203    5756.2649 
  189000      188.985    435.63922    17.906831   -435.27354   -417.36671   -8480.1741    11936.938    8587.2831   -45964.744    15.220588    13.181375    28.691186    5756.2632 
  189500      189.485    418.54744    17.204278   -434.54496   -417.34068   -8150.6354    10526.944    8270.9023   -43249.753    15.220591    13.181377    28.691168    5756.2614 
  190000      189.985    415.46884    17.077733   -434.39238   -417.31465   -7200.1806    14446.445    9030.1741    -45077.16    15.220593    13.181379    28.691151    5756.2597 
  190500      190.485    409.98636    16.852377   -434.14012   -417.28775   -6700.8412    11785.261    9864.2979   -41752.082    15.220595    13.181381    28.691133     5756.258 
  191000      190.985    399.24509     16.41086   -433.67152   -417.26066   -6464.5966     13652.68    10221.308   -43267.778    15.220598    13.181383    28.691116    5756.2563 
  191500      191.485    426.83077    17.544762   -434.77988   -417.23512   -7642.4356    12280.073    7244.4285   -42451.808      15.2206    13.181385    28.691098    5756.2545 
  192000      191.985    411.78431    16.926281   -434.13536   -417.20907   -7681.5388    10506.267    11659.287   -45210.171    15.220602    13.181387    28.691081    5756.2528 
  192500      192.485    403.32742    16.578663   -433.76085   -417.18219   -5863.1896    12744.421    8149.8607   -38483.851    15.220605    13.181389    28.691063    5756.2511 
  193000      192.985    391.16971    16.078924   -433.23439   -417.15546   -4676.4151    15962.175    12722.004   -42713.424    15.220607    13.181391    28.691046    5756.2493 
  193500      193.485    432.63342    17.783278   -434.91296   -417.12968   -8082.2969    11376.404     7562.145    -43185.44    15.220609    13.181393    28.691028    5756.2476 
  194000      193.985    399.05674    16.403118   -433.50568   -417.10257    -7286.533    11607.807    10917.076   -44384.482    15.220612    13.181395    28.691011    5756.2459 
  194500      194.485    424.71499    17.457793    -434.5341    -417.0763   -7201.4946    11971.897    10879.521   -44455.902    15.220614    13.181397    28.690993    5756.2442 
  195000      194.985    427.99146    17.592472   -434.64207    -417.0496   -7944.3624     10627.96    9249.3431   -43710.391    15.220616    13.181399    28.690976    5756.2424 
  195500      195.485     407.2406    16.739513   -433.76256   -417.02305   -7657.8717    12731.052    7658.4019   -43363.069    15.220619    13.181401    28.690958    5756.2407 
  196000      195.985    424.93389    17.466791   -434.46299    -416.9962   -7389.4772    10774.404    8961.2102   -41904.046    15.220621    13.181404    28.690941     5756.239 
  196500      196.485    416.38571     17.11542    -434.0847   -416.96928    -7253.201    9871.0066    10109.369   -41739.978    15.220623    13.181406    28.690923    5756.2373 
  197000      196.985    384.65875    15.811293   -432.75372   -416.94243   -7095.2825    12330.615    11674.604   -45291.066    15.220626    13.181408    28.690906    5756.2355 
  197500      197.485    395.39189    16.252475   -433.16847   -416.91599   -6987.9442     14077.83    9567.1874    -44608.85    15.220628     13.18141    28.690888    5756.2338 
  198000      197.985    412.53524    16.957148   -433.84734   -416.89019   -6412.2109    14292.684    9215.6409   -42744.957    15.220631    13.181412    28.690871    5756.2321 
  198500      198.485    413.00901    16.976622   -433.84006   -416.86343   -7236.4714    10473.744    10325.537   -42508.695    15.220633    13.181414    28.690853    5756.2304 
  199000      198.985    385.16784    15.832218   -432.66823   -416.83601   -5768.7144    13492.798    11409.377   -42208.318    15.220635    13.181416    28.690836    5756.2286 
  199500      199.485    420.29054    17.275927   -434.08549   -416.80956   -6755.2414    13361.693    8187.8342   -41815.251    15.220638    13.181418    28.690818    5756.2269 
  200000      199.985    402.19108    16.531954   -433.31446    -416.7825   -5824.9938    12557.715     10431.39   -40464.087     15.22064     13.18142    28.690801    5756.2252 
  200500      200.485    404.18867    16.614064   -433.37009   -416.75602   -4782.7328    14666.254    9260.1773   -38274.629    15.220642    13.181422    28.690783    5756.2234 
  201000      200.985    418.64303    17.208207   -433.93772   -416.72951   -6449.9019     11686.48    8747.2671   -39783.453    15.220645    13.181424    28.690766    5756.2217 
  201500      201.485    434.97971    17.879722    -434.5827   -416.70298   -7895.7817     12353.52    9034.4449    -45075.31    15.220647    13.181426    28.690748      5756.22 
  202000      201.985    401.46879    16.502265    -433.1782   -416.67594   -7368.5484    13022.656    6455.9951   -41584.296    15.220649    13.181428    28.690731    5756.2183 
  202500      202.485     422.4677    17.365419   -434.01476   -416.64934    -7513.014    13008.697    8810.2439   -44357.983    15.220652     13.18143    28.690713    5756.2165 
  203000      202.985    416.01082    17.100011   -433.72225   -416.62224   -6321.0317    11742.181    10821.074    -41526.35    15.220654    13.181432    28.690696    5756.2148 
  203500      203.485    414.42547    17.034846    -433.6308   -416.59596   -7602.2439    11053.714    9708.4839   -43568.929    15.220656    13.181434    28.690678    5756.2131 
  204000      203.985    411.86299    16.929516    -433.4983   -416.56879   -6569.8231    12785.115    11026.474   -43521.058    15.220659    13.181436    28.690661    5756.2114 
  204500      204.485    376.32582     15.46877    -432.0104   -416.54163   -5518.8333    14212.516    10446.827   -41215.843    15.220661    13.181438    28.690643    5756.2096 
  205000      204.985    421.67455    17.332817   -433.84781   -416.51499    -6788.129    12769.178    10104.853   -43238.419    15.220663     13.18144    28.690626    5756.2079 
  205500      205.485    418.11266    17.186406   -433.67426   -416.48785   -6681.6368     12164.29    8421.4498    -40630.65    15.220666    13.181442    28.690608    5756.2062 
  206000      205.985     424.0089     17.42877    -433.8898   -416.46103   -6382.9665     11478.15    10664.763   -41291.812    15.220668    13.181445    28.690591    5756.2044 
  206500      206.485    428.42319    17.610218   -434.04441   -416.43419   -6856.6265    11674.083    8653.8013   -40897.764     15.22067    13.181447    28.690573    5756.2027 
  207000      206.985    429.65922    17.661025   -434.06795   -416.40693   -6756.3215    13999.603    8501.6836   -42770.251    15.220673    13.181449    28.690556     5756.201 
  207500      207.485    432.96407    17.796869   -434.17733   -416.38047   -6723.4766    14364.951    7518.2634   -42053.644    15.220675    13.181451    28.690538    5756.1993 
  208000      207.985    407.75101    16.760493   -433.11383   -416.35333   -6457.9466    11745.972    11166.919   -42286.731    15.220678    13.181453    28.690521    5756.1975 
  208500      208.485    411.37662    16.909523   -433.23562    -416.3261   -6517.0584    14059.588    10138.374   -43749.138     15.22068    13.181455    28.690503    5756.1958 
  209000      208.985    440.69488    18.114643   -434.41436   -416.29971   -6208.1552    13566.733    8090.4474   -40281.645    15.220682    13.181457    28.690486    5756.1941 
  209500      209.485    405.10324    16.651658    -432.9234   -416.27174   -5445.3647    11027.481    13834.854   -41198.429    15.220685    13.181459    28.690468    5756.1924 
  210000      209.985    411.29488    16.906163    -433.1501   -416.24394    -5770.968    12193.905    9184.8804   -38691.689    15.220687    13.181461    28.690451    5756.1906 
  210500      210.485    416.31567    17.112542   -433.32976   -416.21722    -6272.653    12127.005    9227.8407   -40172.804    15.220689    13.181463    28.690433    5756.1889 
  211000      210.985      417.385    17.156496   -433.34649   -416.18999     -6113.88    13373.853    10827.236   -42542.729    15.220692    13.181465    28.690416    5756.1872 
  211500      211.485    435.42961    17.898215   -434.06161   -416.16339   -7822.1954    13340.852    7292.0747   -44099.512    15.220694    13.181467    28.690398    5756.1854 
  212000      211.985    408.09906      16.7748   -432.91038   -416.13558   -6931.2477    12947.952    10252.274   -43993.969    15.220696    13.181469    28.690381    5756.1837 
[...]
  948500      948.485    587.36834    24.143615   -431.16237   -407.01875   -6113.2298    11559.123    9863.8251   -39762.638    15.224158    13.184489    28.664603    5753.6376 
  949000      948.985    590.85602    24.286975   -431.30214   -407.01516   -4697.5303    15522.716    7541.4458   -37156.752     15.22416    13.184491    28.664586    5753.6359 
  949500      949.485    544.92363    22.398937   -429.41029   -407.01136    -4782.453    14192.624    7120.3475    -35660.33    15.224163    13.184493    28.664568    5753.6342 
  950000      949.985    581.10645    23.886221   -430.89255   -407.00633   -5958.7619    15661.014    6805.2647   -40342.564    15.224165    13.184495    28.664551    5753.6324 
  950500      950.485    582.32472    23.936298   -430.93981   -407.00351   -6358.8116    12832.589    7470.0797   -39379.103    15.224167    13.184497    28.664533    5753.6307 
  951000      950.985    518.92939     21.33045   -428.32972   -406.99927   -5965.2237    15273.744    2672.8643   -35842.279     15.22417    13.184499    28.664516     5753.629 
  951500      951.485    567.96237    23.345938   -430.34124    -406.9953   -4820.4351    15237.767    4440.9782   -34140.051    15.224172    13.184501    28.664498    5753.6272 
  952000      951.985    529.63701    21.770584   -428.76108    -406.9905   -3963.4497    16523.936    7765.4218   -36179.706    15.224174    13.184503    28.664481    5753.6255 
  952500      952.485    573.59298    23.577382   -430.56428    -406.9869   -6766.7696    12714.272    6648.3372   -39662.918    15.224177    13.184505    28.664463    5753.6238 
  953000      952.985    610.57436    25.097492   -432.08088   -406.98339   -7527.9288    12369.993    2364.4145   -37318.194    15.224179    13.184507    28.664446    5753.6221 
  953500      953.485    594.02228    24.417123   -431.39518   -406.97806   -4689.6663    16185.976    6231.4091   -36486.384    15.224181    13.184509    28.664428    5753.6203 
  954000      953.985    557.40828    22.912115   -429.88435   -406.97223   -4865.5363     15072.55    6981.6962   -36650.855    15.224184    13.184511    28.664411    5753.6186 
  954500      954.485    589.74408    24.241269   -431.20902   -406.96776   -4845.5611    13661.327    8195.5305    -36393.54    15.224186    13.184513    28.664393    5753.6169 
  955000      954.985     588.1679     24.17648   -431.13947   -406.96299   -6276.8834    11188.235    5171.8188   -35190.704    15.224188    13.184515    28.664376    5753.6151 
  955500      955.485    586.61066    24.112471   -431.07116   -406.95869   -5347.3709    15656.055    4186.5517   -35884.719    15.224191    13.184517    28.664358    5753.6134 
  956000      955.985    573.90412    23.590172   -430.54461   -406.95444   -5560.0816    12990.237     6559.772   -36230.254    15.224193     13.18452    28.664341    5753.6117 
  956500      956.485    550.19294     22.61553    -429.5653   -406.94977   -4769.8776    12981.049    7941.2811   -35231.963    15.224195    13.184522    28.664323    5753.6099 
  957000      956.985    600.55064    24.685469   -431.63148   -406.94601   -3929.7042    19546.706    4806.7651   -36142.583    15.224198    13.184524    28.664306    5753.6082 
  957500      957.485    542.19746    22.286878   -429.22893   -406.94206   -3834.6982    17726.881    8117.2509   -37348.226      15.2242    13.184526    28.664288    5753.6065 
  958000      957.985    571.27186    23.481973   -430.41946   -406.93749   -5998.5918    13852.748    5103.6039   -36952.128    15.224203    13.184528    28.664271    5753.6048 
  958500      958.485    582.38864    23.938926   -430.87265   -406.93373   -6507.8664    13747.009    5947.1334   -39217.742    15.224205     13.18453    28.664253     5753.603 
  959000      958.985    596.63684    24.524594   -431.45399    -406.9294   -5411.1427    12400.609    5744.7556   -34378.793    15.224207    13.184532    28.664236    5753.6013 
  959500      959.485    592.36914    24.349171   -431.27245   -406.92328   -5493.6056    14542.974    7941.8964   -38965.687     15.22421    13.184534    28.664218    5753.5996 
  960000      959.985    585.39707    24.062586   -430.98091   -406.91833   -7960.3619    10742.956    4151.8312   -38775.873    15.224212    13.184536    28.664201    5753.5978 
  960500      960.485    548.63812     22.55162   -429.46489   -406.91327   -4529.5618     13276.11    9408.3263   -36273.121    15.224214    13.184538    28.664183    5753.5961 
  961000      960.985    585.16011    24.052846   -430.96122   -406.90837    -5433.649    15173.713    6817.8296    -38292.49    15.224217     13.18454    28.664166    5753.5944 
  961500      961.485    577.36425    23.732399   -430.63503   -406.90263   -5436.4048    13665.754    5695.8019    -35670.77    15.224219    13.184542    28.664148    5753.5926 
  962000      961.985    580.97181    23.880687   -430.77791   -406.89723   -5990.8338    16024.226    5151.3081   -39148.036    15.224221    13.184544    28.664131    5753.5909 
  962500      962.485    557.36676    22.910408   -429.80112   -406.89071   -4729.2168    15476.932    6340.1484   -36004.731    15.224224    13.184546    28.664113    5753.5892 
  963000      962.985    566.47378     23.28475   -430.17087   -406.88612   -4805.2235    13940.535     4693.898   -33050.104    15.224226    13.184548    28.664096    5753.5875 
  963500      963.485    570.71679    23.459157   -430.33905   -406.87989   -3928.0705    16553.214    6868.4099   -35205.836    15.224228     13.18455    28.664078    5753.5857 
  964000      963.985    566.70135    23.294104   -430.16907   -406.87497   -6900.6822    12261.307    4390.8829   -37354.237    15.224231    13.184552    28.664061     5753.584 
  964500      964.485    567.40626    23.323079   -430.19133   -406.86825   -5150.8453    17002.672     4649.884   -37105.092    15.224233    13.184554    28.664043    5753.5823 
  965000      964.985    542.61054    22.303858   -429.16718   -406.86332   -4475.4485    14732.214     6199.909   -34358.469    15.224235    13.184556    28.664026    5753.5805 
  965500      965.485    566.15112    23.271487   -430.12969   -406.85821   -4747.7984    11175.552    8133.9172   -33552.864    15.224238    13.184558    28.664008    5753.5788 
  966000      965.985    562.25653    23.111401   -429.96434   -406.85294   -5561.3025    15380.506    7424.6638   -39489.077     15.22424    13.184561    28.663991    5753.5771 
  966500      966.485    567.49514    23.326732   -430.17397   -406.84723   -4491.6074    16023.717    9749.8291   -39248.368    15.224242    13.184563    28.663973    5753.5754 
  967000      966.985    587.38721     24.14439   -430.98719    -406.8428   -5911.0558    12925.104    7997.7747   -38656.046    15.224245    13.184565    28.663956    5753.5736 
  967500      967.485    562.95871    23.140264   -429.97716   -406.83689   -5754.0404    16463.642     4242.272   -37968.035    15.224247    13.184567    28.663938    5753.5719 
  968000      967.985    572.77125    23.543605   -430.37547   -406.83186   -5797.1551    15222.181    5655.1087   -38268.755     15.22425    13.184569    28.663921    5753.5702 
  968500      968.485    570.14607    23.435698   -430.26163   -406.82593    -5131.807    14743.569    8171.6644   -38310.654    15.224252    13.184571    28.663903    5753.5684 
  969000      968.985    567.25017    23.316663   -430.13645   -406.81979   -5104.3412    13617.445    7329.6442   -36260.113    15.224254    13.184573    28.663886    5753.5667 
  969500      969.485    547.72982    22.514284    -429.3272   -406.81291   -4345.2818    12308.832    11532.072   -36876.749    15.224257    13.184575    28.663868     5753.565 
  970000      969.985    593.17573    24.382326   -431.18825   -406.80592   -5464.2154    11275.297    7240.0419   -34907.986    15.224259    13.184577    28.663851    5753.5632 
  970500      970.485    541.56655    22.260945   -429.06072   -406.79978   -4205.2494    15446.035    9177.4041   -37239.187    15.224261    13.184579    28.663833    5753.5615 
  971000      970.985    592.02365     24.33497   -431.12863   -406.79366    -6077.244    15604.106    3236.5071   -37072.345    15.224264    13.184581    28.663816    5753.5598 
  971500      971.485    563.17297    23.149071   -429.93694   -406.78787   -6543.9936    11417.549    6090.4655   -37139.996    15.224266    13.184583    28.663798    5753.5581 
  972000      971.985    581.37435    23.897234   -430.67828   -406.78105   -5736.1308    15015.758    2443.8623   -34668.013    15.224268    13.184585    28.663781    5753.5563 
  972500      972.485    583.48166    23.983854   -430.75933   -406.77548   -5379.6798    15404.638    6702.2923    -38245.97    15.224271    13.184587    28.663763    5753.5546 
  973000      972.985    522.99362     21.49751   -428.26663   -406.76912   -3795.1109    18248.764    2751.5716   -32385.669    15.224273    13.184589    28.663746    5753.5529 
  973500      973.485    566.41531    23.282346   -430.04481   -406.76246   -5964.6286    13997.835    3346.8092    -35238.53    15.224275    13.184591    28.663728    5753.5511 
  974000      973.985    562.17264    23.107952   -429.86274   -406.75478   -5593.7623    15076.847    7109.9619   -38968.096    15.224278    13.184593    28.663711    5753.5494 
  974500      974.485     531.7347    21.856809   -428.60444   -406.74763   -3354.3086    14851.827    5660.7247   -30575.477     15.22428    13.184595    28.663693    5753.5477 
  975000      974.985     579.2787    23.811092   -430.55189    -406.7408   -6205.9467    11036.694    10119.791   -39774.325    15.224282    13.184597    28.663676    5753.5459 
  975500      975.485    572.95331    23.551089   -430.28524   -406.73416   -4541.9627    15164.713    8650.3277   -37440.929    15.224285    13.184599    28.663658    5753.5442 
  976000      975.985    591.44767    24.311295   -431.03851   -406.72721   -4662.3178    11828.609    8380.6895   -34196.252    15.224287    13.184602    28.663641    5753.5425 
  976500      976.485    581.76838     23.91343    -430.6328   -406.71938    -6297.038     15101.87    5984.9585   -39977.942    15.224289    13.184604    28.663623    5753.5408 
  977000      976.985    582.81146    23.956306   -430.66998   -406.71367   -5781.4782     15307.82     5624.779   -38277.034    15.224292    13.184606    28.663606     5753.539 
  977500      977.485    570.57735    23.453426   -430.15962   -406.70619   -5011.0012    15354.293    9625.5986   -40012.895    15.224294    13.184608    28.663588    5753.5373 
  978000      977.985    578.96395    23.798155   -430.49741   -406.69926   -6215.6598    15003.137    5210.5925   -38860.709    15.224297     13.18461    28.663571    5753.5356 
  978500      978.485    566.08932    23.268946   -429.96306   -406.69411   -4674.9772    12299.052    8650.5884   -34974.573    15.224299    13.184612    28.663553    5753.5338 
  979000      978.985     560.7307    23.048682   -429.73492   -406.68624   -5173.3943    14836.782      5364.26   -35721.225    15.224301    13.184614    28.663536    5753.5321 
  979500      979.485    573.10976     23.55752     -430.237   -406.67948   -5619.6765     12543.33    6571.8493   -35974.209    15.224304    13.184616    28.663518    5753.5304 
  980000      979.985    568.69233    23.375943    -430.0493   -406.67336   -5246.8708    16472.564    5929.1382   -38142.315    15.224306    13.184618    28.663501    5753.5286 
  980500      980.485    548.71993    22.554982    -429.2201   -406.66512   -5586.8197    12777.472    9826.8588    -39364.79    15.224308     13.18462    28.663483    5753.5269 
  981000      980.985    590.69288    24.280269   -430.93765   -406.65738   -5291.8408    11134.239     5659.327   -32669.089    15.224311    13.184622    28.663466    5753.5252 
  981500      981.485    581.04067    23.883517   -430.53343   -406.64991   -5059.5506    15460.062    6663.0494   -37301.763    15.224313    13.184624    28.663448    5753.5234 
  982000      981.985    569.23152    23.398106   -430.03995   -406.64184   -4820.9166    17590.057     7318.632   -39371.439    15.224315    13.184626    28.663431    5753.5217 
  982500      982.485    547.64564    22.510824   -429.14423    -406.6334   -6731.1006    10840.119     7541.661   -38575.082    15.224318    13.184628    28.663413      5753.52 
  983000      982.985    592.88665    24.370443   -430.99671   -406.62626   -5395.8603    13924.536    4941.4273   -35053.544     15.22432     13.18463    28.663396    5753.5183 
  983500      983.485    569.34335    23.402702   -430.01933   -406.61663   -5569.7738     13437.01    8103.6343   -38249.965    15.224322    13.184632    28.663378    5753.5165 
  984000      983.985    529.04657    21.746314   -428.35582   -406.60951   -4113.2495    16631.108    6868.2299   -35839.087    15.224325    13.184634    28.663361    5753.5148 
  984500      984.485    566.52732     23.28695   -429.88864   -406.60169   -6087.0644    10510.394    7013.8149   -35785.402    15.224327    13.184636    28.663343    5753.5131 
  985000      984.985    594.76081     24.44748   -431.04154   -406.59406   -4848.4989    13978.345    7637.8155   -36161.657    15.224329    13.184638    28.663326    5753.5113 
  985500      985.485    584.76479    24.036596    -430.6222   -406.58561   -4071.8105    15375.601     7930.196   -35521.229    15.224332     13.18464    28.663308    5753.5096 
  986000      985.985    563.94525    23.180815   -429.75863   -406.57781   -4647.2326    15701.176    8845.0061    -38487.88    15.224334    13.184643    28.663291    5753.5079 
  986500      986.485    593.11275    24.379737   -430.95058   -406.57084    -6468.136    12224.828    3937.3085   -35566.545    15.224336    13.184645    28.663273    5753.5061 
  987000      986.985    564.51407    23.204196   -429.76791   -406.56371   -5256.6521    15550.614    4319.2039   -35639.774    15.224339    13.184647    28.663256    5753.5044 
  987500      987.485    561.50552    23.080531   -429.63577   -406.55524   -3900.2255    15242.861    8013.3176   -34956.855    15.224341    13.184649    28.663238    5753.5027 
  988000      987.985    566.17288    23.272381   -429.81986   -406.54748   -5976.7021    13685.711    4423.3411   -36039.159    15.224344    13.184651    28.663221     5753.501 
  988500      988.485    567.43766     23.32437    -429.8635   -406.53913   -4627.9847    15724.894    4040.5044   -33649.352    15.224346    13.184653    28.663203    5753.4992 
  989000      988.985    544.16325    22.367681   -428.89745   -406.52977   -4606.4607    15346.615    4504.6803   -33670.677    15.224348    13.184655    28.663186    5753.4975 
  989500      989.485    592.93004    24.372227   -430.89481   -406.52258   -6366.6561    11202.924    3897.5504   -34200.443    15.224351    13.184657    28.663168    5753.4958 
  990000      989.985    575.38071    23.650866   -430.16525   -406.51438   -5923.6966    14222.276    7113.5632   -39106.929    15.224353    13.184659    28.663151     5753.494 
  990500      990.485    586.00708     24.08766   -430.59301   -406.50535   -6798.5088    11608.447    7648.1674   -39652.141    15.224355    13.184661    28.663133    5753.4923 
  991000      990.985    586.83246    24.121588   -430.61929    -406.4977   -6445.0756    14845.697    2087.9941   -36268.918    15.224358    13.184663    28.663116    5753.4906 
  991500      991.485    563.02284      23.1429   -429.63157   -406.48867   -4287.3696    15265.352    9496.6761   -37624.137     15.22436    13.184665    28.663098    5753.4888 
  992000      991.985    571.97463    23.510861   -429.99092   -406.48006   -4938.0136    15740.106    6636.6999   -37190.846    15.224362    13.184667    28.663081    5753.4871 
  992500      992.485    597.45732    24.558319   -431.02828   -406.46996   -5384.1108    17438.801    4837.1788   -38428.312    15.224365    13.184669    28.663063    5753.4854 
  993000      992.985    564.90477    23.220256   -429.68174   -406.46148     -4567.21    13200.688    4954.6354   -31856.954    15.224367    13.184671    28.663046    5753.4837 
  993500      993.485    594.10547    24.420542   -430.87184    -406.4513   -4621.7219      13681.2    5958.0855   -33504.451    15.224369    13.184673    28.663028    5753.4819 
  994000      993.985    608.33803    25.005568   -431.44713   -406.44156   -5412.5676    14692.376    5781.1171   -36711.196    15.224372    13.184675    28.663011    5753.4802 
  994500      994.485    569.66614    23.415971   -429.84698   -406.43101   -5625.5084    14819.752    9013.3162   -40709.594    15.224374    13.184677    28.662993    5753.4785 
  995000      994.985    564.30446     23.19558   -429.61764   -406.42206   -4927.4148    15774.664    10722.342   -41279.251    15.224376    13.184679    28.662976    5753.4767 
  995500      995.485    576.10796     23.68076   -430.09323   -406.41247   -4916.6461    16211.666    4587.5129   -35549.117    15.224379    13.184681    28.662958     5753.475 
  996000      995.985     578.9609    23.798029   -430.20181   -406.40378   -6113.3294    13895.735    9749.4668    -41985.19    15.224381    13.184684    28.662941    5753.4733 
  996500      996.485    557.48315    22.915192   -429.30986   -406.39467    -4353.114    13867.535    8044.8869   -34971.764    15.224383    13.184686    28.662923    5753.4715 
  997000      996.985    595.89546     24.49412    -430.8796   -406.38548   -5341.0541    13067.129    7421.2228   -36511.514    15.224386    13.184688    28.662906    5753.4698 
  997500      997.485    564.88111    23.219283   -429.59652   -406.37724   -4999.3232    13485.032    7256.7129   -35739.715    15.224388     13.18469    28.662888    5753.4681 
  998000      997.985    566.34878    23.279611   -429.64915   -406.36954   -5332.9726    15608.545    8570.8926   -40178.355    15.224391    13.184692    28.662871    5753.4664 
  998500      998.485    576.78652    23.708652   -430.06878   -406.36013   -5405.7007    11844.218    6082.5382   -34143.858    15.224393    13.184694    28.662853    5753.4646 
  999000      998.985    563.69833    23.170666   -429.51957    -406.3489   -4752.6416    12806.214    7134.5876   -34198.727    15.224395    13.184696    28.662836    5753.4629 
  999500      999.485    592.20691    24.342503   -430.68343   -406.34093   -5207.1622    14724.384    8784.2907   -39130.161    15.224398    13.184698    28.662818    5753.4612 
 1000000      999.985    596.65945    24.525523   -430.85659   -406.33107   -4909.8583    16463.092    7570.1658   -38762.832      15.2244      13.1847    28.662801    5753.4594 
 1000015         1000    597.52525    24.561112   -430.89177   -406.33065   -4707.3662    17842.108    6058.2712   -38022.478      15.2244      13.1847      28.6628    5753.4594 
Loop time of 877.717 on 28 procs for 1000000 steps with 319 atoms

Performance: 98.437 ns/day, 0.244 hours/ns, 1139.320 timesteps/s
86.7% CPU use with 28 MPI tasks x no OpenMP threads

MPI task timing breakdown:
Section |  min time  |  avg time  |  max time  |%varavg| %total
---------------------------------------------------------------
Pair    | 736.57     | 762.64     | 793.07     |  58.4 | 86.89
Neigh   | 0.037439   | 0.053893   | 0.068053   |   4.0 |  0.01
Comm    | 73.962     | 101.65     | 128.87     | 159.4 | 11.58
Output  | 0.10053    | 0.10289    | 0.12305    |   1.3 |  0.01
Modify  | 4.9818     | 8.2068     | 11.018     |  65.3 |  0.94
Other   |            | 5.06       |            |       |  0.58

Nlocal:    11.3929 ave 17 max 7 min
Histogram: 2 2 4 1 8 0 6 0 4 1
Nghost:    644.036 ave 704 max 594 min
Histogram: 4 5 3 2 2 2 2 1 5 2
Neighs:    689.964 ave 1009 max 411 min
Histogram: 3 2 3 4 4 1 5 2 3 1
FullNghs:  1379.93 ave 2078 max 853 min
Histogram: 4 4 1 5 3 3 3 1 3 1

Total # of neighbors = 38638
Ave neighs/atom = 121.122
Neighbor list builds = 799
Dangerous builds = 0

write_restart   POSCAR_1x1x1.rest

#unfix    1
#undump   1
Total wall time: 0:14:37
