LAMMPS (7 Dec 2015)
#----------- Initialize Simulation ------------ restart01
#processors	2 2 2
units		metal
boundary	p p p     ## periodic boundary condition  on x y z axis ##
atom_style atomic
#atom_modify map array sort 0 0.0

read_data	POSCAR_1x1x1.lammps
  triclinic box = (0 0 0) to (15.3624 13.3042 27.6481) with tilt (-7.6811 0 0)
  2 by 2 by 7 MPI processor grid
  reading atoms ...
  319 atoms

#----------- Define Potential -----------------
pair_style meam
pair_coeff * * MgAlZn.library.meam Mg Al Zn MgAlZn.parameter.meam Mg Al Zn 	#1=Mg 2=Al 3=Zn	#atoms/mass

#----------- Neighbor List --------------------
neighbor 2.0 bin
neigh_modify delay 10 check yes

#--------------  Run a simulation (minimization) ---------------------------------------
minimize       1.0e-4   1.0e-6   100   1000          #結構優化的條件
WARNING: Resetting reneighboring criteria during minimization (../min.cpp:168)
Neighbor list info ...
  2 neighbor list requests
  update every 1 steps, delay 0 steps, check yes
  max neighbors/atom: 2000, page size: 100000
  master list distance cutoff = 8
  ghost atom cutoff = 8
  binsize = 4 -> bins = 6 4 7
Memory usage per processor = 8.02805 Mbytes
Step Temp E_pair E_mol TotEng Press 
       0            0   -434.97913            0   -434.97913   -7278.8689 
      13            0   -456.78123            0   -456.78123   -22318.289 
Loop time of 0.0205949 on 28 procs for 13 steps with 319 atoms

88.4% CPU use with 28 MPI tasks x no OpenMP threads

Minimization stats:
  Stopping criterion = energy tolerance
  Energy initial, next-to-last, final = 
        -434.979125215     -456.745804748     -456.781233929
  Force two-norm initial, final = 20.531 0.747703
  Force max component initial, final = 3.34191 0.105363
  Final line search alpha, max atom move = 0.432138 0.0455312
  Iterations, force evaluations = 13 22

MPI task timing breakdown:
Section |  min time  |  avg time  |  max time  |%varavg| %total
---------------------------------------------------------------
Pair    | 0.016846   | 0.017558   | 0.018409   |   0.3 | 85.25
Neigh   | 0          | 0          | 0          |   0.0 |  0.00
Comm    | 0.0012293  | 0.0020288  | 0.0027573  |   0.8 |  9.85
Output  | 0          | 0          | 0          |   0.0 |  0.00
Modify  | 0          | 0          | 0          |   0.0 |  0.00
Other   |            | 0.001009   |            |       |  4.90

Nlocal:    11.3929 ave 17 max 6 min
Histogram: 2 1 5 2 4 5 3 2 3 1
Nghost:    643.357 ave 684 max 589 min
Histogram: 6 2 0 0 3 3 2 1 4 7
Neighs:    704 ave 1042 max 376 min
Histogram: 2 1 4 3 5 3 4 2 2 2
FullNghs:  1408 ave 2122 max 731 min
Histogram: 2 1 5 2 4 5 3 2 3 1

Total # of neighbors = 39424
Ave neighs/atom = 123.586
Neighbor list builds = 0
Dangerous builds = 0
velocity all  create 600.0 4928459 #rot yes dist gaussian

#--------------  Run a simulation (Relaxation)  ----------------------------------------
fix  1  all  nvt   temp  600.0  600.0  100				#damping constant
#fix  2  all  npt   temp  393.0  393.0  50 iso 0.0 0.0 1000.0
fix  2  all deform 1 x final 0 15.3671 y final 0 13.3083 z final 0 27.6132 xy final -7.68345 units lattice
#fix  3  all  npt   temp  393.0  393.0  50 z 0.0 0.0 1000.0

#variable b equal 1
#fix 2 all efield  0.0  0.0  v_b
#compute pot all pe/atom


#----------- Output --------------------------
thermo	 500
timestep  0.001		#1.0 fs
thermo_style	custom step time temp ke pe etotal press pxx pyy pzz lx ly lz vol

dump 1 all custom 10000 dump.eq id type x y z
dump_modify 1 sort  id

run        1000000	#1000 ps
Neighbor list info ...
  2 neighbor list requests
  update every 1 steps, delay 10 steps, check yes
  max neighbors/atom: 2000, page size: 100000
  master list distance cutoff = 8
  ghost atom cutoff = 8
  binsize = 4 -> bins = 6 4 7
Memory usage per processor = 7.56165 Mbytes
Step Time Temp KinEng PotEng TotEng Press Pxx Pyy Pzz Lx Ly Lz Volume 
      13            0          600    24.662836   -456.78123    -432.1184   -17656.539   -7504.2089   -9207.3767   -36258.032      15.3624      13.3042      27.6481    5650.8415 
     500        0.487    322.34692    13.249982   -445.36464   -432.11466   -10612.384   -1252.3801   -4225.3314    -26359.44    15.362402    13.304202    27.648083    5650.8397 
    1000        0.987     287.9316     11.83535   -443.94951   -432.11416   -10775.448   -1879.1607   -2825.7523   -27621.432    15.362405    13.304204    27.648066    5650.8379 
    1500        1.487    302.54664    12.436097    -444.5494    -432.1133   -10082.853   -1396.5932   -3824.1533   -25027.814    15.362407    13.304206    27.648048     5650.836 
    2000        1.987    296.04795     12.16897   -444.28129   -432.11232   -9800.0131    -1392.733   -4028.2645   -23979.042    15.362409    13.304208    27.648031    5650.8342 
    2500        2.487    311.88712    12.820035    -444.9315   -432.11146    -11387.42   -1838.3646   -5094.4499   -27229.446    15.362412     13.30421    27.648013    5650.8324 
    3000        2.987    301.15581    12.378927   -444.48865   -432.10972   -10439.856   -794.87352   -807.23396   -29717.461    15.362414    13.304212    27.647996    5650.8306 
    3500        3.487    303.99939    12.495812   -444.60344   -432.10763   -10738.109   -1177.1713   -3731.7884   -27305.367    15.362416    13.304214    27.647978    5650.8287 
    4000        3.987    319.04406    13.114219    -445.2198   -432.10559   -10641.461   -3293.2982   -4651.0873   -23979.997    15.362419    13.304216    27.647961    5650.8269 
    4500        4.487    307.23296    12.628727    -444.7314   -432.10267    -10146.32    -1220.813   -2392.0423   -26826.104    15.362421    13.304218    27.647943    5650.8251 
    5000        4.987    302.77519    12.445491   -444.54554   -432.10004    -10738.93   -2574.4126   -1885.3167    -27757.06    15.362423     13.30422    27.647926    5650.8232 
    5500        5.487    329.43201    13.541212   -445.63827   -432.09706   -11903.577   -2771.5509   -2156.6441   -30782.537    15.362426    13.304222    27.647909    5650.8214 
    6000        5.987    313.83819    12.900233   -444.99355   -432.09332   -11183.163   -1666.8508   -2672.9107   -29209.727    15.362428    13.304225    27.647891    5650.8196 
    6500        6.487    310.31661    12.755479   -444.84552   -432.09004   -10872.522   -2625.0358   -573.99095    -29418.54     15.36243    13.304227    27.647874    5650.8177 
    7000        6.987    301.37044     12.38775   -444.47333   -432.08558    -11484.02   -3032.9277   -2992.2119   -28426.922    15.362433    13.304229    27.647856    5650.8159 
    7500        7.487    309.31418    12.714275   -444.79559   -432.08132   -10398.186    -2830.358   -1442.1611    -26922.04    15.362435    13.304231    27.647839    5650.8141 
    8000        7.987    298.67291    12.276868   -444.35344   -432.07658   -10301.923   -1538.7779   -2107.7722   -27259.219    15.362438    13.304233    27.647821    5650.8122 
    8500        8.487    297.42036    12.225382   -444.29692   -432.07154    -10870.31   -854.63834   -4586.7678   -27169.524     15.36244    13.304235    27.647804    5650.8104 
    9000        8.987    322.21032    13.244367   -445.31062   -432.06626   -11168.414   -1209.8455   -4312.9868   -27982.411    15.362442    13.304237    27.647786    5650.8086 
    9500        9.487    299.38259    12.306039   -444.36633   -432.06029   -11019.492   -3571.5008   -1437.5395   -28049.435    15.362445    13.304239    27.647769    5650.8067 
   10000        9.987    309.96239    12.740919   -444.79532    -432.0544   -11958.641   -4288.1964   -1434.8916   -30152.834    15.362447    13.304241    27.647751    5650.8049 
   10500       10.487    320.94264    13.192259    -445.2405   -432.04824   -11640.874   -3804.7346   -5481.9657   -25635.922    15.362449    13.304243    27.647734    5650.8031 
   11000       10.987    311.18272    12.791081   -444.83279   -432.04171   -10750.185    84.483244   -2939.6387   -29395.401    15.362452    13.304245    27.647717    5650.8012 
   11500       11.487     312.8649    12.860226   -444.89494   -432.03471   -10047.895   -3015.9942   -3041.7953   -24085.894    15.362454    13.304247    27.647699    5650.7994 
   12000       11.987    321.38595    13.210481   -445.23763   -432.02714   -10710.965   -425.21431   -3750.4462   -27957.233    15.362456    13.304249    27.647682    5650.7976 
   12500       12.487    340.89871    14.012548   -446.03269   -432.02014   -11601.746   -3282.0233   -4476.7432    -27046.47    15.362459    13.304251    27.647664    5650.7958 
   13000       12.987    326.74911    13.430933   -445.44307   -432.01213   -12131.212   -2508.6499   -2734.6635   -31150.321    15.362461    13.304253    27.647647    5650.7939 
   13500       13.487    324.51367    13.339045    -445.3435   -432.00445   -11741.483   -1124.3444   -5534.6186   -28565.485    15.362463    13.304255    27.647629    5650.7921 
   14000       13.987    307.27898    12.630618   -444.62615   -431.99553   -10256.048   -3022.3132   -2545.6816    -25200.15    15.362466    13.304257    27.647612    5650.7903 
   14500       14.487    310.98413    12.782918    -444.7701   -431.98718   -10338.077   -2520.4196   -2859.8626    -25633.95    15.362468    13.304259    27.647594    5650.7884 
   15000       14.987    333.79107    13.720391   -445.69848   -431.97809   -11545.271   -3550.3586   -5761.6019   -25323.853     15.36247    13.304261    27.647577    5650.7866 
   15500       15.487    346.40697    14.238964   -446.20792   -431.96895   -10615.181   -3188.5214   -2765.3518   -25891.671    15.362473    13.304263     27.64756    5650.7848 
   16000       15.987    306.32663    12.591472   -444.55024   -431.95877   -10572.208   -1068.1287   -3139.3622   -27509.134    15.362475    13.304266    27.647542    5650.7829 
   16500       16.487    300.99403    12.372277   -444.32103   -431.94875   -9884.2456   -1763.0013   -4753.7814   -23135.954    15.362477    13.304268    27.647525    5650.7811 
   17000       16.987    284.96488    11.713403   -443.65149   -431.93809   -9602.8398   -235.51565   -3043.4494   -25529.554     15.36248     13.30427    27.647507    5650.7793 
   17500       17.487     320.4842    13.173415   -445.10138   -431.92796   -11384.287   -3852.2346   -2491.2023   -27809.425    15.362482    13.304272     27.64749    5650.7774 
   18000       17.987    312.27018     12.83578   -444.75289   -431.91711   -10904.808   -186.38433   -3818.9995   -28709.041    15.362485    13.304274    27.647472    5650.7756 
   18500       18.487    301.20537    12.380964   -444.28657    -431.9056   -9879.5425   -3123.5135   -89.322566   -26425.792    15.362487    13.304276    27.647455    5650.7738 
   19000       18.987    310.22526    12.751724   -444.64589   -431.89416   -10873.813   -659.48252   -2343.4837   -29618.473    15.362489    13.304278    27.647437    5650.7719 
   19500       19.487    325.59524    13.383503   -445.26633   -431.88283    -11126.29    -1659.956   -3576.8184   -28142.095    15.362492     13.30428     27.64742    5650.7701 
   20000       19.987    336.19104    13.819041   -445.68974    -431.8707    -11094.12   -2181.8848   -3041.6529   -28058.822    15.362494    13.304282    27.647402    5650.7683 
   20500       20.487    313.75206    12.896693   -444.75505   -431.85836     -9967.54   -1931.6416   -2615.4525   -25355.526    15.362496    13.304284    27.647385    5650.7665 
   21000       20.987    307.00876    12.619511   -444.46488   -431.84536   -10812.676   -3175.2031   -3063.4033   -26199.421    15.362499    13.304286    27.647368    5650.7646 
   21500       21.487    323.90215    13.313909   -445.14654   -431.83263   -10751.747   -3494.8596   -3122.3825   -25637.998    15.362501    13.304288     27.64735    5650.7628 
   22000       21.987    311.10617    12.787934    -444.6075   -431.81956   -10629.524    -2023.411   -3020.5888   -26844.572    15.362503     13.30429    27.647333     5650.761 
   22500       22.487    288.41875    11.855374   -443.66091   -431.80554   -8308.3812   -715.39597    -125.7336   -24084.014    15.362506    13.304292    27.647315    5650.7591 
   23000       22.987    315.49886    12.968494   -444.76086   -431.79237    -10160.87   -1455.1918   -5317.1131   -23710.304    15.362508    13.304294    27.647298    5650.7573 
   23500       23.487    316.47038    13.008428   -444.78666   -431.77823   -10629.351   -3345.7757   -1414.0209   -27128.257     15.36251    13.304296     27.64728    5650.7555 
   24000       23.987    302.71122    12.442862   -444.20647    -431.7636    -10108.94   -280.00271   -3149.0832   -26897.734    15.362513    13.304298    27.647263    5650.7536 
   24500       24.487    303.17531    12.461938   -444.21099   -431.74905    -9191.592    327.52445   -2098.5054   -25803.795    15.362515      13.3043    27.647245    5650.7518 
   25000       24.987    300.61402    12.356657   -444.09101   -431.73435   -9244.3241   -623.21104   -2102.7054   -25007.056    15.362517    13.304302    27.647228      5650.75 
   25500       25.487    318.53251    13.093192   -444.81284   -431.71965   -10088.695   -478.38845   -2582.2351   -27205.463     15.36252    13.304304    27.647211    5650.7481 
   26000       25.987    330.16151    13.571198   -445.27585   -431.70465   -10974.159   -4303.6261   -1707.2644   -26911.587    15.362522    13.304307    27.647193    5650.7463 
   26500       26.487    324.14027    13.323697   -445.01231   -431.68861    -11112.92    -1813.419   -5035.6356   -26489.707    15.362524    13.304309    27.647176    5650.7445 
   27000       26.987    318.04994    13.073356   -444.74618   -431.67283   -10904.059   -1085.0877   -2789.2976   -28837.791    15.362527    13.304311    27.647158    5650.7426 
   27500       27.487    315.96382    12.987606   -444.64439   -431.65679   -10244.672   -2119.7585   -2889.2195   -25725.037    15.362529    13.304313    27.647141    5650.7408 
   28000       27.987    304.18249    12.503338   -444.14371   -431.64037   -10602.697   -154.50012   -5856.0454   -25797.544    15.362532    13.304315    27.647123     5650.739 
   28500       28.487    329.64647    13.550028   -445.17444   -431.62441   -11120.631   -1779.8486   -4457.8103   -27124.234    15.362534    13.304317    27.647106    5650.7371 
   29000       28.987    318.37437    13.086691   -444.69386   -431.60717   -10833.484   -1772.6743   -2943.9452   -27783.832    15.362536    13.304319    27.647088    5650.7353 
   29500       29.487    317.69929    13.058942   -444.64952   -431.59058   -10371.318   -713.20639   -2698.7481       -27702    15.362539    13.304321    27.647071    5650.7335 
   30000       29.987    314.08866    12.910528   -444.48375   -431.57322   -11022.603    -2821.249   -2856.5649   -27389.994    15.362541    13.304323    27.647053    5650.7317 
   30500       30.487    320.65494    13.180434   -444.73678   -431.55635   -10455.273   -2223.3242   -2607.9463   -26534.549    15.362543    13.304325    27.647036    5650.7298 
   31000       30.987    328.98816    13.522968   -445.06205   -431.53908   -10332.304   -767.57651   -2966.5041   -27262.833    15.362546    13.304327    27.647019     5650.728 
   31500       31.487     328.1015    13.486522   -445.00794   -431.52142   -10397.841     62.72924   -2071.6679   -29184.585    15.362548    13.304329    27.647001    5650.7262 
   32000       31.987    318.39422    13.087507   -444.59124   -431.50373   -9179.4789    1282.5878   -640.37151   -28180.653     15.36255    13.304331    27.646984    5650.7243 
   32500       32.487     325.8835    13.395352   -444.88155    -431.4862    -10416.31   -2938.3774    -4116.574   -24193.978    15.362553    13.304333    27.646966    5650.7225 
   33000       32.987    312.71108    12.853903   -444.32168   -431.46777   -10824.483   -2556.0076     -2195.82   -27721.623    15.362555    13.304335    27.646949    5650.7207 
   33500       33.487    323.70141    13.305658   -444.75515   -431.44949   -10492.522   -1805.8277   -4005.0029   -25666.734    15.362557    13.304337    27.646931    5650.7188 
   34000       33.987      315.583    12.971953   -444.40347   -431.43151   -11060.776     -2981.73   -4077.3161   -26123.282     15.36256    13.304339    27.646914     5650.717 
   34500       34.487    341.77362    14.048511   -445.46204   -431.41353   -11079.228   -1817.9412   -3379.0497   -28040.693    15.362562    13.304341    27.646896    5650.7152 
   35000       34.987    345.16267    14.187817   -445.58276   -431.39495   -10137.838   -2742.5932   -2467.8178   -25203.102    15.362564    13.304343    27.646879    5650.7133 
   35500       35.487    311.57537     12.80722   -444.18283   -431.37561   -10528.473   -1136.3289   -2243.7295   -28205.361    15.362567    13.304345    27.646862    5650.7115 
   36000       35.987    333.32022    13.701037    -445.0582   -431.35717   -10642.243   -610.31473   -3574.8529   -27741.561    15.362569    13.304348    27.646844    5650.7097 
   36500       36.487    315.97267     12.98797   -444.32584   -431.33787   -10518.735   -2084.5098   -3010.6678   -26461.029    15.362571     13.30435    27.646827    5650.7078 
   37000       36.987    319.87389    13.148329   -444.46782   -431.31949   -10533.202   -168.88942   -5510.1557    -25920.56    15.362574    13.304352    27.646809     5650.706 
   37500       37.487    333.45198    13.706452   -445.00705   -431.30059   -11770.172    -1098.097   -3798.8873   -30413.532    15.362576    13.304354    27.646792    5650.7042 
   38000       37.987    326.21488    13.408973    -444.6902   -431.28123   -10658.425   -2253.6161   -1692.1376   -28029.522    15.362579    13.304356    27.646774    5650.7024 
   38500       38.487    322.05218    13.237867   -444.50011   -431.26225   -11352.885   -2433.9971   -1267.8245   -30356.832    15.362581    13.304358    27.646757    5650.7005 
   39000       38.987    318.30107    13.083678   -444.32695   -431.24327   -10179.014   -2253.1687   -5855.4906   -22428.383    15.362583     13.30436    27.646739    5650.6987 
   39500       39.487    320.31521    13.166469   -444.39074   -431.22427   -9681.3268    129.74031   -1864.3013    -27309.42    15.362586    13.304362    27.646722    5650.6969 
   40000       39.987    316.43582    13.007008   -444.21197   -431.20496   -10564.174   -2335.0921   -3014.5651   -26342.864    15.362588    13.304364    27.646704     5650.695 
   40500       40.487     322.6496    13.262423   -444.44863    -431.1862   -10527.734   -2064.3563   -1802.9307   -27715.916     15.36259    13.304366    27.646687    5650.6932 
   41000       40.987    313.70114    12.894599   -444.06166   -431.16707   -10056.223    40.983974   -2135.4931   -28074.161    15.362593    13.304368     27.64667    5650.6914 
   41500       41.487    320.12918    13.158822   -444.30653   -431.14771   -10466.266     -4174.86   -2161.8252   -25062.114    15.362595     13.30437    27.646652    5650.6895 
   42000       41.987    310.33506    12.756238   -443.88519   -431.12895   -9824.1618    -478.0721   -3416.8738   -25577.539    15.362597    13.304372    27.646635    5650.6877 
   42500       42.487    329.31692    13.536482   -444.64656   -431.11008   -11210.692   -3062.7689   -3747.6987   -26821.608      15.3626    13.304374    27.646617    5650.6859 
   43000       42.987    329.67814     13.55133   -444.64233     -431.091   -9846.8309   -351.63672    -3302.323   -25886.533    15.362602    13.304376      27.6466     5650.684 
   43500       43.487    335.27991    13.781589   -444.85322   -431.07163   -11056.832    930.32573   -5884.4367   -28216.384    15.362604    13.304378    27.646582    5650.6822 
   44000       43.987    342.50475    14.078564   -445.13131   -431.05274   -10807.356   -1624.8287   -1016.1246   -29781.115    15.362607     13.30438    27.646565    5650.6804 
   44500       44.487    325.92832    13.397194   -444.43074   -431.03355    -9603.197   -1055.5288   -919.70665   -26834.356    15.362609    13.304382    27.646547    5650.6785 
   45000       44.987    328.21076    13.491013   -444.50619   -431.01518   -11538.219   -2913.4162   -2534.6276   -29166.613    15.362611    13.304384     27.64653    5650.6767 
   45500       45.487    329.81985    13.557155    -444.5536   -430.99644    -10161.83    -2404.902   -3544.7213   -24535.865    15.362614    13.304386    27.646513    5650.6749 
   46000       45.987    309.99798    12.742382   -443.71999   -430.97761   -10192.895    200.43179    -2495.771   -28283.344    15.362616    13.304389    27.646495     5650.673 
   46500       46.487    336.27096    13.822326   -444.78173   -430.95941   -10267.001   -1023.6174   -2310.2511   -27467.135    15.362618    13.304391    27.646478    5650.6712 
   47000       46.987    324.00749    13.318239   -444.25892   -430.94068   -9768.6087   -953.94537   -1809.7618   -26542.119    15.362621    13.304393     27.64646    5650.6694 
   47500       47.487    332.50046     13.66734   -444.58946   -430.92212   -10248.199   -1835.7517   -2007.2422   -26901.603    15.362623    13.304395    27.646443    5650.6676 
   48000       47.987    326.13982    13.405888    -444.3098   -430.90391   -9849.1437   -2020.2735   -3143.0037   -24384.154    15.362626    13.304397    27.646425    5650.6657 
   48500       48.487    325.59595    13.383532   -444.26899   -430.88545   -10803.559    -1927.752   -1863.5103   -28619.416    15.362628    13.304399    27.646408    5650.6639 
   49000       48.987    337.82754    13.886308   -444.75385   -430.86755   -10567.515   -2609.4781   -2763.5272    -26329.54     15.36263    13.304401     27.64639    5650.6621 
   49500       49.487    340.56514    13.998837    -444.8489   -430.85006    -10700.16   -1458.4151   -3282.9202   -27359.145    15.362633    13.304403    27.646373    5650.6602 
   50000       49.987    330.87558     13.60055    -444.4322   -430.83165   -10036.219   -1771.7488   -3753.4809   -24583.427    15.362635    13.304405    27.646355    5650.6584 
   50500       50.487    341.28995     14.02863   -444.84267   -430.81404   -9625.5482    1851.4464   -3985.9645   -26742.126    15.362637    13.304407    27.646338    5650.6566 
   51000       50.987    327.89408    13.477996   -444.27388   -430.79589   -9594.3868    535.94844   -3671.3033   -25647.806     15.36264    13.304409    27.646321    5650.6547 
   51500       51.487    326.05765    13.402511   -444.18103   -430.77852   -11197.387    -3137.332   -2638.5358   -27816.292    15.362642    13.304411    27.646303    5650.6529 
   52000       51.987    316.92521    13.027124   -443.78761   -430.76049   -10149.574   -384.12561   -482.34231   -29582.255    15.362644    13.304413    27.646286    5650.6511 
   52500       52.487    338.10947    13.897897   -444.64152   -430.74363   -9913.6142   -935.59229   -1705.2905    -27099.96    15.362647    13.304415    27.646268    5650.6492 
   53000       52.987    309.41263    12.718322   -443.44376   -430.72544   -9659.8196   -1214.1618   -3328.2129   -24437.084    15.362649    13.304417    27.646251    5650.6474 
   53500       53.487    307.72415    12.648917    -443.3573   -430.70839   -9916.8969     1530.056   -6785.5559   -24495.191    15.362651    13.304419    27.646233    5650.6456 
   54000       53.987    315.02895    12.949179    -443.6407   -430.69152   -10524.983   -2773.8272   -1181.1151   -27620.006    15.362654    13.304421    27.646216    5650.6437 
   54500       54.487    355.44906    14.610636   -445.28543   -430.67479   -11713.123   -3331.6597   -2758.7859   -29048.924    15.362656    13.304423    27.646198    5650.6419 
   55000       54.987    338.65502    13.920322   -444.57836   -430.65803   -9126.7094   -1347.3691   -4103.1148   -21929.644    15.362658    13.304425    27.646181    5650.6401 
   55500       55.487    337.29276    13.864327   -444.50552   -430.64119   -10537.047   -3430.4573   -3140.6885   -25039.994    15.362661    13.304427    27.646164    5650.6382 
   56000       55.987    322.56388      13.2589   -443.88264   -430.62374   -9456.2935   -850.66041    -2112.897   -25405.323    15.362663     13.30443    27.646146    5650.6364 
   56500       56.487    335.35866    13.784826   -444.39179   -430.60696   -9740.1387   -665.30524   -696.16631   -27858.945    15.362665    13.304432    27.646129    5650.6346 
   57000       56.987    320.33472    13.167271   -443.75738   -430.59011   -10881.282   -2075.1061   -3554.9007   -27013.839    15.362668    13.304434    27.646111    5650.6328 
   57500       57.487    326.96416    13.439772   -444.01329   -430.57352   -10071.115   -2202.3942   -880.85287   -27130.099     15.36267    13.304436    27.646094    5650.6309 
   58000       57.987    326.84522    13.434883   -443.99197   -430.55709   -9954.7071   -3136.7085   -2406.6089   -24320.804    15.362673    13.304438    27.646076    5650.6291 
   58500       58.487    323.26225    13.287606   -443.82874   -430.54113   -10004.966   -1895.3048   -1858.3808   -26261.212    15.362675     13.30444    27.646059    5650.6273 
   59000       58.987    344.16469    14.146795   -444.67225   -430.52546   -11105.961   -2129.5597   -2392.1591   -28796.165    15.362677    13.304442    27.646041    5650.6254 
   59500       59.487    333.92639    13.725953   -444.23483   -430.50888   -8988.5244   -1949.0227   -3348.3842   -21668.166     15.36268    13.304444    27.646024    5650.6236 
   60000       59.987     336.1165    13.815976   -444.30905   -430.49307   -10123.705    450.22174   -4771.0588   -26050.278    15.362682    13.304446    27.646006    5650.6218 
   60500       60.487    352.82765    14.502884   -444.98028    -430.4774   -9909.7808   -1550.5902   -677.26283   -27501.489    15.362684    13.304448    27.645989    5650.6199 
   61000       60.987    319.98942    13.153077   -443.61358    -430.4605   -10002.544   -705.55895   -3061.1136    -26240.96    15.362687     13.30445    27.645972    5650.6181 
   61500       61.487    351.71419    14.457115   -444.90181    -430.4447   -9821.7612   -16.350612   -2760.7274   -26688.205    15.362689    13.304452    27.645954    5650.6163 
   62000       61.987    340.13326    13.981085   -444.40972   -430.42864   -9736.9514   -339.22338   -1682.1883   -27189.443    15.362691    13.304454    27.645937    5650.6144 
   62500       62.487     331.3069    13.618279   -444.03077   -430.41249   -9679.9407   -518.88541   -3450.5577   -25070.379    15.362694    13.304456    27.645919    5650.6126 
   63000       62.987    353.23616    14.519676   -444.91674   -430.39706   -11487.072    -2883.778   -2234.1933   -29343.244    15.362696    13.304458    27.645902    5650.6108 
   63500       63.487    334.24889    13.739209    -444.1203   -430.38109   -10109.654   -522.70652    -2584.655   -27221.602    15.362698     13.30446    27.645884    5650.6089 
   64000       63.987    337.66704    13.879711   -444.24553   -430.36582   -11008.677   -2878.1643    -3674.849   -26473.017    15.362701    13.304462    27.645867    5650.6071 
   64500       64.487    319.45958    13.131299    -443.4809    -430.3496   -8617.5538   -630.47635   -544.34362   -24677.841    15.362703    13.304464    27.645849    5650.6053 
   65000       64.987    333.04739    13.689822   -444.02386   -430.33404   -9063.2568   -801.57691   -1709.3296   -24678.864    15.362705    13.304466    27.645832    5650.6034 
   65500       65.487    350.17287     14.39376   -444.71245   -430.31869   -9957.8546   -2129.1057   -4154.8961   -23589.562    15.362708    13.304468    27.645815    5650.6016 
   66000       65.987    339.66579    13.961869   -444.26438   -430.30251    -10997.89   -2128.9444   -3086.0278   -27778.699     15.36271    13.304471    27.645797    5650.5998 
   66500       66.487    327.30633    13.453837   -443.74028   -430.28644    -10385.47   -1272.1712    -3615.232   -26269.006    15.362712    13.304473     27.64578     5650.598 
   67000       66.987    309.99031    12.742067   -443.01236   -430.27029   -8103.7234    532.40468   -1993.4706   -22850.104    15.362715    13.304475    27.645762    5650.5961 
   67500       67.487    321.74926    13.225415   -443.48054   -430.25513   -10084.755   -1392.8488   -4450.6457   -24410.772    15.362717    13.304477    27.645745    5650.5943 
   68000       67.987    338.54364    13.915744   -444.15496   -430.23922   -10297.892   -3080.8079   -2221.7145   -25591.154     15.36272    13.304479    27.645727    5650.5925 
   68500       68.487    337.26266    13.863089   -444.08716   -430.22407   -10900.202   -3124.2018    -2534.047   -27042.356    15.362722    13.304481     27.64571    5650.5906 
   69000       68.987    342.27064    14.068941   -444.27694     -430.208   -9742.8357   -760.72123    -2583.679   -25884.107    15.362724    13.304483    27.645692    5650.5888 
   69500       69.487    331.92692    13.643765    -443.8366   -430.19283   -10842.866   -1282.3289   -4333.1989    -26913.07    15.362727    13.304485    27.645675     5650.587 
   70000       69.987    354.67024    14.578623    -444.7555   -430.17688   -10458.516   -240.39896   -4830.3368   -26304.811    15.362729    13.304487    27.645657    5650.5851 
   70500       70.487    342.65895    14.084902   -444.24609   -430.16119   -10617.194   -2857.1082   -1726.5466   -27267.928    15.362731    13.304489     27.64564    5650.5833 
   71000       70.987    334.32194    13.742212   -443.88714   -430.14493   -10071.553    1830.7378   -4635.6343   -27409.761    15.362734    13.304491    27.645623    5650.5815 
   71500       71.487    334.11794    13.733827   -443.86327   -430.12945   -9241.2677   -498.22268    -2666.699   -24558.881    15.362736    13.304493    27.645605    5650.5796 
   72000       71.987    331.98703    13.646236   -443.75992   -430.11369   -10463.479    27.254483   -2587.7319   -28829.959    15.362738    13.304495    27.645588    5650.5778 
   72500       72.487    344.43277    14.157815   -444.25601   -430.09819   -8743.0863    1399.2118    447.45386   -28075.925    15.362741    13.304497     27.64557     5650.576 
   73000       72.987    338.26922    13.904464   -443.98601   -430.08154   -9726.0965    1179.5248   -3391.5349   -26966.279    15.362743    13.304499    27.645553    5650.5741 
   73500       73.487    343.29196    14.110922   -444.17648   -430.06556   -10505.508   -1025.0932   -3330.0925    -27161.34    15.362745    13.304501    27.645535    5650.5723 
   74000       73.987    358.71171    14.744747   -444.79469   -430.04994   -10690.242   -2383.1252   -5201.6242   -24485.978    15.362748    13.304503    27.645518    5650.5705 
   74500       74.487    333.13454    13.693404   -443.72677   -430.03336   -10149.177   -1016.1499   -5347.9223   -24083.459     15.36275    13.304505      27.6455    5650.5686 
   75000       74.987    356.25848    14.643907   -444.66167   -430.01776   -10945.868   -2047.7301   -3543.1027   -27246.771    15.362752    13.304507    27.645483    5650.5668 
   75500       75.487    333.98536    13.728377   -443.72949   -430.00111    -9039.363   -2988.7606    472.22406   -24601.552    15.362755    13.304509    27.645466     5650.565 
   76000       75.987    328.88077    13.518554   -443.50297   -429.98441   -10350.803   -2826.2575   -1916.9194   -26309.231    15.362757    13.304512    27.645448    5650.5631 
   76500       76.487    322.08574    13.239246    -443.2076   -429.96835    -9089.776    24.417466    -883.3664   -26410.379    15.362759    13.304514    27.645431    5650.5613 
   77000       76.987    327.67793    13.469111   -443.42133   -429.95222   -9802.2559   -1034.4149   -3338.6178   -25033.735    15.362762    13.304516    27.645413    5650.5595 
   77500       77.487     352.8584    14.504148   -444.44078   -429.93663   -10294.797   -3066.5664     486.9795   -28304.805    15.362764    13.304518    27.645396    5650.5577 
   78000       77.987    345.74275    14.211661   -444.13122   -429.91956   -9985.5355   -1301.7714   -2948.7456    -25706.09    15.362767     13.30452    27.645378    5650.5558 
   78500       78.487    335.28336    13.781731   -443.68507   -429.90334   -10031.192   -217.71809   -1162.8064   -28713.051    15.362769    13.304522    27.645361     5650.554 
   79000       78.987    340.20291    13.983948   -443.87083   -429.88688   -10155.812   -1222.0227   -2245.7918   -26999.621    15.362771    13.304524    27.645343    5650.5522 
   79500       79.487    350.75552     14.41771   -444.28789   -429.87018   -9553.3038    2444.8977   -2684.6302   -28420.179    15.362774    13.304526    27.645326    5650.5503 
   80000       79.987    342.36512    14.072824    -443.9265   -429.85367   -9688.9354   -987.39283   -1109.1603   -26970.253    15.362776    13.304528    27.645308    5650.5485 
   80500       80.487    323.62509    13.302521   -443.13925   -429.83673   -9473.4011   -451.32341   -1587.2133   -26381.666    15.362778     13.30453    27.645291    5650.5467 
   81000       80.987    331.56329    13.628818   -443.44835   -429.81954   -9469.4214    -2107.272   -2420.9863   -23880.006    15.362781    13.304532    27.645274    5650.5448 
   81500       81.487    345.65997    14.208258   -444.01141   -429.80315   -9690.8702     450.1181   -4476.4164   -25046.312    15.362783    13.304534    27.645256     5650.543 
   82000       81.987    340.67591     14.00339   -443.78883   -429.78544   -9999.8571   -1165.6843   -2422.9493   -26410.938    15.362785    13.304536    27.645239    5650.5412 
   82500       82.487    341.67793    14.044578   -443.81352   -429.76894   -9947.0725   -1585.4724   -1867.6124   -26388.133    15.362788    13.304538    27.645221    5650.5393 
   83000       82.987    345.22549    14.190399   -443.94206   -429.75166   -9845.5455   -952.81095   -1683.2726   -26900.553     15.36279     13.30454    27.645204    5650.5375 
   83500       83.487    338.93017    13.931632   -443.66639   -429.73476    -9051.638   -5.9818073   -1424.4296   -25724.502    15.362792    13.304542    27.645186    5650.5357 
   84000       83.987    338.38884    13.909381   -443.62719   -429.71781   -9072.5826    1379.4483     -1990.14   -26607.056    15.362795    13.304544    27.645169    5650.5338 
   84500       84.487    335.55399    13.792855    -443.4932   -429.70035   -9104.4889   -535.17441   -2674.6748   -24103.617    15.362797    13.304546    27.645151     5650.532 
   85000       84.987    356.33253    14.646951   -444.33009   -429.68314   -9446.4233     643.2286    -1643.216   -27339.283    15.362799    13.304548    27.645134    5650.5302 
   85500       85.487    344.64159    14.166398   -443.83194   -429.66554   -9814.6463   -862.94676   -2864.7381   -25716.254    15.362802     13.30455    27.645117    5650.5283 
   86000       85.987     345.9141    14.218704   -443.86658   -429.64788   -10432.449    -2208.742   -1282.8813   -27805.722    15.362804    13.304553    27.645099    5650.5265 
   86500       86.487    333.17369    13.695013   -443.32468   -429.62967   -8683.1198   -679.50671    159.94471   -25529.797    15.362806    13.304555    27.645082    5650.5247 
   87000       86.987    347.32055    14.276516   -443.88881   -429.61229   -9283.5287   -1382.1422   -1119.5346   -25348.909    15.362809    13.304557    27.645064    5650.5229 
   87500       87.487    339.90458    13.971685   -443.56598   -429.59429   -8751.5471    844.78176   -1645.9753   -25453.448    15.362811    13.304559    27.645047     5650.521 
   88000       87.987    340.32458    13.988949   -443.56489   -429.57594   -9952.2898   -1367.3735   -997.73066   -27491.765    15.362814    13.304561    27.645029    5650.5192 
   88500       88.487    348.98024    14.344737   -443.90306   -429.55832   -10558.306   -2402.8845   -1486.0065   -27786.027    15.362816    13.304563    27.645012    5650.5174 
   89000       88.987     367.5751    15.109074   -444.64911   -429.54003   -9658.3676    501.30737   -5355.4644   -24120.946    15.362818    13.304565    27.644994    5650.5155 
   89500       89.487    338.76871    13.924995   -443.44673   -429.52174   -8615.1999    -153.2904   -1589.7264   -24102.583    15.362821    13.304567    27.644977    5650.5137 
   90000       89.987    355.20273    14.600511   -444.10406   -429.50355   -8657.4821    1473.5052   -1712.1361   -25733.815    15.362823    13.304569    27.644959    5650.5119 
   90500       90.487    344.65572    14.166979   -443.65206   -429.48508   -9344.0454    1648.5266   -1271.1835   -28409.479    15.362825    13.304571    27.644942      5650.51 
   91000       90.987    362.62765     14.90571   -444.37271     -429.467   -10144.461   -1800.2819   -1372.9021     -27260.2    15.362828    13.304573    27.644925    5650.5082 
   91500       91.487    338.27183    13.904571   -443.35304   -429.44847   -9236.8821   -536.24683   -2901.4758   -24272.924     15.36283    13.304575    27.644907    5650.5064 
   92000       91.987    351.97066    14.467658   -443.89679   -429.42913   -9727.5037    -486.1436   -5648.2875    -23048.08    15.362832    13.304577     27.64489    5650.5045 
   92500       92.487    356.78312    14.665473   -444.07596   -429.41049   -9840.5714   -2122.5049   -4124.3576   -23274.852    15.362835    13.304579    27.644872    5650.5027 
   93000       92.987    347.75205    14.294253   -443.68601   -429.39175   -9639.7197   -1275.8952   -3738.7815   -23904.482    15.362837    13.304581    27.644855    5650.5009 
   93500       93.487    363.35549    14.935628   -444.30848   -429.37286   -9981.0381   -278.96138   -2382.6044   -27281.548    15.362839    13.304583    27.644837     5650.499 
   94000       93.987    360.28216    14.809299   -444.16321   -429.35391   -9458.2459   -1792.7716   -1919.7624   -24662.204    15.362842    13.304585     27.64482    5650.4972 
   94500       94.487     351.5278    14.449454   -443.78407   -429.33462   -9430.3377     644.6387    -3147.484   -25788.168    15.362844    13.304587    27.644802    5650.4954 
   95000       94.987    354.61972    14.576546   -443.89187   -429.31532   -10124.433   -3326.6037   -2058.6011   -24988.093    15.362846    13.304589    27.644785    5650.4935 
   95500       95.487    360.04517    14.799558   -444.09578   -429.29622   -10395.162   -1212.5852    -4005.652   -25967.248    15.362849    13.304591    27.644768    5650.4917 
   96000       95.987    350.49834    14.407138   -443.68392   -429.27678   -9690.1805   -1278.1036    -1960.959   -25831.479    15.362851    13.304594     27.64475    5650.4899 
   96500       96.487    331.76682    13.637184   -442.89443   -429.25724   -9584.5602   -1992.7639   -671.64734   -26089.269    15.362853    13.304596    27.644733     5650.488 
   97000       96.987    341.51534    14.037895   -443.27583   -429.23793    -9640.884   -1618.3658   -1166.6617   -26137.624    15.362856    13.304598    27.644715    5650.4862 
   97500       97.487    349.15012     14.35172   -443.56982    -429.2181    -9395.787    97.746423   -3342.9415   -24942.166    15.362858      13.3046    27.644698    5650.4844 
   98000       97.987    348.72141    14.334098   -443.53276   -429.19866   -8653.3876   -175.08985   -1694.6343   -24090.439    15.362861    13.304602     27.64468    5650.4826 
   98500       98.487    347.63273    14.289348   -443.46837   -429.17902   -10273.764   -1889.3219   -439.42126    -28492.55    15.362863    13.304604    27.644663    5650.4807 
   99000       98.987    350.66826    14.414123   -443.57296   -429.15884   -8700.0924    158.16671    -1249.812   -25008.632    15.362865    13.304606    27.644645    5650.4789 
   99500       99.487    332.27474    13.658062   -442.79675   -429.13869   -8518.8944    1810.8488   -2392.7424    -24974.79    15.362868    13.304608    27.644628    5650.4771 
  100000       99.987    332.52657    13.668414   -442.78701    -429.1186   -8334.9529   -554.97777   -1.8741504   -24448.007     15.36287     13.30461     27.64461    5650.4752 
  100500      100.487    366.10551    15.048667   -444.14757    -429.0989   -9558.3719   -1328.7691   -425.59507   -26920.752    15.362872    13.304612    27.644593    5650.4734 
  101000      100.987    344.08453    14.143501   -443.22178   -429.07828   -9294.2368   -648.11513    -1852.608   -25381.987    15.362875    13.304614    27.644576    5650.4716 
  101500      101.487    373.25972    15.342739   -444.40145   -429.05871   -10158.277   -1317.9853   -2434.6894   -26722.155    15.362877    13.304616    27.644558    5650.4697 
  102000      101.987    343.45982    14.117822   -443.15551   -429.03768   -7579.4711    1974.2639   -2289.9558   -22422.722    15.362879    13.304618    27.644541    5650.4679 
  102500      102.487    366.32829    15.057824   -444.07541   -429.01759   -10674.374   -2839.2702    -3724.936   -25458.915    15.362882     13.30462    27.644523    5650.4661 
  103000      102.987    354.44285    14.569276   -443.56588    -428.9966   -9678.5972   -2474.2536   -1114.5356   -25447.002    15.362884    13.304622    27.644506    5650.4642 
  103500      103.487    351.25834    14.438378    -443.4142   -428.97583   -8888.8767   -272.76697   -1281.1075   -25112.756    15.362886    13.304624    27.644488    5650.4624 
  104000      103.987    365.95416    15.042445   -443.99784    -428.9554    -8480.896    853.09748   -1519.3851     -24776.4    15.362889    13.304626    27.644471    5650.4606 
  104500      104.487    356.14946    14.639426   -443.57322   -428.93379   -9427.0733    202.53567   -1494.1611   -26989.595    15.362891    13.304628    27.644453    5650.4587 
  105000      104.987    355.96475    14.631834   -443.54486   -428.91303   -8949.9523   -677.75024    329.71144   -26501.818    15.362893     13.30463    27.644436    5650.4569 
  105500      105.487    339.66548    13.961857   -442.85401   -428.89215   -8085.7308    1050.0686   -2154.1567   -23153.104    15.362896    13.304632    27.644419    5650.4551 
  106000      105.987    346.73014    14.252248   -443.12326   -428.87101   -9059.3758   -503.04109   -7278.7244   -19396.362    15.362898    13.304635    27.644401    5650.4532 
  106500      106.487     360.8954    14.834507   -443.68477   -428.85026   -9840.5338    1050.9102   -6731.7731   -23840.738      15.3629    13.304637    27.644384    5650.4514 
  107000      106.987     362.3764    14.895382   -443.72501   -428.82963   -9804.3375       2085.1   -4090.2154   -27407.897    15.362903    13.304639    27.644366    5650.4496 
  107500      107.487    357.32365    14.687691   -443.49607   -428.80838   -8821.7477    1138.7948   -4199.4529   -23404.585    15.362905    13.304641    27.644349    5650.4478 
  108000      107.987     373.6307    15.357988   -444.14471   -428.78672    -10714.01   -181.57706   -5049.3572   -26911.095    15.362908    13.304643    27.644331    5650.4459 
  108500      108.487    359.71297    14.785903   -443.55123   -428.76533   -10305.774   -606.80781   -5036.4305   -25274.082     15.36291    13.304645    27.644314    5650.4441 
  109000      108.987    350.25385    14.397088   -443.14041   -428.74332   -8503.4638    1829.9177   -2072.6493    -25267.66    15.362912    13.304647    27.644296    5650.4423 
  109500      109.487    362.17107    14.886942   -443.60915   -428.72221   -10077.341   -469.58363    -3032.893   -26729.548    15.362915    13.304649    27.644279    5650.4404 
  110000      109.987    361.49028    14.858959   -443.55964   -428.70068   -9842.4187    3334.3243   -4137.0193   -28724.561    15.362917    13.304651    27.644261    5650.4386 
  110500      110.487    354.84093    14.585639   -443.26458   -428.67894   -9231.0715    186.17586   -5802.3915   -22076.999    15.362919    13.304653    27.644244    5650.4368 
  111000      110.987    348.07541    14.307544    -442.9641   -428.65656   -8257.6681    2746.5223   -4770.1303   -22749.396    15.362922    13.304655    27.644227    5650.4349 
  111500      111.487    361.80704    14.871979   -443.50739   -428.63541   -9660.3719     2974.917   -5610.0813   -26345.952    15.362924    13.304657    27.644209    5650.4331 
  112000      111.987     349.7004    14.374339   -442.98738   -428.61304   -9210.5927    1440.2143   -5191.4273   -23880.565    15.362926    13.304659    27.644192    5650.4313 
  112500      112.487    359.49304    14.776863   -443.36845   -428.59159   -9898.5597    791.57628   -6069.7544   -24417.501    15.362929    13.304661    27.644174    5650.4294 
  113000      112.987    361.65201    14.865607   -443.43534   -428.56974   -8495.7874    568.49124   -3760.2686   -22295.585    15.362931    13.304663    27.644157    5650.4276 
  113500      113.487     341.5587    14.039677   -442.58691   -428.54723   -8667.0841    1563.3508   -5026.8342   -22537.769    15.362933    13.304665    27.644139    5650.4258 
  114000      113.987    347.87671    14.299377    -442.8248   -428.52543   -10341.705   -1207.5793   -5349.4873   -24468.047    15.362936    13.304667    27.644122    5650.4239 
  114500      114.487    371.53699    15.271926   -443.77591   -428.50399   -9339.0984     1064.774   -3890.0328   -25192.036    15.362938    13.304669    27.644104    5650.4221 
  115000      114.987    363.63956    14.947305   -443.42872   -428.48142   -9710.3219    2413.4547   -5812.6205     -25731.8     15.36294    13.304671    27.644087    5650.4203 
  115500      115.487    359.37841    14.772151   -443.23165    -428.4595    -9705.153     1726.316   -6081.9435   -24759.831    15.362943    13.304673     27.64407    5650.4184 
  116000      115.987    366.97659    15.084472   -443.52222   -428.43774   -8550.4432    1394.6244   -4233.1623   -22812.792    15.362945    13.304676    27.644052    5650.4166 
  116500      116.487     365.3865    15.019112   -443.43428   -428.41517   -8771.8275    3789.2844   -7171.5228   -22933.244    15.362947    13.304678    27.644035    5650.4148 
  117000      116.987    359.51096      14.7776   -443.17036   -428.39276   -8801.8943     360.1295   -3524.9529    -23240.86     15.36295     13.30468    27.644017    5650.4129 
  117500      117.487    366.07916    15.047584   -443.41849    -428.3709   -9168.7425     2183.731   -5867.0893   -23822.869    15.362952    13.304682       27.644    5650.4111 
  118000      117.987    359.13815    14.762275   -443.10993   -428.34765      -7517.9    3713.0999    -4898.995   -21367.805    15.362955    13.304684    27.643982    5650.4093 
  118500      118.487    356.16546    14.640084    -442.9661   -428.32602   -8389.5098    2279.1206   -4571.3505   -22876.299    15.362957    13.304686    27.643965    5650.4075 
  119000      118.987    375.87103    15.450076   -443.75366   -428.30358    -8998.119    877.56911   -4118.5351   -23753.391    15.362959    13.304688    27.643947    5650.4056 
  119500      119.487    369.77616    15.199548   -443.48039   -428.28084   -8469.5197    592.55202   -4322.5125   -21678.598    15.362962     13.30469     27.64393    5650.4038 
  120000      119.987    363.83041    14.955149   -443.21346   -428.25831    -8839.081     3460.787   -5497.5926   -24480.437    15.362964    13.304692    27.643912     5650.402 
  120500      120.487    366.84774    15.079176   -443.31474   -428.23556    -8279.307   -444.27816   -3991.4081   -20402.235    15.362966    13.304694    27.643895    5650.4001 
  121000      120.987    369.17692    15.174916   -443.38786   -428.21295   -9539.8922    800.75755   -4336.6546    -25083.78    15.362969    13.304696    27.643878    5650.3983 
  121500      121.487    386.27469    15.877716   -444.06808   -428.19037   -8485.5289   -1228.1788   -6059.9334   -18168.475    15.362971    13.304698     27.64386    5650.3965 
  122000      121.987    356.91721    14.670984   -442.83809   -428.16711   -9011.3519    1719.6123   -5102.7072   -23650.961    15.362973      13.3047    27.643843    5650.3946 
  122500      122.487    377.21912    15.505489   -443.64989    -428.1444   -8831.6687    2717.1376   -5398.9339    -23813.21    15.362976    13.304702    27.643825    5650.3928 
  123000      122.987    350.98361    14.427085   -442.54805   -428.12097   -8318.9147    2437.2522   -893.60406   -26500.392    15.362978    13.304704    27.643808     5650.391 
  123500      123.487    368.51761    15.147816   -443.24643   -428.09861    -9384.399    807.83131   -5716.6055   -23244.423     15.36298    13.304706     27.64379    5650.3891 
  124000      123.987    371.23338    15.259447   -443.33498   -428.07554   -9711.0717   -711.00272    -2822.811   -25599.401    15.362983    13.304708    27.643773    5650.3873 
  124500      124.487    377.69708    15.525135   -443.57853   -428.05339    -9515.436    1117.0192   -5986.5122   -23676.815    15.362985     13.30471    27.643755    5650.3855 
  125000      124.987    336.52692    13.832847   -441.86265    -428.0298   -7288.3162    3878.0296   -1340.1845   -24402.794    15.362987    13.304712    27.643738    5650.3836 
  125500      125.487    369.55693    15.190537   -443.19761   -428.00708   -9365.6337   -1420.8727   -4834.3684    -21841.66     15.36299    13.304714    27.643721    5650.3818 
  126000      125.987    370.59977    15.233402   -443.21728   -427.98387   -8783.3356    2304.0278   -4980.8794   -23673.155    15.362992    13.304717    27.643703      5650.38 
  126500      126.487    377.91756    15.534198    -443.4954   -427.96121   -9045.6837    1055.9496   -5312.9251   -22880.076    15.362994    13.304719    27.643686    5650.3781 
  127000      126.987    372.09711     15.29495   -443.23312   -427.93817   -9110.0557    2622.6264   -4479.1321   -25473.661    15.362997    13.304721    27.643668    5650.3763 
  127500      127.487    372.04326    15.292736   -443.20729   -427.91456   -9873.8146    118.73192   -3983.7547   -25756.421    15.362999    13.304723    27.643651    5650.3745 
  128000      127.987    370.50346    15.229443   -443.12106   -427.89161   -8520.8738    1336.2907   -3584.3439   -23314.568    15.363002    13.304725    27.643633    5650.3726 
  128500      128.487    362.70489    14.908885   -442.77719   -427.86831   -7944.0258    2715.6942   -2866.2114    -23681.56    15.363004    13.304727    27.643616    5650.3708 
  129000      128.987    350.88687    14.423109   -442.26807   -427.84496   -8875.2274    4268.6594   -5502.6723   -25391.669    15.363006    13.304729    27.643598     5650.369 
  129500      129.487    365.74728    15.033942   -442.85587   -427.82193   -8941.9587    2716.0563   -7406.8087   -22135.124    15.363009    13.304731    27.643581    5650.3672 
  130000      129.987    356.85907    14.668594   -442.46696   -427.79837   -7663.0303    4505.0675   -5610.2588   -21883.899    15.363011    13.304733    27.643563    5650.3653 
  130500      130.487    346.38187    14.237932    -442.0132   -427.77527   -8592.0144    1843.9619    -5911.154   -21708.851    15.363013    13.304735    27.643546    5650.3635 
  131000      130.987    363.97261    14.960995   -442.71274   -427.75174   -8282.4719    1884.7645   -71.516182   -26660.664    15.363016    13.304737    27.643529    5650.3617 
  131500      131.487    349.04029    14.347206   -442.07562   -427.72841      -7691.3    1570.5273   -5953.7627   -18690.665    15.363018    13.304739    27.643511    5650.3598 
  132000      131.987    369.78419    15.199878   -442.90557   -427.70569   -9977.7203    768.18387   -4349.9084   -26351.436     15.36302    13.304741    27.643494     5650.358 
  132500      132.487    344.14359    14.145928   -441.82704   -427.68111   -8463.4831    1107.5493   -3568.6981   -22929.301    15.363023    13.304743    27.643476    5650.3562 
  133000      132.987    377.34191    15.510536   -443.16901   -427.65848   -8973.1486    885.13235   -2225.8368   -25578.741    15.363025    13.304745    27.643459    5650.3543 
  133500      133.487    370.13744    15.214398   -442.84932   -427.63493    -7842.035    3522.5205   -3632.6628   -23415.963    15.363027    13.304747    27.643441    5650.3525 
  134000      133.987    378.73034    15.567607   -443.17879   -427.61118   -8833.1872    2458.5109   -3177.4133   -25780.659     15.36303    13.304749    27.643424    5650.3507 
  134500      134.487    381.68214     15.68894    -443.2764   -427.58746   -7407.1387    3250.7839   -6998.9883   -18473.212    15.363032    13.304751    27.643406    5650.3488 
  135000      134.987    373.57644    15.355757   -442.91971   -427.56395   -9624.5918    2722.9748   -6726.2634   -24870.487    15.363034    13.304753    27.643389     5650.347 
  135500      135.487    369.10632    15.172014   -442.71273   -427.54071   -8496.5048    2026.1069   -2577.1995   -24938.422    15.363037    13.304755    27.643372    5650.3452 
  136000      135.987    364.02561    14.963173   -442.48016   -427.51699   -8830.8118    2160.1951   -2917.8872   -25734.743    15.363039    13.304758    27.643354    5650.3433 
  136500      136.487    366.73708    15.074627   -442.56747   -427.49284   -8611.5283      2768.21   -2591.0582   -26011.737    15.363041     13.30476    27.643337    5650.3415 
  137000      136.987    375.31704    15.427304   -442.89621    -427.4689   -8685.8701    1680.1941   -6012.4347    -21725.37    15.363044    13.304762    27.643319    5650.3397 
  137500      137.487    360.89636    14.834546   -442.27932   -427.44477   -9246.3629   -236.73758    -3679.174   -23823.177    15.363046    13.304764    27.643302    5650.3378 
  138000      137.987    372.85775    15.326216   -442.74775   -427.42154    -8642.011   -166.49615   -2453.2931   -23306.244    15.363049    13.304766    27.643284     5650.336 
  138500      138.487    375.73755    15.444589   -442.84232   -427.39773   -8602.5321    1051.0598   -3376.7849   -23481.871    15.363051    13.304768    27.643267    5650.3342 
  139000      138.987    366.12793    15.049588   -442.42307   -427.37348   -9494.6453     850.5993   -2262.8538   -27071.681    15.363053     13.30477    27.643249    5650.3323 
  139500      139.487    382.94088     15.74068   -443.09076   -427.35008   -7923.3419    1869.6094   -3531.1047    -22108.53    15.363056    13.304772    27.643232    5650.3305 
  140000      139.987    390.99347    16.071679   -443.39807   -427.32639   -8504.0118    1969.3209   -5305.0642   -22176.292    15.363058    13.304774    27.643214    5650.3287 
  140500      140.487    372.24804    15.301154    -442.6033   -427.30214   -8217.5254    2993.3336   -5273.4484   -22372.461     15.36306    13.304776    27.643197    5650.3268 
  141000      140.987    375.29761    15.426505   -442.70463   -427.27813    -8125.413    3451.8183   -5999.8939   -21828.163    15.363063    13.304778     27.64318     5650.325 
  141500      141.487    393.48955     16.17428    -443.4288   -427.25452   -9789.8416    2737.8049   -5211.0145   -26896.315    15.363065     13.30478    27.643162    5650.3232 
  142000      141.987    381.15202    15.667149   -442.89777   -427.23062   -8548.1055    2093.0316   -4386.6529   -23350.695    15.363067    13.304782    27.643145    5650.3214 
  142500      142.487    394.26041    16.205966   -443.41281   -427.20684   -8153.2957    1715.5214   -707.51804   -25467.891     15.36307    13.304784    27.643127    5650.3195 
  143000      142.987    373.89788     15.36897   -442.55127    -427.1823   -9027.0347    2395.2281   -5758.6668   -23717.665    15.363072    13.304786     27.64311    5650.3177 
  143500      143.487    366.70009    15.073107   -442.23136   -427.15825    -7374.843    3901.7344   -5354.4547   -20671.809    15.363074    13.304788    27.643092    5650.3159 
  144000      143.987    400.30317    16.454352   -443.58919   -427.13484   -7939.9077    4623.6097   -3198.7403   -25244.592    15.363077     13.30479    27.643075     5650.314 
  144500      144.487    371.75057    15.280705   -442.39062   -427.10992   -7117.5094    4466.0485    -4888.668   -20929.909    15.363079    13.304792    27.643057    5650.3122 
  145000      144.987    369.81146    15.200999   -442.28669   -427.08569   -7785.0033    3753.7057   -1786.0707   -25322.645    15.363081    13.304794     27.64304    5650.3104 
  145500      145.487    392.25563     16.12356   -443.18593   -427.06237   -8586.6956    2073.1283   -1245.3914   -26587.824    15.363084    13.304796    27.643023    5650.3085 
  146000      145.987    375.39541    15.430526   -442.46832    -427.0378     -8464.49    3079.7883   -4167.4828   -24305.776    15.363086    13.304799    27.643005    5650.3067 
  146500      146.487    377.76543    15.527945   -442.54152   -427.01358   -8981.9953    580.45114   -4000.7506   -23525.686    15.363088    13.304801    27.642988    5650.3049 
  147000      146.987    385.04631    15.827223   -442.81629   -426.98906    -8238.894    2603.3667   -5988.8456   -21331.203    15.363091    13.304803     27.64297     5650.303 
  147500      147.487    381.25436    15.671356   -442.63655   -426.96519   -8081.8651    4083.5422   -4132.5471    -24196.59    15.363093    13.304805    27.642953    5650.3012 
  148000      147.987        389.2    15.997959   -442.93919   -426.94123   -7820.6948    1148.6264   -2761.2352   -21849.476    15.363096    13.304807    27.642935    5650.2994 
  148500      148.487     355.7991    14.625025   -441.54137   -426.91634   -8936.6559    1388.1989   -4832.7585   -23365.408    15.363098    13.304809    27.642918    5650.2975 
  149000      148.987    377.67305    15.524147   -442.41681   -426.89266   -7637.6064    3588.0718   -4956.8985   -21543.992      15.3631    13.304811      27.6429    5650.2957 
  149500      149.487    363.42498    14.938484   -441.80653   -426.86805   -7429.1244    3500.2158    -4692.891   -21094.698    15.363103    13.304813    27.642883    5650.2939 
  150000      149.987    372.09663     15.29493   -442.13864   -426.84371   -7683.8691    2054.5922   -6676.9261   -18429.273    15.363105    13.304815    27.642865     5650.292 
  150500      150.487    385.72152    15.854977   -442.67447   -426.81949   -9001.8611    1226.6625   -5642.6702   -22589.576    15.363107    13.304817    27.642848    5650.2902 
  151000      150.987    389.11635    15.994521    -442.7891   -426.79458   -8254.0582    1645.6093   -3625.7383   -22782.045     15.36311    13.304819    27.642831    5650.2884 
  151500      151.487    367.28927    15.097325   -441.86753    -426.7702   -8400.2861    1320.6794   -3737.8522   -22783.685    15.363112    13.304821    27.642813    5650.2865 
  152000      151.987    389.09761    15.993751   -442.73942   -426.74567   -8434.1692    3467.1894   -3701.9655   -25067.732    15.363114    13.304823    27.642796    5650.2847 
  152500      152.487    375.66881    15.441763   -442.16305   -426.72128   -7857.2822    2015.4941   -4550.4416   -21036.899    15.363117    13.304825    27.642778    5650.2829 
  153000      152.987    390.14018    16.036605   -442.73257   -426.69597   -8897.5014    1375.0119   -4767.8987   -23299.618    15.363119    13.304827    27.642761     5650.281 
  153500      153.487    372.33525    15.304738   -441.97585   -426.67111   -7951.7697    3349.9769   -3388.8215   -23816.464    15.363121    13.304829    27.642743    5650.2792 
  154000      153.987    368.45658    15.145307   -441.79223   -426.64692   -7255.3955    5277.0369   -2857.4734    -24185.75    15.363124    13.304831    27.642726    5650.2774 
  154500      154.487    373.37515    15.347483   -441.97021   -426.62273   -7259.4632    2794.3007    -2042.867   -22529.823    15.363126    13.304833    27.642708    5650.2756 
  155000      154.987    378.86077    15.572968   -442.17054   -426.59757   -7843.9708    3622.3444   -5682.5561   -21471.701    15.363128    13.304835    27.642691    5650.2737 
  155500      155.487    375.61348    15.439489   -442.01286   -426.57337   -7089.9873    2616.0068   -4359.5808   -19526.388    15.363131    13.304837    27.642674    5650.2719 
  156000      155.987    372.19084    15.298802   -441.84703   -426.54822   -7816.7257    2634.2096   -3796.4132   -22287.973    15.363133     13.30484    27.642656    5650.2701 
  156500      156.487      368.069    15.129376   -441.65288   -426.52351   -8159.2113    5073.0903   -3067.4846    -26483.24    15.363135    13.304842    27.642639    5650.2682 
  157000      156.987    400.79372    16.474516   -442.97371    -426.4992   -9217.9126    -146.9674    -4566.496   -22940.274    15.363138    13.304844    27.642621    5650.2664 
  157500      157.487     401.5714    16.506482   -442.98071   -426.47423   -6943.1919     1601.763   -1157.3494   -21273.989     15.36314    13.304846    27.642604    5650.2646 
  158000      157.987    358.82647    14.749464    -441.1982   -426.44873   -7314.6665     5496.447   -3368.6394   -24071.807    15.363143    13.304848    27.642586    5650.2627 
  158500      158.487    398.15798    16.366175   -442.79122   -426.42504    -8964.444    2961.3908   -4636.3078   -25218.415    15.363145     13.30485    27.642569    5650.2609 
  159000      158.987    390.71518     16.06024   -442.45966   -426.39942   -7490.3433    1870.1305   -1998.3911   -22342.769    15.363147    13.304852    27.642551    5650.2591 
  159500      159.487      396.893    16.314178    -442.6893   -426.37512   -8190.7758    1420.3425   -3336.4093   -22656.261     15.36315    13.304854    27.642534    5650.2572 
  160000      159.987    405.63537    16.673531    -443.0236   -426.35007   -8110.1767    2724.7371   -3825.6956   -23229.572    15.363152    13.304856    27.642516    5650.2554 
  160500      160.487    391.96512    16.111619   -442.43629   -426.32467   -8160.2497   -228.90518   -3938.3315   -20313.512    15.363154    13.304858    27.642499    5650.2536 
  161000      160.987    398.61216    16.384844   -442.68473   -426.29988   -7668.8111    1037.9186   -2353.4349   -21690.917    15.363157     13.30486    27.642482    5650.2517 
  161500      161.487    423.10413     17.39158   -443.66693   -426.27535   -9253.9559    2342.9784   -2445.0653   -27659.781    15.363159    13.304862    27.642464    5650.2499 
  162000      161.987    399.15515    16.407163   -442.65698   -426.24982   -9411.9232   -844.45873   -3982.2861   -23409.025    15.363161    13.304864    27.642447    5650.2481 
  162500      162.487    381.77402    15.692716   -441.91688   -426.22417   -7830.4295    2602.9576   -3009.1842   -23085.062    15.363164    13.304866    27.642429    5650.2462 
  163000      162.987    393.21473    16.162984   -442.36247   -426.19948   -8938.9977    1463.6555   -3347.7964   -24932.852    15.363166    13.304868    27.642412    5650.2444 
  163500      163.487    399.83205    16.434987   -442.60947   -426.17448   -7608.4887    1333.7929   -4710.7429   -19448.516    15.363168     13.30487    27.642394    5650.2426 
  164000      163.987    392.06376    16.115673   -442.26457    -426.1489   -6685.5435    2046.8722   -2045.6082   -20057.894    15.363171    13.304872    27.642377    5650.2407 
  164500      164.487    399.21685    16.409699   -442.53375   -426.12405   -7758.8067    4372.2716   -2757.6898   -24891.002    15.363173    13.304874    27.642359    5650.2389 
  165000      164.987    378.84328    15.572249    -441.6709   -426.09865   -8432.0459    1819.6428   -3981.3889   -23134.392    15.363175    13.304876    27.642342    5650.2371 
  165500      165.487    379.88055    15.614886   -441.68844   -426.07356     -7681.86    3307.6016   -3285.9744   -23067.207    15.363178    13.304878    27.642325    5650.2353 
  166000      165.987    391.62221    16.097524   -442.14618   -426.04865   -8516.3747     1147.728    -3472.675   -23224.177     15.36318    13.304881    27.642307    5650.2334 
  166500      166.487    392.15703    16.119507   -442.14289   -426.02339   -8681.4768    3265.3041     -5518.68   -23791.055    15.363182    13.304883     27.64229    5650.2316 
  167000      166.987    381.34626    15.675133   -441.67315   -425.99802   -7818.6849    1238.4118   -2885.1146   -21809.352    15.363185    13.304885    27.642272    5650.2298 
  167500      167.487    393.06533    16.156843   -442.12928   -425.97243   -8345.7336   -407.44671   -2195.0358   -22434.718    15.363187    13.304887    27.642255    5650.2279 
  168000      167.987    389.01897    15.990518   -441.93812   -425.94761   -7846.6213    3561.0504   -4061.6601   -23039.254     15.36319    13.304889    27.642237    5650.2261 
  168500      168.487    388.60008      15.9733   -441.89509   -425.92179   -8814.6999    3138.7743   -5116.7613   -24466.113    15.363192    13.304891     27.64222    5650.2243 
  169000      168.987    392.43119    16.130776   -442.02765   -425.89687   -8263.9616     2168.709   -3429.2821   -23531.312    15.363194    13.304893    27.642202    5650.2224 
  169500      169.487    384.83588    15.818574   -441.68966   -425.87109    -6350.241    4283.2268   -2323.8565   -21010.093    15.363197    13.304895    27.642185    5650.2206 
  170000      169.987    393.55341    16.176905   -442.02248   -425.84557   -7790.9477    4131.9232    -3175.827   -24328.939    15.363199    13.304897    27.642167    5650.2188 
  170500      170.487    409.19011    16.819647   -442.64043   -425.82078   -10019.054    2513.0282   -6153.4845   -26416.705    15.363201    13.304899     27.64215    5650.2169 
  171000      170.987     389.2746    16.001026   -441.79589   -425.79486   -5828.1185     4517.754   -1455.8809   -20546.229    15.363204    13.304901    27.642133    5650.2151 
  171500      171.487    396.02044    16.278312   -442.04827   -425.76995   -8215.0542    3252.3442   -3804.2747   -24093.232    15.363206    13.304903    27.642115    5650.2133 
  172000      171.987    419.00297    17.223002   -442.96797   -425.74496   -6415.5633    3863.1754   -3228.1225   -19881.743    15.363208    13.304905    27.642098    5650.2114 
  172500      172.487    405.38024    16.663044   -442.38188   -425.71884   -7976.9437    4101.4327     -4978.35   -23053.914    15.363211    13.304907     27.64208    5650.2096 
  173000      172.987    406.16605    16.695344    -442.3891   -425.69376   -8014.9613    3353.0554    -3451.584   -23946.355    15.363213    13.304909    27.642063    5650.2078 
  173500      173.487    393.15295    16.160444   -441.82834    -425.6679   -7497.8787    601.70736   -3831.1128   -19264.231    15.363215    13.304911    27.642045    5650.2059 
  174000      173.987    408.04695    16.772658   -442.41537   -425.64271   -8040.3544    2610.2371    -5642.681   -21088.619    15.363218    13.304913    27.642028    5650.2041 
  174500      174.487    408.56409    16.793915   -442.41105   -425.61713   -7965.4809    3763.8205   -6149.6467   -21510.616     15.36322    13.304915     27.64201    5650.2023 
  175000      174.987    410.51373    16.874054   -442.46546    -425.5914   -7322.4945    798.97013   -2344.4272   -20422.026    15.363222    13.304917    27.641993    5650.2004 
  175500      175.487    384.39239    15.800344   -441.36607   -425.56573   -7149.4335    3724.0733   -3694.1182   -21478.256    15.363225    13.304919    27.641976    5650.1986 
  176000      175.987    404.08778    16.609917    -442.1499   -425.53999   -8477.1379    2692.9203   -2480.9747   -25643.359    15.363227    13.304922    27.641958    5650.1968 
  176500      176.487    391.36014    16.086751   -441.60133   -425.51457   -8185.9344    3344.5652   -5313.0214   -22589.347    15.363229    13.304924    27.641941    5650.1949 
  177000      176.987    409.82211    16.845626   -442.33484   -425.48922     -7308.23    3491.0553   -4114.4272   -21301.318    15.363232    13.304926    27.641923    5650.1931 
  177500      177.487    389.42508    16.007211   -441.46969   -425.46248   -7370.0604    2290.9454   -909.55885   -23491.568    15.363234    13.304928    27.641906    5650.1913 
  178000      177.987    399.16312    16.407491   -441.84464   -425.43715   -8116.0425    3780.0525   -3044.3788   -25083.801    15.363237     13.30493    27.641888    5650.1894 
  178500      178.487    390.60556    16.055734   -441.46696   -425.41123   -6755.6783     3601.913   -4280.4184    -19588.53    15.363239    13.304932    27.641871    5650.1876 
  179000      178.987    416.25438    17.110022   -442.49531   -425.38528   -6844.2573    3754.6741   -2815.6366   -21471.809    15.363241    13.304934    27.641853    5650.1858 
  179500      179.487    410.60722    16.877897   -442.23801   -425.36012   -8881.0177    1507.8394   -4506.7565   -23644.136    15.363244    13.304936    27.641836     5650.184 
  180000      179.987    403.29363    16.577274   -441.91104   -425.33376    -7512.726    2839.7958   -5769.6636    -19608.31    15.363246    13.304938    27.641818    5650.1821 
  180500      180.487    404.20745    16.614837   -441.92392   -425.30908   -7125.3128   -1002.3157   -554.40597   -19819.217    15.363248     13.30494    27.641801    5650.1803 
  181000      180.987    407.60669    16.754561   -442.03717   -425.28261   -8360.7044    1555.3133   -1888.5102   -24748.916    15.363251    13.304942    27.641784    5650.1785 
  181500      181.487    394.76622    16.226757   -441.48308   -425.25633    -7669.443     867.0876   -1383.3465    -22492.07    15.363253    13.304944    27.641766    5650.1766 
  182000      181.987    417.17891    17.148025   -442.37936   -425.23133   -7400.5848    809.66909   -1729.0498   -21282.374    15.363255    13.304946    27.641749    5650.1748 
  182500      182.487     399.3231    16.414067   -441.61873   -425.20466   -7161.3313    1691.9026   -3567.6005   -19608.296    15.363258    13.304948    27.641731     5650.173 
  183000      182.987    392.17774    16.120359    -441.2991   -425.17874   -8157.0325    1162.6366   -3243.1195   -22390.615     15.36326     13.30495    27.641714    5650.1711 
  183500      183.487     400.5191    16.463228   -441.61572   -425.15249   -7591.2775    1428.2331   -2991.2177   -21210.848    15.363262    13.304952    27.641696    5650.1693 
  184000      183.987    415.18248    17.065962   -442.19232   -425.12636   -8306.7698    2189.6889   -2755.2984     -24354.7    15.363265    13.304954    27.641679    5650.1675 
  184500      184.487    389.86356    16.025235   -441.12569   -425.10045   -7564.6461    2534.8589   -3154.8889   -22073.908    15.363267    13.304956    27.641661    5650.1656 
  185000      184.987    402.03715    16.525627   -441.60028   -425.07466   -7856.2058    1931.6024   -4238.2276   -21261.992    15.363269    13.304958    27.641644    5650.1638 
  185500      185.487    403.71599    16.594635   -441.64292   -425.04829    -8352.246   -179.20528   -3152.7113   -21724.822    15.363272     13.30496    27.641627     5650.162 
  186000      185.987    398.63269    16.385688   -441.40784   -425.02215   -7205.7789    686.89894   -4263.3213   -18040.914    15.363274    13.304963    27.641609    5650.1601 
  186500      186.487    419.17574    17.230104   -442.22625   -424.99615   -8786.4348    1905.8301   -4997.9628   -23267.172    15.363276    13.304965    27.641592    5650.1583 
  187000      186.987    420.69374    17.292501   -442.26243   -424.96993   -7615.7793    1531.4721   -3718.7308   -20660.079    15.363279    13.304967    27.641574    5650.1565 
  187500      187.487    401.17066     16.49001   -441.43311    -424.9431   -7091.9366    2891.1299   -2656.2055   -21510.734    15.363281    13.304969    27.641557    5650.1546 
  188000      187.987     409.0239    16.812815   -441.72953   -424.91672    -6130.909    4329.7539   -4825.1932   -17897.288    15.363284    13.304971    27.641539    5650.1528 
  188500      188.487    402.62208     16.54967   -441.44044   -424.89077   -8398.2503    1408.7534    -3484.737   -23118.767    15.363286    13.304973    27.641522     5650.151 
  189000      188.987    398.50798    16.380561   -441.24462   -424.86406   -7563.0158    1769.5217   -2764.7923   -21693.777    15.363288    13.304975    27.641504    5650.1491 
  189500      189.487    404.76061    16.637574   -441.47516   -424.83759    -7011.283    1988.7829   -2967.5118    -20055.12    15.363291    13.304977    27.641487    5650.1473 
  190000      189.987    417.54412    17.163037   -441.97522   -424.81218   -5923.4852     4707.509   -3807.3395   -18670.625    15.363293    13.304979    27.641469    5650.1455 
  190500      190.487    421.05248    17.307247   -442.09256   -424.78531   -7916.5544     3883.656   -3869.2587   -23764.061    15.363295    13.304981    27.641452    5650.1436 
  191000      190.987    402.78306    16.556288   -441.31462   -424.75833   -7482.0076     3448.054   -3889.9903   -22004.087    15.363298    13.304983    27.641435    5650.1418 
  191500      191.487    401.56481    16.506212   -441.23808   -424.73187    -6345.184    3826.9819   -3838.6219   -19023.912      15.3633    13.304985    27.641417      5650.14 
  192000      191.987    414.97719    17.057524   -441.76308   -424.70556   -7311.6612    2616.5678   -5137.8377   -19413.714    15.363302    13.304987      27.6414    5650.1382 
  192500      192.487    389.75759    16.020879   -440.69951   -424.67863   -6283.8492    3042.4529   -1847.2663   -20046.734    15.363305    13.304989    27.641382    5650.1363 
  193000      192.987    415.83601    17.092825   -441.74516   -424.65234   -7810.3711    3056.4946   -2276.6735   -24210.935    15.363307    13.304991    27.641365    5650.1345 
  193500      193.487    408.54879    16.793286   -441.41857   -424.62529   -8592.3463    2788.2202   -3774.9228   -24790.336    15.363309    13.304993    27.641347    5650.1327 
  194000      193.987    419.99248    17.263676   -441.86404   -424.60037   -7766.2113     2572.158   -3611.9913   -22258.801    15.363312    13.304995     27.64133    5650.1308 
  194500      194.487    407.66819    16.757089   -441.33032   -424.57323   -7742.5224    3912.6279   -5412.3595   -21727.835    15.363314    13.304997    27.641312     5650.129 
  195000      194.987     429.1038    17.638194   -442.18515   -424.54695   -7141.0448    1527.9152   -3989.2187   -18961.831    15.363316    13.304999    27.641295    5650.1272 
  195500      195.487    397.21073    16.327238   -440.84683   -424.51959   -7781.8745    2876.3136   -2727.4607   -23494.477    15.363319    13.305001    27.641278    5650.1253 
  196000      195.987    435.69831     17.90926   -442.40284   -424.49358   -7842.2072    1181.4253   -3749.3554   -20958.691    15.363321    13.305004     27.64126    5650.1235 
  196500      196.487    411.77767    16.926008   -441.39261    -424.4666   -7157.5694    5437.8782    1062.2448   -27972.831    15.363323    13.305006    27.641243    5650.1217 
  197000      196.987    417.56079    17.163722   -441.60384   -424.44012   -6529.1485    2742.1393   -3952.2522   -18377.333    15.363326    13.305008    27.641225    5650.1198 
  197500      197.487    420.68217    17.292025   -441.70582   -424.41379   -8712.9267    1523.9766    -958.7354   -26704.021    15.363328     13.30501    27.641208     5650.118 
  198000      197.987    420.77434    17.295814   -441.68245   -424.38664   -6123.8584    4865.4941   -3237.8771   -19999.192    15.363331    13.305012     27.64119    5650.1162 
  198500      198.487    404.54028    16.628517   -440.98823   -424.35972    -8203.696    1933.0846   -3637.2644   -22906.908    15.363333    13.305014    27.641173    5650.1143 
  199000      198.987    401.93311     16.52135   -440.85463   -424.33328   -6869.3157     3774.559   -2512.7262    -21869.78    15.363335    13.305016    27.641155    5650.1125 
  199500      199.487    411.99732    16.935037   -441.24118   -424.30615   -8159.3902    2298.3116   -2414.4909   -24361.991    15.363338    13.305018    27.641138    5650.1107 
  200000      199.987    409.77562    16.843715   -441.12363   -424.27992   -7649.4403    3624.5629   -5853.1541    -20719.73     15.36334     13.30502     27.64112    5650.1088 
  200500      200.487    398.05133    16.361791    -440.6145   -424.25271   -5903.3941    4210.6114     -2334.94   -19585.854    15.363342    13.305022    27.641103     5650.107 
  201000      200.987    422.52201    17.367652   -441.59431   -424.22666   -7143.1557    5323.3273   -6407.7443    -20345.05    15.363345    13.305024    27.641086    5650.1052 
  201500      201.487    420.58576    17.288062   -441.48762   -424.19956    -6752.503    3130.1394    -1407.261   -21980.387    15.363347    13.305026    27.641068    5650.1033 
  202000      201.987    412.67577    16.962924   -441.13504   -424.17212    -6585.952     4979.161   -2223.6043   -22513.413    15.363349    13.305028    27.641051    5650.1015 
  202500      202.487    418.83155    17.215956   -441.36105    -424.1451   -6421.3446    4439.7316    -1602.711   -22101.055    15.363352     13.30503    27.641033    5650.0997 
  203000      202.987    449.75569    18.487084   -442.60566   -424.11858   -6777.1215    2743.6331    -4154.184   -18920.814    15.363354    13.305032    27.641016    5650.0978 
  203500      203.487    431.28547    17.727871   -441.81893   -424.09106   -5821.9795    5959.9348   -3570.6536    -19855.22    15.363356    13.305034    27.640998     5650.096 
  204000      203.987    409.17257    16.818926   -440.88264   -424.06371   -6291.5662    3504.2206   -4225.4176   -18153.501    15.363359    13.305036    27.640981    5650.0942 
  204500      204.487    416.58206    17.123492   -441.16032   -424.03683   -7260.9105    1595.0535   -2375.3722   -21002.413    15.363361    13.305038    27.640963    5650.0923 
  205000      204.987    412.84694     16.96996   -440.97988   -424.00992   -6020.9906    3715.9976   -4354.1163   -17424.853    15.363363     13.30504    27.640946    5650.0905 
  205500      205.487    405.21243    16.656146   -440.63935    -423.9832   -7711.9282    3542.4795   -2711.3126   -23966.952    15.363366    13.305042    27.640929    5650.0887 
  206000      205.987    423.75342    17.418268   -441.37403   -423.95576   -6587.6289     3531.321   -686.22783    -22607.98    15.363368    13.305045    27.640911    5650.0869 
  206500      206.487    419.97302    17.262876   -441.19129   -423.92841   -6561.2806    2750.2618   -1785.4785   -20648.625     15.36337    13.305047    27.640894     5650.085 
  207000      206.987    422.68838     17.37449   -441.27624   -423.90175   -7613.2804    2730.3769   -3207.7028   -22362.515    15.363373    13.305049    27.640876    5650.0832 
  207500      207.487    427.22305    17.560887   -441.43584   -423.87495   -6536.0336    3389.1046   -5929.4478   -17067.758    15.363375    13.305051    27.640859    5650.0814 
  208000      207.987    412.41423    16.952174   -440.79957    -423.8474   -6898.9432    2078.6294   -1571.2235   -21204.236    15.363378    13.305053    27.640841    5650.0795 
  208500      208.487    410.96921    16.892777   -440.71314   -423.82036   -7954.6407     3250.029   -3908.8891   -23205.062     15.36338    13.305055    27.640824    5650.0777 
  209000      208.987    429.40763    17.650683   -441.44482   -423.79414   -6059.9365    2450.1685   -321.34778    -20308.63    15.363382    13.305057    27.640806    5650.0759 
  209500      209.487     419.4597    17.241776   -441.00783   -423.76605    -6859.215    1574.5535   -3414.3837   -18737.815    15.363385    13.305059    27.640789     5650.074 
  210000      209.987    434.29891    17.851738    -441.5915   -423.73977   -7524.7608    1333.7987   -3742.1795   -20165.902    15.363387    13.305061    27.640771    5650.0722 
  210500      210.487    437.07464    17.965834   -441.67869   -423.71286   -8160.5523   -310.80725   -3493.1584   -20677.691    15.363389    13.305063    27.640754    5650.0704 
  211000      210.987    411.53006     16.91583   -440.60104   -423.68521   -7948.3808    2538.4101   -2751.0321    -23632.52    15.363392    13.305065    27.640737    5650.0685 
  211500      211.487    430.45219     17.69362    -441.3527   -423.65908   -7544.5381    2778.6728   -3010.7431   -22401.544    15.363394    13.305067    27.640719    5650.0667 
  212000      211.987    412.20453    16.943554   -440.57534   -423.63179   -7042.7775    3719.4661   -2629.7017   -22218.097    15.363396    13.305069    27.640702    5650.0649 
[...]
  948500      948.487    597.00899    24.539891   -436.87845   -412.33856   -2446.9723    5835.9785    3417.0098   -16593.905    15.366858    13.308089    27.614998     5647.364 
  949000      948.987    564.95323    23.222248     -435.556   -412.33376   -1590.4258    5638.6696    -115.5727   -10294.374     15.36686    13.308091     27.61498    5647.3621 
  949500      949.487    548.72567    22.555218   -434.88554   -412.33033   -1362.9679    10062.481    2674.5449   -16825.929    15.366863    13.308093    27.614963    5647.3603 
  950000      949.987       527.55    21.684798   -434.01023   -412.32543   -2198.7759     7956.549    -156.7939   -14396.083    15.366865    13.308095    27.614945    5647.3585 
  950500      950.487     604.8829    24.863546   -437.18532   -412.32177   -2013.8278    7149.5831    4166.6949   -17357.761    15.366867    13.308097    27.614928    5647.3566 
  951000      950.987    555.24255    22.823093   -435.14026   -412.31717   -1288.5421    6870.4536    855.00749   -11591.088     15.36687    13.308099    27.614911    5647.3548 
  951500      951.487    552.77704    22.721749   -435.03353   -412.31178   -747.05182    7177.4952    621.27117   -10039.922    15.366872    13.308101    27.614893     5647.353 
  952000      951.987    589.42955     24.22834   -436.53547   -412.30713    -2043.481     7531.221    1823.3647   -15485.029    15.366874    13.308103    27.614876    5647.3511 
  952500      952.487    567.59697    23.330918    -435.6339   -412.30298   -2058.3695    7720.0312    3742.7063   -17637.846    15.366877    13.308105    27.614858    5647.3493 
  953000      952.987    553.53431    22.752876   -435.05045   -412.29758   -150.37326    6130.0527    3332.9662   -9914.1387    15.366879    13.308107    27.614841    5647.3474 
  953500      953.487    569.25154    23.398929    -435.6929   -412.29397   -3570.8368    7310.9345   -5642.2643   -12381.181    15.366881    13.308109    27.614823    5647.3456 
  954000      953.987    583.32268    23.977319   -436.26753   -412.29021   -2216.4116    8338.2668    422.17127   -15409.673    15.366884    13.308111    27.614806    5647.3438 
  954500      954.487    567.53218    23.328255   -435.61356    -412.2853   -2107.0388    4983.7234    3007.4972   -14312.337    15.366886    13.308113    27.614788    5647.3419 
  955000      954.987    556.13427    22.859747   -435.14055    -412.2808   -1141.0614     6842.676    1576.5294    -11842.39    15.366888    13.308115    27.614771    5647.3401 
  955500      955.487    609.45322    25.051408   -437.32857   -412.27717   -2929.4581    5968.0873     2041.329   -16797.791    15.366891    13.308117    27.614754    5647.3383 
  956000      955.987    549.01174    22.566977   -434.83799   -412.27101   -2162.7134    5448.6652    1439.0748    -13375.88    15.366893     13.30812    27.614736    5647.3364 
  956500      956.487    565.55283    23.246894    -435.5129     -412.266   -552.39286    9204.0399    4288.2675   -15149.486    15.366895    13.308122    27.614719    5647.3346 
  957000      956.987    532.45904    21.886583   -434.14695   -412.26037    388.82954    10560.233    1758.6859    -11152.43    15.366898    13.308124    27.614701    5647.3328 
  957500      957.487    567.34194    23.320435   -435.57548   -412.25505   -2667.7751    9857.6467   -1689.4613   -16171.511      15.3669    13.308126    27.614684    5647.3309 
  958000      957.987      584.736    24.035413   -436.28583   -412.25042   -2497.1229      8094.34   -1856.0129   -13729.696    15.366903    13.308128    27.614666    5647.3291 
  958500      958.487     544.9419    22.399688   -434.64612   -412.24643   -435.15193    10518.969   -820.98922   -11003.436    15.366905     13.30813    27.614649    5647.3273 
  959000      958.987    598.41462    24.597669   -436.83956    -412.2419   -1436.6837    7800.9472    2633.2369   -14744.235    15.366907    13.308132    27.614631    5647.3254 
  959500      959.487    569.44917    23.407052   -435.64396   -412.23691   -1023.6155    7500.4376      4393.37   -14964.654     15.36691    13.308134    27.614614    5647.3236 
  960000      959.987    559.31081    22.990318   -435.22272    -412.2324   -1924.5694    10803.161    2969.3011   -19546.171    15.366912    13.308136    27.614596    5647.3218 
  960500      960.487     558.0655    22.939129   -435.16527   -412.22614   -1352.2537    7145.4811    7015.3967   -18217.639    15.366914    13.308138    27.614579    5647.3199 
  961000      960.987    594.64429    24.442691   -436.66501   -412.22232   -3628.2489    9939.4144   -105.00041   -20719.161    15.366917     13.30814    27.614562    5647.3181 
  961500      961.487     527.7457    21.692843   -433.90815   -412.21531    473.99615     11439.24    1104.5153   -11121.767    15.366919    13.308142    27.614544    5647.3162 
  962000      961.987    600.35729    24.677522   -436.88846   -412.21093   -3050.3197    5356.9361   -400.41443   -14107.481    15.366921    13.308144    27.614527    5647.3144 
  962500      962.487    563.02413    23.142953   -435.34766    -412.2047   -1960.8195    9455.9818    599.95062   -15938.391    15.366924    13.308146    27.614509    5647.3126 
  963000      962.987    562.97069    23.140756   -435.33946   -412.19871   -2362.4634     7289.155    3102.1253   -17478.671    15.366926    13.308148    27.614492    5647.3107 
  963500      963.487    585.71231    24.075544   -436.26998   -412.19444   -1325.3636    7943.6502    274.97827   -12194.719    15.366928     13.30815    27.614474    5647.3089 
  964000      963.987    572.92745    23.550026   -435.73804   -412.18802   -2373.2785    8925.2294    1505.4547    -17550.52    15.366931    13.308152    27.614457    5647.3071 
  964500      964.487    549.51686     22.58774   -434.76978   -412.18204   -530.99841    10265.375    631.76882   -12490.139    15.366933    13.308154    27.614439    5647.3052 
  965000      964.987    558.41367    22.953441   -435.12738   -412.17394   -378.60288    10246.448    2705.9572   -14088.214    15.366935    13.308156    27.614422    5647.3034 
  965500      965.487    553.51219    22.751967   -434.91967    -412.1677   -1043.1605    11339.932    3147.1933   -17616.607    15.366938    13.308158    27.614405    5647.3016 
  966000      965.987    576.51951    23.697677   -435.86078    -412.1631   -1514.7894    9066.0272    3291.1462   -16901.542     15.36694    13.308161    27.614387    5647.2997 
  966500      966.487     599.5996    24.646377   -436.80315   -412.15677   -2037.2036    6950.4643    2838.0554   -15900.131    15.366942    13.308163     27.61437    5647.2979 
  967000      966.987     579.9494    23.838661   -435.98882   -412.15016   -2060.7024    7007.6687     2138.839   -15328.615    15.366945    13.308165    27.614352    5647.2961 
  967500      967.487    564.25257    23.193447   -435.33731   -412.14386   -1917.5759    5081.3382    1307.9783   -12142.044    15.366947    13.308167    27.614335    5647.2942 
  968000      967.987    586.70891    24.116509   -436.25518   -412.13867   -2979.3814    7573.8163   -531.80456   -15980.156     15.36695    13.308169    27.614317    5647.2924 
  968500      968.487    572.91249    23.549411    -435.6826   -412.13319    -1633.335    8369.9492    2032.5202   -15302.474    15.366952    13.308171      27.6143    5647.2906 
  969000      968.987    551.16474    22.655476   -434.78074   -412.12527   -2093.9888    5676.9098    3381.0909   -15339.967    15.366954    13.308173    27.614282    5647.2887 
  969500      969.487     609.5139    25.053902    -437.1748    -412.1209   -2740.4384     6554.708    1177.9473   -15953.971    15.366957    13.308175    27.614265    5647.2869 
  970000      969.987    568.52558    23.369088   -435.48329   -412.11421   -81.733091    10210.011    3433.2049   -13888.415    15.366959    13.308177    27.614247    5647.2851 
  970500      970.487     567.2464    23.316508   -435.42452   -412.10801   -1349.0904    8001.1499    2436.8818   -14485.303    15.366961    13.308179     27.61423    5647.2832 
  971000      970.987    550.79766    22.640387   -434.74109    -412.1007    38.120248    9830.1278    4531.9747   -14247.742    15.366964    13.308181    27.614213    5647.2814 
  971500      971.487    596.96049    24.537898   -436.63322   -412.09532   -2684.3712    9360.2011   -487.29238   -16926.022    15.366966    13.308183    27.614195    5647.2795 
  972000      971.987    570.71978     23.45928   -435.54731   -412.08803   -293.12194    8351.9208    3919.6213   -13150.908    15.366968    13.308185    27.614178    5647.2777 
  972500      972.487    555.65625    22.840098   -434.92091   -412.08082   -612.94878    7626.4801    3290.4438    -12755.77    15.366971    13.308187     27.61416    5647.2759 
  973000      972.987    612.05028    25.158159   -437.23344   -412.07529   -2191.4778    5282.9329   -899.02372   -10958.343    15.366973    13.308189    27.614143     5647.274 
  973500      973.487    565.64339    23.250617   -435.31954   -412.06892   -1531.2697    8073.5434    4413.2864   -17080.639    15.366975    13.308191    27.614125    5647.2722 
  974000      973.987    546.89117    22.479812   -434.54242   -412.06261   -1798.6135    7886.5433    1842.9379   -15125.322    15.366978    13.308193    27.614108    5647.2704 
  974500      974.487    575.83129    23.669387   -435.72766   -412.05827   -1030.8172    4147.3202    4586.3782    -11826.15     15.36698    13.308195     27.61409    5647.2685 
  975000      974.987    577.24898    23.727661   -435.77926    -412.0516   -958.21448    8666.6931    -518.6547   -11022.682    15.366982    13.308197    27.614073    5647.2667 
  975500      975.487    553.11459    22.735624   -434.77945   -412.04382   -2780.4595    4370.7882    3517.4269   -16229.593    15.366985    13.308199    27.614056    5647.2649 
  976000      975.987    563.58323    23.165934   -435.20269   -412.03676   -856.37887      3270.95    9320.5494   -15160.636    15.366987    13.308202    27.614038     5647.263 
  976500      976.487    557.20609    22.903804   -434.93164   -412.02784   -1247.0301    6209.7142    5129.3107   -15080.115    15.366989    13.308204    27.614021    5647.2612 
  977000      976.987    574.82072    23.627848   -435.64897   -412.02112   -1339.9562    4635.4467    2050.6049    -10705.92    15.366992    13.308206    27.614003    5647.2594 
  977500      977.487    586.35889    24.102122   -436.11652   -412.01439   -1813.7763    6377.5301    3656.2287   -15475.088    15.366994    13.308208    27.613986    5647.2575 
  978000      977.987    567.09256    23.310185   -435.31707   -412.00689   -2265.2244    5346.8349    2698.6824    -14841.19    15.366997     13.30821    27.613968    5647.2557 
  978500      978.487    575.68553    23.663396    -435.6647   -412.00131   -2400.2678    5464.1681     3845.625   -16510.596    15.366999    13.308212    27.613951    5647.2539 
  979000      978.987    545.94788    22.441038   -434.43487   -411.99383   -1235.0173    7223.6855    386.54058   -11315.278    15.367001    13.308214    27.613933     5647.252 
  979500      979.487    576.70344    23.705237    -435.6916   -411.98636   -462.99921    6415.4582    1950.5071    -9754.963    15.367004    13.308216    27.613916    5647.2502 
  980000      979.987    586.12772     24.09262   -436.07092    -411.9783   -2753.7548    6499.7147    162.36749   -14923.346    15.367006    13.308218    27.613898    5647.2484 
  980500      980.487    588.40969    24.186419   -436.15738   -411.97096   -650.73963    5009.2321    3709.5004   -10670.951    15.367008     13.30822    27.613881    5647.2465 
  981000      980.987    547.75463    22.515304   -434.47707   -411.96177    -235.7049    7972.5146    7308.0961   -15987.725    15.367011    13.308222    27.613864    5647.2447 
  981500      981.487    570.38755    23.445624   -435.40089   -411.95527   -1968.8958    5387.1043    4449.4448   -15743.236    15.367013    13.308224    27.613846    5647.2428 
  982000      981.987    565.79679    23.256922   -435.20307   -411.94615   -673.97345    3950.7925     4600.613   -10573.326    15.367015    13.308226    27.613829     5647.241 
  982500      982.487    606.71695    24.938934   -436.87795   -411.93901   -828.98924    8585.0596    2273.7011   -13345.728    15.367018    13.308228    27.613811    5647.2392 
  983000      982.987    552.19676    22.697897   -434.62906   -411.93117   -1310.3866     7648.246    6272.5812   -17851.987     15.36702     13.30823    27.613794    5647.2373 
  983500      983.487    584.44762    24.023559   -435.94735   -411.92379   -1845.7317    2110.3099    6346.6973   -13994.202    15.367022    13.308232    27.613776    5647.2355 
  984000      983.987      570.011    23.430146   -435.34529   -411.91515   -2304.8723    2303.8869    5598.3127   -14816.817    15.367025    13.308234    27.613759    5647.2337 
  984500      984.487    588.99093    24.210311   -436.11815   -411.90784    587.65879     7589.521    6268.7807   -12095.325    15.367027    13.308236    27.613741    5647.2318 
  985000      984.987    558.95776    22.975806   -434.87375   -411.89795   -757.93042    5100.4009    4827.9268   -12202.119    15.367029    13.308238    27.613724      5647.23 
  985500      985.487    550.21451    22.616417   -434.50651   -411.89009   -74.719546    6534.2434    5264.0667   -12022.469    15.367032     13.30824    27.613707    5647.2282 
  986000      985.987    588.72448    24.199359    -436.0823   -411.88295   -1265.6722    7066.5615     3462.622     -14326.2    15.367034    13.308243    27.613689    5647.2263 
  986500      986.487    590.43076    24.269495   -436.14387   -411.87437   -42.268762     7168.877    7961.1251   -15256.808    15.367036    13.308245    27.613672    5647.2245 
  987000      986.987    585.10069    24.050403   -435.91625   -411.86585   -1953.3271    1625.6004    4660.6107   -12146.192    15.367039    13.308247    27.613654    5647.2227 
  987500      987.487    558.11839    22.941303   -434.79604   -411.85474   -388.88038    9580.8991      7494.35    -18241.89    15.367041    13.308249    27.613637    5647.2208 
  988000      987.987    573.38009    23.568631   -435.41468   -411.84605   -913.68981    1753.2943    7339.7673   -11834.131    15.367044    13.308251    27.613619     5647.219 
  988500      988.487    585.13279    24.051723   -435.88849   -411.83677   -579.60401    5603.8644    4095.5193   -11438.196    15.367046    13.308253    27.613602    5647.2172 
  989000      988.987    564.97745    23.223243   -435.05197   -411.82872   -1349.8758    6869.5822    3127.1177   -14046.327    15.367048    13.308255    27.613584    5647.2153 
  989500      989.487    595.86242    24.492762   -436.31357   -411.82081   -1452.9318    4785.1971    1553.0552   -10697.048    15.367051    13.308257    27.613567    5647.2135 
  990000      989.987    570.96795    23.469481   -435.28227   -411.81279    290.88304    6907.8919    4669.3354   -10704.578    15.367053    13.308259    27.613549    5647.2116 
  990500      990.487    580.89873    23.877683   -435.68072   -411.80303   -749.71538      10132.7     2641.845   -15023.691    15.367055    13.308261    27.613532    5647.2098 
  991000      990.987    559.30171    22.989944   -434.78425   -411.79431   -864.97947    4942.6214    2368.4301   -9905.9899    15.367058    13.308263    27.613515     5647.208 
  991500      991.487    549.23715    22.576243   -434.35962   -411.78338    -404.0456    9004.4682    7995.5411   -18212.146     15.36706    13.308265    27.613497    5647.2061 
  992000      991.987    543.74618    22.350538    -434.1251   -411.77457    583.63236     7198.649    5614.3616   -11062.114    15.367062    13.308267     27.61348    5647.2043 
  992500      992.487    558.98802    22.977049   -434.74296   -411.76591   -3361.6414    5633.9572   -214.34856   -15504.533    15.367065    13.308269    27.613462    5647.2025 
  993000      992.987    565.76791    23.255735   -435.01306   -411.75732   -1954.6614    4852.6543    4713.2864   -15429.925    15.367067    13.308271    27.613445    5647.2006 
  993500      993.487    584.99748    24.046161    -435.7961   -411.74994   -2567.6283    3895.4367    4534.0216   -16132.343    15.367069    13.308273    27.613427    5647.1988 
  994000      993.987    559.15839    22.984053   -434.72378   -411.73973   -1135.1425     6265.617    3829.9607   -13501.005    15.367072    13.308275     27.61341     5647.197 
  994500      994.487      563.567    23.165267   -434.89611   -411.73084   -799.69137    6341.5122    3487.5189   -12228.105    15.367074    13.308277    27.613392    5647.1951 
  995000      994.987    576.03463    23.677746   -435.40002   -411.72227   -1771.8024    8329.1946    3313.5178    -16958.12    15.367076    13.308279    27.613375    5647.1933 
  995500      995.487    595.38369    24.473083   -436.18612   -411.71303   -588.70587    8798.9597    4024.5659   -14589.643    15.367079    13.308281    27.613358    5647.1915 
  996000      995.987    581.12461    23.886968   -435.59116   -411.70419   -2844.5746    3492.4032    3533.0418   -15559.169    15.367081    13.308284     27.61334    5647.1896 
  996500      996.487    562.25867    23.111489    -434.8063   -411.69481   -2140.4329    3025.1753    8137.1145   -17583.588    15.367083    13.308286    27.613323    5647.1878 
  997000      996.987    578.26237    23.769316   -435.45639   -411.68707   -2847.1416    1895.1285    4907.6496   -15344.203    15.367086    13.308288    27.613305     5647.186 
  997500      997.487    559.70289    23.006434   -434.68274   -411.67631   -350.51377    3309.5765    5416.0517   -9777.1695    15.367088     13.30829    27.613288    5647.1841 
  998000      997.987    564.22502    23.192315   -434.86041   -411.66809   -1364.4439    3759.6791    3870.0438   -11723.055    15.367091    13.308292     27.61327    5647.1823 
  998500      998.487    586.78209    24.119517   -435.77632    -411.6568   -1955.7235    2923.9186    6613.2454   -15404.335    15.367093    13.308294    27.613253    5647.1804 
  999000      998.987    597.25395     24.54996   -436.19742   -411.64746   -1502.3309    3412.6991     7535.513   -15455.205    15.367095    13.308296    27.613235    5647.1786 
  999500      999.487    558.53576    22.958459   -434.59574   -411.63728   -1312.8777    2925.8764    9408.8678   -16273.377    15.367098    13.308298    27.613218    5647.1768 
 1000000      999.987    587.75674     24.15958   -435.78882   -411.62924   -1707.8547   -895.29358    6538.8727   -10767.143      15.3671      13.3083      27.6132    5647.1749 
 1000013         1000    573.81484    23.586502   -435.21462   -411.62812   -1981.6954    1481.9149    5446.4789    -12873.48      15.3671      13.3083      27.6132    5647.1749 
Loop time of 898.489 on 28 procs for 1000000 steps with 319 atoms

Performance: 96.161 ns/day, 0.250 hours/ns, 1112.980 timesteps/s
87.2% CPU use with 28 MPI tasks x no OpenMP threads

MPI task timing breakdown:
Section |  min time  |  avg time  |  max time  |%varavg| %total
---------------------------------------------------------------
Pair    | 751.58     | 782.58     | 808.02     |  60.2 | 87.10
Neigh   | 0.031293   | 0.044277   | 0.057127   |   3.5 |  0.00
Comm    | 79.507     | 102.94     | 133.49     | 159.3 | 11.46
Output  | 0.10087    | 0.1031     | 0.12561    |   1.4 |  0.01
Modify  | 4.9095     | 7.6547     | 12.627     |  82.7 |  0.85
Other   |            | 5.166      |            |       |  0.57

Nlocal:    11.3929 ave 16 max 6 min
Histogram: 2 0 4 0 3 5 5 2 3 4
Nghost:    643.964 ave 687 max 587 min
Histogram: 3 3 2 0 4 3 1 0 6 6
Neighs:    701.75 ave 1032 max 344 min
Histogram: 2 3 1 2 4 6 3 4 1 2
FullNghs:  1403.5 ave 1994 max 725 min
Histogram: 2 2 2 3 3 5 3 2 3 3

Total # of neighbors = 39298
Ave neighs/atom = 123.191
Neighbor list builds = 662
Dangerous builds = 0

write_restart   POSCAR_1x1x1.rest

#unfix    1
#undump   1
Total wall time: 0:14:58
