LAMMPS (7 Dec 2015)
#----------- Initialize Simulation ------------ restart01
#processors	2 2 2
units		metal
boundary	p p p     ## periodic boundary condition  on x y z axis ##
atom_style atomic
#atom_modify map array sort 0 0.0

read_data	POSCAR_1x1x1.lammps
  triclinic box = (0 0 0) to (15.3338 13.2795 27.8581) with tilt (-7.6668 0 0)
  2 by 2 by 7 MPI processor grid
  reading atoms ...
  319 atoms

#----------- Define Potential -----------------
pair_style meam
pair_coeff * * MgAlZn.library.meam Mg Al Zn MgAlZn.parameter.meam Mg Al Zn 	#1=Mg 2=Al 3=Zn	#atoms/mass

#----------- Neighbor List --------------------
neighbor 2.0 bin
neigh_modify delay 10 check yes

#--------------  Run a simulation (minimization) ---------------------------------------
minimize       1.0e-4   1.0e-6   100   1000          #結構優化的條件
WARNING: Resetting reneighboring criteria during minimization (../min.cpp:168)
Neighbor list info ...
  2 neighbor list requests
  update every 1 steps, delay 0 steps, check yes
  max neighbors/atom: 2000, page size: 100000
  master list distance cutoff = 8
  ghost atom cutoff = 8
  binsize = 4 -> bins = 6 4 7
Memory usage per processor = 8.65142 Mbytes
Step Temp E_pair E_mol TotEng Press 
       0            0   -434.21284            0   -434.21284   -7513.3917 
      12            0   -456.27117            0   -456.27117   -23006.881 
Loop time of 0.0187685 on 28 procs for 12 steps with 319 atoms

83.2% CPU use with 28 MPI tasks x no OpenMP threads

Minimization stats:
  Stopping criterion = energy tolerance
  Energy initial, next-to-last, final = 
        -434.212843786     -456.239455086     -456.271166905
  Force two-norm initial, final = 19.0135 0.746081
  Force max component initial, final = 2.08983 0.108973
  Final line search alpha, max atom move = 0.607798 0.0662337
  Iterations, force evaluations = 12 20

MPI task timing breakdown:
Section |  min time  |  avg time  |  max time  |%varavg| %total
---------------------------------------------------------------
Pair    | 0.01469    | 0.015693   | 0.016946   |   0.4 | 83.61
Neigh   | 0          | 0          | 0          |   0.0 |  0.00
Comm    | 0.00097026 | 0.0021938  | 0.0032331  |   1.0 | 11.69
Output  | 0          | 0          | 0          |   0.0 |  0.00
Modify  | 0          | 0          | 0          |   0.0 |  0.00
Other   |            | 0.0008815  |            |       |  4.70

Nlocal:    11.3929 ave 16 max 7 min
Histogram: 4 2 3 1 4 2 3 5 3 1
Nghost:    643.036 ave 698 max 586 min
Histogram: 4 4 0 1 3 3 3 5 3 2
Neighs:    701.464 ave 954 max 401 min
Histogram: 4 1 3 1 4 2 1 3 6 3
FullNghs:  1402.93 ave 1963 max 837 min
Histogram: 4 2 3 1 4 1 3 3 4 3

Total # of neighbors = 39282
Ave neighs/atom = 123.141
Neighbor list builds = 0
Dangerous builds = 0
velocity all  create 600.0 4928459 #rot yes dist gaussian

#--------------  Run a simulation (Relaxation)  ----------------------------------------
fix  1  all  nvt   temp  600.0  600.0  100				#damping constant
#fix  2  all  npt   temp  393.0  393.0  50 iso 0.0 0.0 1000.0
fix  2  all deform 1 x final 0 15.3386 y final 0 13.2836 z final 0 27.8231 xy final -7.6692 units lattice
#fix  3  all  npt   temp  393.0  393.0  50 z 0.0 0.0 1000.0

#variable b equal 1
#fix 2 all efield  0.0  0.0  v_b
#compute pot all pe/atom


#----------- Output --------------------------
thermo	 500
timestep  0.001		#1.0 fs
thermo_style	custom step time temp ke pe etotal press pxx pyy pzz lx ly lz vol

dump 1 all custom 10000 dump.eq id type x y z
dump_modify 1 sort  id

run        1000000	#1000 ps
Neighbor list info ...
  2 neighbor list requests
  update every 1 steps, delay 10 steps, check yes
  max neighbors/atom: 2000, page size: 100000
  master list distance cutoff = 8
  ghost atom cutoff = 8
  binsize = 4 -> bins = 6 4 7
Memory usage per processor = 7.55899 Mbytes
Step Time Temp KinEng PotEng TotEng Press Pxx Pyy Pzz Lx Ly Lz Volume 
      12            0          600    24.662836   -456.27117   -431.60833   -18363.022   -9239.4395   -7822.5154    -38027.11      15.3338      13.2795      27.8581    5672.6111 
     500        0.488    316.73639    13.019362   -444.62386    -431.6045   -11406.038   -1959.3307    282.26214   -32541.044    15.333802    13.279502    27.858083    5672.6093 
    1000        0.988    304.37307    12.511172    -444.1151   -431.60393   -13006.772    -4137.947   -815.82481   -34066.544    15.333805    13.279504    27.858065    5672.6075 
    1500        1.488    302.44817    12.432049   -444.03524   -431.60319   -12237.792   -2515.1109   -3233.1002   -30965.166    15.333807    13.279506    27.858048    5672.6057 
    2000        1.988    298.28078     12.26075   -443.86269   -431.60194   -11677.222   -3558.3921   -1672.4064   -29800.868     15.33381    13.279508     27.85803    5672.6039 
    2500        2.488    320.54368     13.17586   -444.77679   -431.60093   -12533.229   -3291.2933   -1063.3338   -33245.059    15.333812     13.27951    27.858013    5672.6021 
    3000        2.988    312.22798    12.834046   -444.43347   -431.59942   -11870.308   -3477.2859   -1259.3896   -30874.247    15.333814    13.279512    27.857995    5672.6003 
    3500        3.488    293.95781    12.083055    -443.6798   -431.59675   -10975.151   -2998.0796    377.85325   -30305.228    15.333817    13.279514    27.857978    5672.5985 
    4000        3.988    299.46809    12.309554   -443.90431   -431.59476   -12148.556   -4258.9559   -1676.9125     -30509.8    15.333819    13.279516     27.85796    5672.5967 
    4500        4.488    291.52074     11.98288   -443.57507   -431.59219    -10788.31   -2578.6762   -25.129724   -29761.125    15.333822    13.279518    27.857943    5672.5949 
    5000        4.988    302.71356    12.442958   -444.03256    -431.5896   -12730.462   -3381.7285   -1049.7553   -33759.903    15.333824     13.27952    27.857925    5672.5931 
    5500        5.488    318.12274    13.076348   -444.66295    -431.5866   -12322.994   -2770.3396   -3527.2996   -30671.343    15.333826    13.279523    27.857908    5672.5913 
    6000        5.988    300.79082    12.363924   -443.94677   -431.58285   -12486.803   -4446.3005   -4716.0961   -28298.011    15.333829    13.279525     27.85789    5672.5895 
    6500        6.488    331.13783     13.61133   -445.19103    -431.5797   -11441.553   -2542.6387   -1262.8871   -30519.134    15.333831    13.279527    27.857873    5672.5877 
    7000        6.988    308.46252    12.679267   -444.25445   -431.57518   -11199.037   -1888.6968   -3125.0576   -28583.357    15.333834    13.279529    27.857855    5672.5859 
    7500        7.488    317.68835    13.058492   -444.62946   -431.57097   -11715.127    -4552.277   -757.99291   -29835.112    15.333836    13.279531    27.857838    5672.5841 
    8000        7.988    318.07997     13.07459   -444.64069    -431.5661   -11742.293   -4396.4837   -1452.9566   -29377.439    15.333838    13.279533     27.85782    5672.5823 
    8500        8.488    296.46492    12.186109   -443.74704   -431.56093   -11115.252   -2827.2518   -2835.8821   -27682.622    15.333841    13.279535    27.857803    5672.5805 
    9000        8.988    310.98765    12.783062   -444.33888   -431.55581   -11341.951   -4266.9392   -704.05818   -29054.856    15.333843    13.279537    27.857785    5672.5787 
    9500        9.488    303.65478    12.481647   -444.03168   -431.55003   -12149.153   -4451.9076   -342.98637   -31652.565    15.333846    13.279539    27.857768    5672.5769 
   10000        9.988    305.14026    12.542707   -444.08659   -431.54388   -11191.416   -3064.7033   -624.86811   -29884.677    15.333848    13.279541     27.85775    5672.5751 
   10500       10.488    314.50103    12.927479   -444.46552   -431.53804   -11837.983   -3445.2134   -1590.7982   -30477.937     15.33385    13.279543    27.857733    5672.5733 
   11000       10.988    312.33424    12.838413   -444.36956   -431.53115   -11788.582   -3816.8919   -255.05652   -31293.799    15.333853    13.279545    27.857715    5672.5715 
   11500       11.488     306.0411    12.579735   -444.10412   -431.52439   -11780.227   -5118.7313   -467.75158   -29754.199    15.333855    13.279547    27.857698    5672.5697 
   12000       11.988    312.60493     12.84954   -444.36651   -431.51697   -12406.581   -4536.2483   -3495.8078   -29187.687    15.333858    13.279549     27.85768    5672.5679 
   12500       12.488    321.64586    13.221165   -444.73108   -431.50991    -11796.21   -5474.7136   -1333.7234   -28580.194     15.33386    13.279551    27.857663    5672.5661 
   13000       12.988     318.0942    13.075175   -444.57719   -431.50202   -10709.429    -2055.121   -2102.1526   -27971.012    15.333862    13.279553    27.857645    5672.5643 
   13500       13.488    302.30357    12.426106   -443.91969   -431.49359   -11953.114   -1916.3761    -395.2494   -33547.715    15.333865    13.279555    27.857628    5672.5625 
   14000       13.988    307.92226     12.65706   -444.14226   -431.48519   -11787.212   -6234.7741    492.44685    -29619.31    15.333867    13.279557     27.85761    5672.5607 
   14500       14.488    314.46576    12.926029   -444.40287   -431.47684   -11653.155   -2970.5337   -2370.3094   -29618.622     15.33387    13.279559    27.857593    5672.5589 
   15000       14.988    312.96296    12.864257   -444.33201   -431.46775    -11433.56   -3251.0379   -1488.4016    -29561.24    15.333872    13.279561    27.857575    5672.5571 
   15500       15.488    311.06071    12.786065   -444.24455   -431.45848   -11096.151   -2998.3969   -1120.9193   -29169.138    15.333874    13.279564    27.857558    5672.5553 
   16000       15.988    315.29202    12.959992    -444.4089    -431.4489   -11759.501   -1616.6461   -1471.7268    -32190.13    15.333877    13.279566     27.85754    5672.5535 
   16500       16.488    292.55837    12.025532   -443.46434   -431.43881   -10652.214   -1464.8134   -2619.9574   -27871.871    15.333879    13.279568    27.857523    5672.5517 
   17000       16.988    309.46748    12.720576   -444.14917   -431.42859   -10631.893   -243.97976   -3330.1254   -28321.575    15.333882     13.27957    27.857505    5672.5499 
   17500       17.488    329.60717    13.548412   -444.96691    -431.4185    -12700.06    -4892.497   -3363.3906   -29844.292    15.333884    13.279572    27.857488    5672.5481 
   18000       17.988     317.2132    13.038962    -444.4463   -431.40733   -12020.015   -3228.8807   -603.39339   -32227.772    15.333886    13.279574     27.85747    5672.5463 
   18500       18.488    310.52209    12.763925   -444.15978   -431.39585   -12288.669   -2379.5166   -2678.4698   -31808.021    15.333889    13.279576    27.857453    5672.5445 
   19000       18.988    315.46184    12.966973    -444.3519   -431.38493   -12183.585   -2500.9635   -3694.9283   -30354.864    15.333891    13.279578    27.857435    5672.5427 
   19500       19.488    331.60351    13.630472   -445.00358   -431.37311   -11842.869   -2633.0301   -1369.9032   -31525.673    15.333894     13.27958    27.857418    5672.5409 
   20000       19.988    300.49399    12.351723   -443.71238   -431.36066   -10424.651     -972.913   -1850.3157   -28450.725    15.333896    13.279582      27.8574    5672.5391 
   20500       20.488    314.03156    12.908181   -444.25699   -431.34881   -11527.016   -1006.8623   -4061.5558   -29512.629    15.333898    13.279584    27.857383    5672.5373 
   21000       20.988    319.03247    13.113742   -444.44965   -431.33591    -11782.13   -3623.7568   -1610.5493   -30112.085    15.333901    13.279586    27.857365    5672.5355 
   21500       21.488    315.30517    12.960533   -444.28344   -431.32291   -11230.761   -2286.0315   -2531.4792   -28874.772    15.333903    13.279588    27.857348    5672.5337 
   22000       21.988    300.93151    12.369707   -443.67929   -431.30958   -10902.329   -1420.4369    -342.7326   -30943.819    15.333906     13.27959     27.85733    5672.5319 
   22500       22.488    324.80151    13.350877   -444.64738    -431.2965   -10717.848   -1441.1729   -565.32391   -30147.046    15.333908    13.279592    27.857313    5672.5301 
   23000       22.988    314.78283    12.939062   -444.22199   -431.28292   -11879.291   -3127.1146   -860.52389   -31650.234     15.33391    13.279594    27.857295    5672.5283 
   23500       23.488    302.11215    12.418237   -443.68668   -431.26844   -11821.505   -4801.3718   -1043.2582   -29619.886    15.333913    13.279596    27.857278    5672.5265 
   24000       23.988    308.85399    12.695359   -443.94957   -431.25421   -11873.044   -5720.1275    -1025.128   -28873.876    15.333915    13.279598     27.85726    5672.5247 
   24500       24.488    329.30758    13.536098   -444.77591   -431.23981   -12151.147   -4509.2788   -1147.0424   -30797.119    15.333918      13.2796    27.857243     5672.523 
   25000       24.988     327.3701    13.456458    -444.6812   -431.22475   -12879.509   -2738.6397    -1542.214   -34357.674     15.33392    13.279602    27.857225    5672.5212 
   25500       25.488    326.03717    13.401669    -444.6118   -431.21013   -11526.064   -3368.7642   -1085.2308   -30124.198    15.333922    13.279605    27.857208    5672.5194 
   26000       25.988    332.70643    13.675806   -444.87084   -431.19503   -12650.113   -4556.2392   -1553.3293   -31840.772    15.333925    13.279607     27.85719    5672.5176 
   26500       26.488    297.48245    12.227935   -443.40646   -431.17853    -10945.91   -3744.0767   -2076.0287   -27017.626    15.333927    13.279609    27.857173    5672.5158 
   27000       26.988    319.82616    13.146367   -444.30971   -431.16334   -11081.723   -823.08663   -2161.9539   -30260.128     15.33393    13.279611    27.857155     5672.514 
   27500       27.488    316.96638    13.028816   -444.17656   -431.14775   -11635.919    -2660.064   -1855.6251   -30392.067    15.333932    13.279613    27.857138    5672.5122 
   28000       27.988    305.47264    12.556369   -443.68718   -431.13081   -11459.077   -2061.4157   -661.51432   -31654.301    15.333934    13.279615     27.85712    5672.5104 
   28500       28.488    330.29243     13.57658   -444.69155   -431.11497   -11542.368   -2847.3827    719.02291   -32498.744    15.333937    13.279617    27.857103    5672.5086 
   29000       28.988    319.14291    13.118282   -444.21647   -431.09819   -11986.561   -2556.7091   -645.62849   -32757.346    15.333939    13.279619    27.857085    5672.5068 
   29500       29.488    328.81555    13.515873   -444.59724   -431.08137   -12605.546   -3221.0894   -3904.1694   -30691.379    15.333942    13.279621    27.857068     5672.505 
   30000       29.988    324.93021    13.356167   -444.42025   -431.06408   -11135.006   -4833.1323   -2406.9265    -26164.96    15.333944    13.279623     27.85705    5672.5032 
   30500       30.488    301.65296    12.399362   -443.44593   -431.04657   -11641.422   -1289.5132   -971.99591   -32662.756    15.333946    13.279625    27.857033    5672.5014 
   31000       30.988    316.57305    13.012649   -444.04195    -431.0293   -10698.364   -4614.1945    1402.3245   -28883.223    15.333949    13.279627    27.857015    5672.4996 
   31500       31.488    331.41401    13.622682   -444.63435   -431.01167   -11852.446   -4603.0159    -683.7341   -30270.589    15.333951    13.279629    27.856998    5672.4978 
   32000       31.988    348.15221    14.310701   -445.30501   -430.99431   -13192.974   -5691.8186   -3304.5478   -30582.555    15.333954    13.279631     27.85698     5672.496 
   32500       32.488    321.75724    13.225743   -444.20162   -430.97588   -11804.819   -3007.8677    509.74843   -32916.338    15.333956    13.279633    27.856963    5672.4942 
   33000       32.988    319.91133    13.149868   -444.10761   -430.95774   -11128.769   -2889.6054   -1155.2342   -29341.468    15.333958    13.279635    27.856945    5672.4924 
   33500       33.488    311.10886    12.788044   -443.72813   -430.94008   -11339.848   -3548.4593   -2310.8569   -28160.229    15.333961    13.279637    27.856928    5672.4906 
   34000       33.988    334.98705    13.769551   -444.69103   -430.92148   -11525.637   -5108.8534    -1839.464   -27628.592    15.333963    13.279639     27.85691    5672.4888 
   34500       34.488    333.37626     13.70334   -444.60689   -430.90355   -11724.978   -2209.5723   -2111.8503   -30853.512    15.333966    13.279641    27.856893     5672.487 
   35000       34.988    331.98655    13.646216    -444.5309   -430.88468   -11677.675   -1588.3433   -2430.6832   -31013.998    15.333968    13.279643    27.856875    5672.4852 
   35500       35.488    321.20232    13.202934   -444.06828   -430.86535   -12419.181   -2772.9837   -3423.4553   -31061.103     15.33397    13.279646    27.856858    5672.4834 
   36000       35.988    319.77776    13.144377   -443.99107    -430.8467   -12130.371   -3199.1526   -695.82335   -32496.137    15.333973    13.279648     27.85684    5672.4816 
   36500       36.488    318.15959    13.077863   -443.90615   -430.82829   -11422.021   -3324.9451   -1673.6983    -29267.42    15.333975     13.27965    27.856823    5672.4798 
   37000       36.988      313.872    12.901622   -443.71115   -430.80953   -12483.894   -4951.6994   -1927.3775   -30572.606    15.333978    13.279652    27.856805    5672.4779 
   37500       37.488    333.26707    13.698852   -444.48978   -430.79093   -11165.519   -2961.5942   -614.06474   -29920.898     15.33398    13.279654    27.856788    5672.4761 
   38000       37.988    310.07251    12.745446   -443.51708   -430.77164    -10727.44   -894.99508   -816.39099   -30470.935    15.333982    13.279656     27.85677    5672.4743 
   38500       38.488    311.74385    12.814145   -443.56683   -430.75269   -10887.874   -2375.9902   -2069.4614   -28218.169    15.333985    13.279658    27.856753    5672.4725 
   39000       38.988    318.99711    13.112289   -443.84603   -430.73374   -12070.102   -5470.7765   -1665.5471   -29073.982    15.333987     13.27966    27.856735    5672.4707 
   39500       39.488    310.71857    12.772002   -443.48637   -430.71436   -11135.511   -3607.5841   -809.64001   -28989.309     15.33399    13.279662    27.856718    5672.4689 
   40000       39.988    317.40167    13.046709   -443.74227   -430.69556    -11333.78   -1554.6451   -2726.5816   -29720.113    15.333992    13.279664      27.8567    5672.4671 
   40500       40.488    304.68636    12.524049   -443.20051   -430.67646   -10832.061   -3834.2984   -1884.2466   -26777.639    15.333994    13.279666    27.856683    5672.4653 
   41000       40.988    316.50599    13.009892   -443.66713   -430.65724   -10786.691   -3565.7363    203.79999   -28998.136    15.333997    13.279668    27.856665    5672.4635 
   41500       41.488    306.84326    12.612708   -443.25068   -430.63797   -10656.452   -1475.8116   -387.07574    -30106.47    15.333999     13.27967    27.856648    5672.4617 
   42000       41.988     335.7087    13.799214    -444.4187   -430.61948   -12577.291   -3860.5953   -1605.8074   -32265.472    15.334002    13.279672     27.85663    5672.4599 
   42500       42.488    324.98221    13.358305    -443.9588   -430.60049   -12380.678    -5574.062   -2926.9063   -28641.065    15.334004    13.279674    27.856613    5672.4581 
   43000       42.988    314.46935    12.926177   -443.50748    -430.5813   -10737.079   -1337.9713    -530.2015   -30343.064    15.334006    13.279676    27.856595    5672.4563 
   43500       43.488    324.86484     13.35348   -443.91585   -430.56237   -10949.732   -2028.3566    8.9015215    -30829.74    15.334009    13.279678    27.856578    5672.4545 
   44000       43.988     320.8449    13.188242   -443.73185    -430.5436   -10662.351   -3745.2103    96.796197   -28338.638    15.334011     13.27968     27.85656    5672.4527 
   44500       44.488    319.34201    13.126466   -443.65136   -430.52489   -10539.923    -1829.325   -1194.6522   -28595.791    15.334014    13.279682    27.856543    5672.4509 
   45000       44.988     322.7376    13.266041   -443.77216   -430.50612   -11619.522   -4312.7293   -2815.5791   -27730.259    15.334016    13.279684    27.856525    5672.4491 
   45500       45.488     320.4193    13.170748   -443.65792   -430.48717   -10761.031   -1158.0395   -3594.7508   -27530.304    15.334018    13.279687    27.856508    5672.4473 
   46000       45.988    329.40313    13.540025   -444.00871   -430.46868   -10944.919   -4935.0571    2334.3069   -30234.008    15.334021    13.279689     27.85649    5672.4455 
   46500       46.488    315.80205    12.980957   -443.43117   -430.45021   -11729.039   -2565.6065   -594.07502   -32027.437    15.334023    13.279691    27.856473    5672.4437 
   47000       46.988    323.41848    13.294028   -443.72594   -430.43191   -10383.897   -3544.1344   -1081.7923   -26525.763    15.334026    13.279693    27.856455    5672.4419 
   47500       47.488    321.10375    13.198882   -443.61213   -430.41325    -11342.95   -3562.7337   -1619.0086   -28847.108    15.334028    13.279695    27.856438    5672.4401 
   48000       47.988    350.02274    14.387589   -444.78324   -430.39565   -12095.119   -2995.9866   -467.06318   -32822.306     15.33403    13.279697     27.85642    5672.4383 
   48500       48.488     319.3446    13.126572   -443.50384   -430.37726   -10139.548   -4455.4787    784.93225   -26748.096    15.334033    13.279699    27.856403    5672.4365 
   49000       48.988    342.16215    14.064481   -444.42372   -430.35924   -10822.659    -4199.326    226.03832   -28494.691    15.334035    13.279701    27.856385    5672.4347 
   49500       49.488    324.21448    13.326748   -443.66824   -430.34149   -12709.252   -4494.1008   -3426.4674   -30207.188    15.334038    13.279703    27.856368    5672.4329 
   50000       49.988    349.99908    14.386616   -444.70989   -430.32327   -11552.449   -2563.2623   -1523.2727   -30570.811     15.33404    13.279705     27.85635    5672.4311 
   50500       50.488    318.92892    13.109486   -443.41461   -430.30513   -11061.185   -4017.0927   -1665.9979   -27500.465    15.334042    13.279707    27.856333    5672.4293 
   51000       50.988    321.28256    13.206232   -443.49399   -430.28775   -11512.137   -2280.4338    -1589.553   -30666.424    15.334045    13.279709    27.856315    5672.4275 
   51500       51.488    330.66662    13.591961   -443.86236    -430.2704   -11031.651   -1411.0419   -1834.7648   -29849.147    15.334047    13.279711    27.856298    5672.4257 
   52000       51.988    329.29702    13.535664   -443.78877   -430.25311   -11681.631   -4353.8063   -3649.7323   -27041.355     15.33405    13.279713     27.85628    5672.4239 
   52500       52.488    333.89664     13.72473    -443.9599   -430.23517   -10190.064    179.62353   -564.69818   -30185.118    15.334052    13.279715    27.856263    5672.4221 
   53000       52.988    322.01836    13.236477   -443.45435   -430.21787   -11762.364   -2896.2085   -2169.7108   -30221.173    15.334054    13.279717    27.856245    5672.4203 
   53500       53.488     339.1584    13.941013   -444.14231   -430.20129   -10803.953   -1660.6735    -2204.788   -28546.399    15.334057    13.279719    27.856228    5672.4185 
   54000       53.988    340.79443    14.008262   -444.19182   -430.18356   -11176.183   -3331.2751   -1244.0861   -28953.188    15.334059    13.279721     27.85621    5672.4167 
   54500       54.488    359.54759    14.779105   -444.94614   -430.16703   -11423.101   -5430.8478   -226.04573   -28612.409    15.334062    13.279723    27.856193    5672.4149 
   55000       54.988    330.22336    13.573741   -443.72353   -430.14979   -11581.503   -3055.6577   -3073.7086   -28615.141    15.334064    13.279725    27.856175    5672.4131 
   55500       55.488    337.46583     13.87144   -444.00467   -430.13322   -10601.732   -4248.7684   -1180.0771   -26376.351    15.334066    13.279728    27.856158    5672.4113 
   56000       55.988     293.5768    12.067394   -442.18313   -430.11573   -9750.8821   -983.94529    -337.7523   -27930.949    15.334069     13.27973     27.85614    5672.4095 
   56500       56.488    332.31755    13.659822   -443.75987   -430.10004    -11326.99   -2638.6523    623.83593   -31966.154    15.334071    13.279732    27.856123    5672.4077 
   57000       56.988    337.72573    13.882124   -443.96575   -430.08363   -11200.571   -2385.6691   -872.11457   -30343.929    15.334074    13.279734    27.856105    5672.4059 
   57500       57.488     329.7803    13.555529   -443.62233    -430.0668   -11263.293   -4569.2868   -1675.5654   -27545.027    15.334076    13.279736    27.856088    5672.4041 
   58000       57.988     326.5613    13.423213   -443.47378   -430.05057    -11202.92   -5212.8278   -229.11752   -28166.815    15.334078    13.279738     27.85607    5672.4023 
   58500       58.488    344.60001    14.164689   -444.19913   -430.03444   -11153.726   -2123.7562     1130.878   -32468.299    15.334081     13.27974    27.856053    5672.4005 
   59000       58.988    341.55514    14.039531   -444.05763    -430.0181   -11073.303   -4105.9535   -1044.0271   -28069.927    15.334083    13.279742    27.856035    5672.3987 
   59500       59.488    315.41504    12.965049   -442.96635    -430.0013   -11323.331   -972.23103   -1753.1526    -31244.61    15.334086    13.279744    27.856018    5672.3969 
   60000       59.988    343.83381    14.133195   -444.11908   -429.98589   -10135.781   -2133.0428    105.63949   -28379.939    15.334088    13.279746       27.856    5672.3951 
   60500       60.488    344.02926    14.141228    -444.1107   -429.96947   -10250.071   -1205.8653   -331.07484   -29213.272     15.33409    13.279748    27.855983    5672.3933 
   61000       60.988     338.8603     13.92876   -443.88222   -429.95346   -10878.125   -2066.8349    -530.8094   -30036.731    15.334093     13.27975    27.855965    5672.3915 
   61500       61.488    342.13968    14.063558   -444.00112   -429.93756   -10844.097   -2570.9702   -2259.6374   -27701.683    15.334095    13.279752    27.855948    5672.3897 
   62000       61.988    319.68967    13.140756   -443.06178   -429.92102   -10143.494   -1464.8787   -2294.8481   -26670.755    15.334098    13.279754     27.85593    5672.3879 
   62500       62.488    337.23785     13.86207    -443.7674   -429.90533   -12134.644   -3068.3429   -1094.0694   -32241.518      15.3341    13.279756    27.855913    5672.3861 
   63000       62.988    331.34372    13.619793   -443.50939    -429.8896   -10708.902   -2764.9356   -2041.3437   -27320.426    15.334102    13.279758    27.855895    5672.3843 
   63500       63.488    321.25971    13.205293   -443.07884   -429.87354   -11071.426   -749.52958   -1032.5395    -31432.21    15.334105     13.27976    27.855878    5672.3825 
   64000       63.988    344.78861    14.172441   -444.03066   -429.85822   -12194.039   -2302.0224   -2145.2226   -32134.873    15.334107    13.279762     27.85586    5672.3807 
   64500       64.488    333.88113    13.724092   -443.56631   -429.84222   -10036.182   -3034.9411   -1032.5177   -26041.086     15.33411    13.279764    27.855843    5672.3789 
   65000       64.988    323.33744    13.290697    -443.1169    -429.8262   -10422.461   -2663.6116   -42.887634   -28560.885    15.334112    13.279766    27.855825    5672.3771 
   65500       65.488    344.95781    14.179396   -443.98998   -429.81058   -10917.455   -1040.7905   -545.89599   -31165.679    15.334114    13.279769    27.855808    5672.3753 
   66000       65.988    350.60547    14.411542   -444.20652   -429.79498   -10202.556   -1898.0653   -2844.1365   -25865.466    15.334117    13.279771     27.85579    5672.3735 
   66500       66.488    350.82379    14.420516   -444.19994   -429.77942   -12118.779   -4492.9252     1457.861   -33321.273    15.334119    13.279773    27.855773    5672.3717 
   67000       66.988    336.92096    13.849044   -443.61259   -429.76355   -11574.552   -3233.2654    401.13269   -31891.524    15.334122    13.279775    27.855755    5672.3699 
   67500       67.488    329.67575    13.551231   -443.29862   -429.74739   -11067.308    -3926.718   -263.91215   -29011.295    15.334124    13.279777    27.855738    5672.3681 
   68000       67.988    352.03747    14.470404   -444.20248   -429.73207   -11610.911   -2671.5754   -2433.4352   -29727.721    15.334126    13.279779     27.85572    5672.3663 
   68500       68.488    345.52952    14.202896   -443.91921   -429.71632   -10959.759   -2976.2313   -1324.4043   -28578.642    15.334129    13.279781    27.855703    5672.3645 
   69000       68.988    338.49862    13.913893   -443.61448   -429.70059   -10779.493   -1634.3669   -1782.2257   -28921.887    15.334131    13.279783    27.855685    5672.3627 
   69500       69.488    346.32116    14.235436   -443.92026   -429.68482   -11013.259   -1347.7211   -103.15342   -31588.902    15.334134    13.279785    27.855668    5672.3609 
   70000       69.988    316.11653    12.993884   -442.66241   -429.66853   -10411.935   -3433.9401    1365.1109   -29166.977    15.334136    13.279787     27.85565    5672.3591 
   70500       70.488    336.41951    13.828432   -443.48173   -429.65329   -11871.835    -3378.748   -2049.0711   -30187.686    15.334138    13.279789    27.855633    5672.3573 
   71000       70.988    341.80065    14.049622   -443.68701   -429.63739   -11427.321   -3677.9587     -2992.38   -27611.624    15.334141    13.279791    27.855615    5672.3555 
   71500       71.488     331.0075    13.605973   -443.22768   -429.62171   -10687.432   -3414.0627   -1477.1879   -27171.045    15.334143    13.279793    27.855598    5672.3537 
   72000       71.988    328.43127    13.500077   -443.10604   -429.60596   -10468.929   -2068.5343   -194.56524   -29143.687    15.334146    13.279795     27.85558    5672.3519 
   72500       72.488    328.43859    13.500378   -443.09039   -429.59001   -10495.344    -1108.377   -577.15197   -29800.502    15.334148    13.279797    27.855563    5672.3501 
   73000       72.988     343.4392    14.116974   -443.69159   -429.57462   -10706.407   -3285.4819    1293.1122   -30126.851     15.33415    13.279799    27.855545    5672.3483 
   73500       73.488    340.43767    13.993597    -443.5517   -429.55811   -11236.827   -4831.7473   -445.17272    -28433.56    15.334153    13.279801    27.855528    5672.3465 
   74000       73.988    351.75703    14.458876   -444.00112   -429.54225   -11580.808    -5092.428   -275.71681   -29374.279    15.334155    13.279803     27.85551    5672.3447 
   74500       74.488    331.07824    13.608881   -443.13451   -429.52563   -9508.0256   -131.68616   -517.72741   -27874.663    15.334158    13.279805    27.855493    5672.3429 
   75000       74.988    326.93229    13.438462   -442.94822   -429.50976   -11166.994   -2979.0783   -1438.7107   -29083.192     15.33416    13.279807    27.855475    5672.3411 
   75500       75.488    332.13382     13.65227   -443.14574   -429.49347   -10492.685   -2219.7667   -1985.4089   -27272.879    15.334162     13.27981    27.855458    5672.3393 
   76000       75.988    351.41933    14.444995    -443.9224   -429.47741   -10953.625   -1662.4728   -1602.7698   -29595.632    15.334165    13.279812     27.85544    5672.3375 
   76500       76.488    351.69998    14.456532   -443.91773    -429.4612   -11384.007   -2505.6425   -523.20654   -31123.172    15.334167    13.279814    27.855423    5672.3357 
   77000       76.988    347.19223    14.271242   -443.71613   -429.44488   -10373.058   -3002.0049   -29.015558   -28088.152     15.33417    13.279816    27.855405    5672.3339 
   77500       77.488    332.80973    13.680053   -443.10799   -429.42793   -11643.407    -1610.175   -117.09377   -33202.954    15.334172    13.279818    27.855388    5672.3321 
   78000       77.988    339.27688    13.945883   -443.35752   -429.41164   -11034.905   -3577.7871   -980.45164   -28546.477    15.334174     13.27982     27.85537    5672.3303 
   78500       78.488    341.56468    14.039923   -443.43534   -429.39542   -11149.176   -1338.2876   -3412.5408   -28696.698    15.334177    13.279822    27.855353    5672.3285 
   79000       78.988    337.46514    13.871412   -443.25037   -429.37896   -10932.651   -3283.4061    372.69014   -29887.236    15.334179    13.279824    27.855335    5672.3267 
   79500       79.488    350.28294    14.398284   -443.76057   -429.36229   -10084.404   -512.07602   -1590.3003   -28150.835    15.334182    13.279826    27.855318    5672.3249 
   80000       79.988    341.43504    14.034594    -443.3806     -429.346   -10270.554   -3819.5233     101.5414    -27093.68    15.334184    13.279828      27.8553    5672.3231 
   80500       80.488    349.64883    14.372219   -443.70142    -429.3292   -10491.149   -850.92471   -2307.7639   -28314.758    15.334186     13.27983    27.855283    5672.3213 
   81000       80.988    332.47348    13.666232   -442.97848   -429.31225   -10256.475   -1607.8928     1346.718   -30508.249    15.334189    13.279832    27.855265    5672.3195 
   81500       81.488    342.01762    14.058541   -443.35377   -429.29522   -10830.184   -3977.4012    722.76317   -29235.914    15.334191    13.279834    27.855248    5672.3177 
   82000       81.988    333.91261    13.725386    -443.0037   -429.27831   -11870.127   -3002.9356   -910.41953   -31697.026    15.334194    13.279836     27.85523    5672.3159 
   82500       82.488     324.3327    13.331607    -442.5927   -429.26109   -10349.531   -495.09482   -979.18562   -29574.312    15.334196    13.279838    27.855213    5672.3141 
   83000       82.988    327.62711    13.467022    -442.7113   -429.24428   -10681.301   -2432.5186    233.54834   -29844.933    15.334198     13.27984    27.855195    5672.3123 
   83500       83.488    343.36679    14.113998     -443.341     -429.227   -11416.157   -3048.5051   -335.85237   -30864.114    15.334201    13.279842    27.855178    5672.3105 
   84000       83.988    377.34751    15.510766   -444.72106   -429.21029   -10687.547   -3820.1007    1002.0997   -29244.641    15.334203    13.279844     27.85516    5672.3087 
   84500       84.488    317.73736    13.060507   -442.25279   -429.19228    -9437.695    -2225.892    2019.5616   -28106.755    15.334206    13.279846    27.855143    5672.3069 
   85000       84.988    333.86673    13.723501   -442.89827   -429.17477   -9429.2099   -1866.6768    417.87659   -26838.829    15.334208    13.279848    27.855125    5672.3051 
   85500       85.488    364.67573    14.989896   -444.14803   -429.15813   -11563.056   -1266.2669   -2566.4803   -30856.421     15.33421    13.279851    27.855108    5672.3033 
   86000       85.988    352.57759    14.492605   -443.63251    -429.1399   -11092.589   -1953.1563    1958.6127   -33283.225    15.334213    13.279853     27.85509    5672.3015 
   86500       86.488    338.84171    13.927996   -443.05015   -429.12215   -10602.045   -3422.6685    235.53006   -28618.996    15.334215    13.279855    27.855073    5672.2997 
   87000       86.988    355.45306    14.610801   -443.71557   -429.10477   -11045.472   -2562.1788   -4060.5801   -26513.657    15.334218    13.279857    27.855055    5672.2979 
   87500       87.488    346.56805    14.245585   -443.33227   -429.08669   -9852.2326   -1222.6742    -3652.975   -24681.049     15.33422    13.279859    27.855038    5672.2961 
   88000       87.988    354.53202    14.572942   -443.64147   -429.06853   -10616.709   -2811.7434   -28.996597   -29009.388    15.334222    13.279861     27.85502    5672.2943 
   88500       88.488     355.8445    14.626891   -443.67771   -429.05082   -11497.557    -2009.209    -1587.769   -30895.694    15.334225    13.279863    27.855003    5672.2925 
   89000       88.988    376.06323    15.457976   -444.49062   -429.03265   -11356.072   -2130.0238   -1451.7846   -30486.408    15.334227    13.279865    27.854985    5672.2907 
   89500       89.488    346.08567    14.225757    -443.2398   -429.01404   -10182.789   -640.61802     -404.469    -29503.28     15.33423    13.279867    27.854968    5672.2889 
   90000       89.988    345.62249    14.206718    -443.2025   -428.99578   -9577.2905   -1762.6469   -946.80439    -26022.42    15.334232    13.279869     27.85495    5672.2871 
   90500       90.488     344.6689    14.167521    -443.1448   -428.97728   -9714.0546   -1810.2349    94.117787   -27426.047    15.334234    13.279871    27.854933    5672.2853 
   91000       90.988    330.79453    13.597219   -442.55599   -428.95877   -11353.892   -2744.4534   -3018.6968   -28298.526    15.334237    13.279873    27.854915    5672.2835 
   91500       91.488    349.15733    14.352016   -443.29218   -428.94016   -10196.856   -1299.0331   -545.37838   -28746.158    15.334239    13.279875    27.854898    5672.2817 
   92000       91.988     348.5522    14.327143   -443.24873   -428.92159    -10774.16   -6027.4546   -1483.4546   -24811.571    15.334242    13.279877     27.85488    5672.2799 
   92500       92.488    349.98883    14.386195   -443.28916   -428.90297   -11252.026   -5357.6525   -646.92056   -27751.504    15.334244    13.279879    27.854863    5672.2781 
   93000       92.988    351.71282    14.457059   -443.34118   -428.88413   -10942.484   -1999.0464   -475.11979   -30353.285    15.334246    13.279881    27.854845    5672.2763 
   93500       93.488    347.03859    14.264926   -443.12954   -428.86462   -10034.177   -3290.1064   -768.58681   -26043.839    15.334249    13.279883    27.854828    5672.2745 
   94000       93.988    349.00353    14.345695   -443.19121   -428.84551    -11403.44   -5649.9811   -384.26571   -28176.075    15.334251    13.279885     27.85481    5672.2727 
   94500       94.488    329.49775    13.543915   -442.37017   -428.82625   -10515.023   -2085.0191    1125.6435   -30585.692    15.334254    13.279887    27.854793    5672.2709 
   95000       94.988    364.11708    14.966933   -443.77416   -428.80723   -11290.598   -4816.9977    917.68709   -29972.485    15.334256    13.279889    27.854775    5672.2691 
   95500       95.488     362.0378    14.881465   -443.66944   -428.78798   -8974.5961   -1769.5276    877.30786   -26031.568    15.334258    13.279892    27.854758    5672.2673 
   96000       95.988    342.90822    14.095149   -442.86348   -428.76833   -10901.245   -1078.1223   -1054.1709   -30571.442    15.334261    13.279894     27.85474    5672.2655 
   96500       96.488    353.70552    14.538968   -443.28817    -428.7492   -10568.981   -1344.8821    2158.0118   -32520.074    15.334263    13.279896    27.854723    5672.2637 
   97000       96.988    348.44182    14.322606   -443.05161     -428.729   -9820.9316   -1382.7028    108.26741   -28188.359    15.334266    13.279898    27.854705    5672.2619 
   97500       97.488    349.92579    14.383604   -443.09305   -428.70945   -10937.837   -3700.8814   -326.78531   -28785.845    15.334268      13.2799    27.854688    5672.2601 
   98000       97.988    344.14329    14.145916   -442.83552    -428.6896   -10497.057   -3771.6345   -242.84719    -27476.69     15.33427    13.279902     27.85467    5672.2583 
   98500       98.488    366.47728    15.063948   -443.73423   -428.67028   -11126.551   -3736.5627    69.101014   -29712.192    15.334273    13.279904    27.854653    5672.2565 
   99000       98.988    337.03981    13.853929    -442.5037   -428.64977   -10395.836   -3285.9799   -1038.8686   -26862.659    15.334275    13.279906    27.854635    5672.2547 
   99500       99.488     346.3448    14.236408   -442.86559   -428.62918   -9278.0322    259.37811   -1231.5544    -26861.92    15.334278    13.279908    27.854618    5672.2529 
  100000       99.988    359.90741    14.793895   -443.40371   -428.60982   -11942.016   -2576.5069   -1058.3464   -32191.195     15.33428     13.27991      27.8546    5672.2511 
  100500      100.488    330.78866    13.596977   -442.18621   -428.58924   -8584.4013   -299.20836    437.71658   -25891.712    15.334282    13.279912    27.854583    5672.2493 
  101000      100.988    356.79977    14.666157   -443.23502   -428.56887   -10896.545   -3743.5994   -616.14836   -28329.887    15.334285    13.279914    27.854565    5672.2475 
  101500      101.488    353.48863    14.530053   -443.07855   -428.54849   -9970.6448   -410.29054   -1717.4261   -27784.218    15.334287    13.279916    27.854548    5672.2457 
  102000      101.988    340.22488     13.98485    -442.5134   -428.52855    -10811.94   -3934.2333    3049.4051    -31550.99     15.33429    13.279918     27.85453    5672.2439 
  102500      102.488    347.89409    14.300091   -442.80836   -428.50827   -10475.498    201.88951   -1764.3271   -29864.056    15.334292     13.27992    27.854513    5672.2421 
  103000      102.988    347.63177    14.289309   -442.77728   -428.48797   -10169.183   -2407.9952   -199.58988   -27899.963    15.334294    13.279922    27.854495    5672.2403 
  103500      103.488    374.00435    15.373346   -443.84122   -428.46788   -10827.272   -2598.7598    151.64074   -30034.698    15.334297    13.279924    27.854478    5672.2385 
  104000      103.988    361.84005    14.873336   -443.31991   -428.44657   -11900.015   -2096.1374    139.30714   -33743.215    15.334299    13.279926     27.85446    5672.2367 
  104500      104.488    358.27883    14.726953   -443.15349   -428.42654   -9940.2826   -2218.6692   -1390.6762   -26211.502    15.334302    13.279928    27.854443    5672.2349 
  105000      104.988    363.12513    14.926159   -443.33173   -428.40557   -8808.0272   -1435.9324    159.94936   -25148.098    15.334304     13.27993    27.854425    5672.2331 
  105500      105.488    347.23303    14.272919    -442.6574   -428.38448   -10594.319   -2628.3012    2740.3705   -31895.027    15.334306    13.279933    27.854408    5672.2313 
  106000      105.988    347.15609    14.269756    -442.6335   -428.36375   -10253.543   -1088.2909    621.18725   -30293.527    15.334309    13.279935     27.85439    5672.2295 
  106500      106.488    347.76162    14.294646   -442.63743   -428.34278   -9256.0804   -1938.0375    1273.3311   -27103.535    15.334311    13.279937    27.854373    5672.2277 
  107000      106.988    351.44125    14.445896   -442.76757   -428.32168   -11531.659   -2718.0343   -720.92658   -31156.017    15.334314    13.279939    27.854355    5672.2259 
  107500      107.488    365.77357    15.035022   -443.33509   -428.30007   -10232.516   -1034.9547   -771.42092   -28891.172    15.334316    13.279941    27.854338    5672.2241 
  108000      107.988    347.52333    14.284851   -442.56376   -428.27891   -9610.9652   -737.09193    659.20868   -28755.012    15.334318    13.279943     27.85432    5672.2223 
  108500      108.488    364.06637    14.964848   -443.22264   -428.25779   -10644.465   -3682.1348   -2362.3292    -25888.93    15.334321    13.279945    27.854303    5672.2205 
  109000      108.988    370.39558    15.225009   -443.46101     -428.236   -11083.777   -2351.0837   -1532.9662    -29367.28    15.334323    13.279947    27.854285    5672.2187 
  109500      109.488    357.03868    14.675977   -442.89007   -428.21409   -8731.2725     897.5409    2147.4777   -29238.836    15.334326    13.279949    27.854268    5672.2169 
  110000      109.988    337.98932    13.892959   -442.08544   -428.19248   -10712.164   -1620.5062    202.37798   -30718.364    15.334328    13.279951     27.85425    5672.2151 
  110500      110.488    360.85196    14.832721   -443.00391   -428.17119    -10854.92   -3125.4534    192.82115   -29632.128     15.33433    13.279953    27.854233    5672.2133 
  111000      110.988    357.22855    14.683782   -442.83353   -428.14975   -10234.372   -2002.5924    1592.5991   -30293.124    15.334333    13.279955    27.854215    5672.2115 
  111500      111.488    353.39713    14.526292   -442.65396   -428.12767   -10559.437   -2338.2187   -2528.4329   -26811.661    15.334335    13.279957    27.854198    5672.2097 
  112000      111.988     360.1452     14.80367   -442.91002   -428.10635   -8956.1914   -14.061979   -2331.4129   -24523.099    15.334338    13.279959     27.85418    5672.2079 
  112500      112.488    357.92319    14.712335   -442.79694    -428.0846   -9605.4042   -1792.7478    1211.1844   -28234.649     15.33434    13.279961    27.854163    5672.2061 
  113000      112.988    359.52671    14.778247   -442.84088   -428.06264   -10567.696   -3058.2828   -215.39472   -28429.411    15.334342    13.279963    27.854145    5672.2043 
  113500      113.488    364.68114    14.990118   -443.03104   -428.04092   -10112.513   -1969.4332   -672.43225   -27695.673    15.334345    13.279965    27.854128    5672.2025 
  114000      113.988    352.46943    14.488159   -442.50689   -428.01874    -10547.98     -2964.11   -1759.5572   -26920.272    15.334347    13.279967     27.85411    5672.2007 
  114500      114.488    352.40166    14.485374   -442.48251   -427.99714   -10048.386   -3277.5072   -1150.9604   -25716.689     15.33435    13.279969    27.854093    5672.1989 
  115000      114.988    362.42765    14.897489   -442.87282   -427.97533    -9597.641   -2864.8879    1143.4458   -27071.481    15.334352    13.279971    27.854075    5672.1971 
  115500      115.488    341.39704    14.033032   -441.98585   -427.95282   -9583.5562   -933.46223    829.52809   -28646.734    15.334354    13.279974    27.854058    5672.1953 
  116000      115.988    360.33139    14.811323   -442.74221   -427.93089   -9709.6177   -1369.3327   -399.05841   -27360.462    15.334357    13.279976     27.85404    5672.1935 
  116500      116.488    343.92499    14.136942   -442.04531   -427.90837   -10076.291    16.056266   -2082.7798    -28162.15    15.334359    13.279978    27.854023    5672.1917 
  117000      116.988    355.83981    14.626698   -442.51324   -427.88654   -9368.8585   -2588.0519   -2688.2308   -22830.293    15.334362     13.27998    27.854005    5672.1899 
  117500      117.488    365.45155    15.021786   -442.88572   -427.86394   -9775.1578    204.04315   -1808.6217   -27720.895    15.334364    13.279982    27.853988    5672.1881 
  118000      117.988    359.66657    14.783996   -442.62605   -427.84205   -9734.1036   -806.33701   -413.52742   -27982.446    15.334366    13.279984     27.85397    5672.1863 
  118500      118.488    341.22485    14.025954   -441.84543   -427.81948   -9236.7989   -2430.4852    106.73707   -25386.648    15.334369    13.279986    27.853953    5672.1845 
  119000      118.988    368.31339    15.139421   -442.93664   -427.79722   -11107.234   -3793.8054   -1959.6907   -27568.205    15.334371    13.279988    27.853935    5672.1827 
  119500      119.488    332.61777    13.672162   -441.44627   -427.77411   -9293.9516   -489.03343    1595.9137   -28988.735    15.334374     13.27999    27.853918    5672.1809 
  120000      119.988    369.74115    15.198109   -442.94959   -427.75148   -11029.538   -821.84404   -1382.7766   -30883.993    15.334376    13.279992      27.8539    5672.1791 
  120500      120.488    363.46985    14.940329   -442.66995   -427.72962   -10018.888   -1393.8875   -2400.7703   -26262.005    15.334378    13.279994    27.853883    5672.1773 
  121000      120.988    366.37243    15.059638   -442.76658   -427.70694    -9866.294   -1727.4323   -4170.3446   -23701.105    15.334381    13.279996    27.853865    5672.1755 
  121500      121.488    377.08496    15.499974   -443.18417   -427.68419   -10216.658   -879.88223   -741.36266   -29028.728    15.334383    13.279998    27.853848    5672.1737 
  122000      121.988    365.94569    15.042097   -442.70378   -427.66168   -9897.6634   -3463.3871   -1820.9635    -24408.64    15.334386        13.28     27.85383    5672.1719 
  122500      122.488    373.95687    15.371395   -443.01053   -427.63913   -11333.851    -1913.961    1870.5993   -33958.192    15.334388    13.280002    27.853813    5672.1701 
  123000      122.988    395.97089    16.276275   -443.89265   -427.61638   -11055.176    444.61149   -1278.1196   -32332.018     15.33439    13.280004    27.853795    5672.1683 
  123500      123.488    339.21053    13.943156   -441.53555   -427.59239   -8151.0442   -2311.2146    2507.0542   -24648.972    15.334393    13.280006    27.853778    5672.1665 
  124000      123.988    361.19326     14.84675   -442.41647   -427.56972   -9559.4464   -1549.2912    91.487475   -27220.535    15.334395    13.280008     27.85376    5672.1647 
  124500      124.488    366.12397    15.049425   -442.59635   -427.54693   -9914.1237   -461.37421    -619.8736   -28661.123    15.334398     13.28001    27.853743    5672.1629 
  125000      124.988    365.06896     15.00606    -442.5301   -427.52404   -10859.639   -1016.4223    346.92484   -31909.419      15.3344    13.280012    27.853725    5672.1611 
  125500      125.488    354.67905    14.578985   -442.07994   -427.50096   -9351.0504    1468.1574    1467.0437   -30988.352    15.334402    13.280015    27.853708    5672.1593 
  126000      125.988    358.77769    14.747459   -442.22521   -427.47775   -9180.3289   -250.51331   -3086.8309   -24203.642    15.334405    13.280017     27.85369    5672.1575 
  126500      126.488    385.48825    15.845389    -443.3004   -427.45501   -10655.295   -2269.9462   -136.91421   -29559.024    15.334407    13.280019    27.853673    5672.1557 
  127000      126.988    392.24962    16.123313   -443.55549   -427.43218   -9589.6342   -2411.9188    993.69067   -27350.674     15.33441    13.280021    27.853655    5672.1539 
  127500      127.488    366.72477    15.074121   -442.48311   -427.40898   -10369.043   -3026.9869    399.89892   -28480.041    15.334412    13.280023    27.853638    5672.1521 
  128000      127.988    385.21894    15.834319   -443.22074   -427.38642   -10076.844    143.83074   -1413.8873   -28960.475    15.334414    13.280025     27.85362    5672.1503 
  128500      128.488    370.64397    15.235219   -442.59764   -427.36242   -11078.931   -4313.6963   -314.07487   -28609.022    15.334417    13.280027    27.853603    5672.1485 
  129000      128.988    361.11589     14.84357   -442.18255   -427.33898   -10688.154    -1300.554    568.59522   -31332.502    15.334419    13.280029    27.853585    5672.1467 
  129500      129.488    366.45426    15.063002   -442.37934   -427.31633   -8525.2308   -3056.0211    1142.6634   -23662.335    15.334422    13.280031    27.853568    5672.1449 
  130000      129.988    376.58526    15.479434   -442.77221   -427.29278   -11233.022   -2281.3236    486.51171   -31904.253    15.334424    13.280033     27.85355    5672.1431 
  130500      130.488    372.40322    15.307532   -442.57722   -427.26968   -11106.786   -3802.4685    1027.7011   -30545.591    15.334426    13.280035    27.853533    5672.1413 
  131000      130.988    372.73179    15.321038   -442.56744   -427.24641   -10190.051   -2126.5166    730.95473   -29174.591    15.334429    13.280037    27.853515    5672.1395 
  131500      131.488    364.01411      14.9627   -442.18523   -427.22253   -10709.585   -3424.8149    1241.1741   -29945.114    15.334431    13.280039    27.853498    5672.1377 
  132000      131.988    361.07426    14.841859   -442.04095    -427.1991   -8875.7546    2316.3799    1821.6006   -30765.244    15.334434    13.280041     27.85348    5672.1359 
  132500      132.488    375.49404    15.434579   -442.61039   -427.17581   -10528.073   -1093.5523    -2888.761   -27601.905    15.334436    13.280043    27.853463    5672.1341 
  133000      132.988    368.70122    15.155363    -442.3079   -427.15254    -10019.17    267.72882   -302.02328   -30023.215    15.334438    13.280045    27.853445    5672.1323 
  133500      133.488    356.94248    14.672023   -441.80137   -427.12935   -10559.614   -1108.9635   -1211.8437   -29358.036    15.334441    13.280047    27.853428    5672.1305 
  134000      133.988     369.6744    15.195365   -442.30109   -427.10573   -9186.7921   -338.62743    1550.9825   -28772.731    15.334443    13.280049     27.85341    5672.1287 
  134500      134.488    388.30772    15.961282   -443.04349   -427.08221   -9777.4615   -3032.9501    744.80533    -27044.24    15.334446    13.280051    27.853393    5672.1269 
  135000      134.988    355.61682    14.617532   -441.67589   -427.05836   -9052.0124   -425.71266   -579.00977   -26151.315    15.334448    13.280053    27.853375    5672.1251 
  135500      135.488    365.30171    15.015627   -442.05015   -427.03452   -10185.751   -2546.1239   -573.94594   -27437.182     15.33445    13.280056    27.853358    5672.1233 
  136000      135.988    392.53706    16.135128   -443.14688   -427.01176   -9698.1717    -2346.174   -1983.9509    -24764.39    15.334453    13.280058     27.85334    5672.1215 
  136500      136.488    374.88757    15.409651   -442.39747   -426.98782   -9713.5615   -1291.3989    1841.2863   -29690.572    15.334455     13.28006    27.853323    5672.1197 
  137000      136.988    382.70595    15.731023    -442.6953   -426.96428   -9449.4783   -2119.2975    419.42075   -26648.558    15.334458    13.280062    27.853305    5672.1179 
  137500      137.488    377.12381    15.501571   -442.44246   -426.94089   -11217.023   -5216.4271    1671.9018   -30106.544     15.33446    13.280064    27.853288    5672.1161 
  138000      137.988    382.93124    15.740284   -442.65703   -426.91675   -10506.626   -2398.0911    899.91778   -30021.704    15.334462    13.280066     27.85327    5672.1143 
  138500      138.488    353.74632    14.540646   -441.43327   -426.89262   -9644.6678    743.84989   -889.29072   -28788.563    15.334465    13.280068    27.853253    5672.1125 
  139000      138.988    367.78561    15.117727   -441.98738   -426.86965       -10224      -2436.6    79.662651   -28315.064    15.334467     13.28007    27.853235    5672.1107 
  139500      139.488    374.38139    15.388844   -442.23454    -426.8457   -10492.756   -1308.0077   -175.92452   -29994.335     15.33447    13.280072    27.853218    5672.1089 
  140000      139.988    372.35276    15.305458   -442.12739   -426.82193   -9521.7205    27.848012   -817.91935    -27775.09    15.334472    13.280074      27.8532    5672.1071 
  140500      140.488    371.99471    15.290741   -442.08947   -426.79873    -9386.325   -1396.6212   -304.85197   -26457.502    15.334474    13.280076    27.853183    5672.1053 
  141000      140.988    367.64427    15.111917   -441.88573   -426.77381   -10499.107   -1832.9998    1079.0768   -30743.397    15.334477    13.280078    27.853165    5672.1035 
  141500      141.488    379.09926    15.582771   -442.33312   -426.75035   -9782.9356    822.10776   -951.18132   -29219.733    15.334479     13.28008    27.853148    5672.1017 
  142000      141.988    366.85133    15.079323   -441.80552    -426.7262   -9177.2171   -472.67604     1614.049   -28673.024    15.334482    13.280082     27.85313    5672.0999 
  142500      142.488    389.36613    16.004788   -442.70705   -426.70227   -10047.939   -2841.3943     1443.528   -28745.951    15.334484    13.280084    27.853113    5672.0981 
  143000      142.988    370.48042    15.228496   -441.90693   -426.67843   -9678.8764   -1283.1246     1917.098   -29670.603    15.334486    13.280086    27.853095    5672.0963 
  143500      143.488    362.13045    14.885273   -441.53957   -426.65429   -9612.1195   -4005.6037    4460.0817   -29290.837    15.334489    13.280088    27.853078    5672.0945 
  144000      143.988    366.12508    15.049471   -441.67942   -426.62995   -9383.0013   -2439.2867    128.36489   -25838.082    15.334491     13.28009     27.85306    5672.0927 
  144500      144.488    379.71386    15.608034   -442.21455   -426.60652   -9611.3418   -2227.5326    2202.2352   -28808.728    15.334494    13.280092    27.853043    5672.0909 
  145000      144.988    380.04088    15.621476   -442.20358   -426.58211   -9601.9516   -3565.2993    1555.5348    -26796.09    15.334496    13.280094    27.853025    5672.0891 
  145500      145.488    389.42712    16.007295   -442.56573   -426.55844   -10006.985   -1466.8518    2415.9492   -30970.053    15.334498    13.280097    27.853008    5672.0873 
  146000      145.988    358.78227    14.747647   -441.28195    -426.5343   -8830.9037   -455.85908   -293.81318   -25743.039    15.334501    13.280099     27.85299    5672.0855 
  146500      146.488    383.86506    15.778668   -442.28936   -426.51069   -9235.7031   -2173.7029    1832.2485   -27365.655    15.334503    13.280101    27.852973    5672.0837 
  147000      146.988    373.00218    15.332152   -441.81791   -426.48576   -9600.7675   -1275.2819     523.5383   -28050.559    15.334506    13.280103    27.852955    5672.0819 
  147500      147.488    387.99497    15.948427   -442.40992   -426.46149    -8888.093   -781.22475    483.21819   -26366.272    15.334508    13.280105    27.852938    5672.0801 
  148000      147.988    365.90708     15.04051   -441.47794   -426.43743   -9798.4983    -2396.431    446.27692   -27445.341     15.33451    13.280107     27.85292    5672.0783 
  148500      148.488    400.31103    16.454675   -442.86759   -426.41292   -10070.761   -1570.3631    918.75026   -29560.671    15.334513    13.280109    27.852903    5672.0765 
  149000      148.988    383.91093    15.780554    -442.1697   -426.38915   -10029.376    474.92279   -2109.3847   -28453.667    15.334515    13.280111    27.852885    5672.0747 
  149500      149.488    384.43244     15.80199   -442.16673   -426.36474   -9521.9314    1142.5282     362.4366   -30070.759    15.334518    13.280113    27.852868    5672.0729 
  150000      149.988    388.54729     15.97113   -442.31143    -426.3403   -9379.2003    43.523079   -596.31952   -27584.804     15.33452    13.280115     27.85285    5672.0711 
  150500      150.488    380.72936    15.649776    -441.9658   -426.31603    -9442.664   -1538.8578      724.459   -27513.593    15.334522    13.280117    27.852833    5672.0693 
  151000      150.988    398.53903    16.381837   -442.67357   -426.29174   -10234.025   -2262.9366    966.27351   -29405.411    15.334525    13.280119    27.852815    5672.0675 
  151500      151.488     387.1649    15.914307   -442.18153   -426.26722     -9372.48   -4238.1704    3002.3617   -26881.631    15.334527    13.280121    27.852798    5672.0657 
  152000      151.988    387.92956    15.945738   -442.18876   -426.24302   -9957.0491   -963.54187   -650.94123   -28256.664     15.33453    13.280123     27.85278    5672.0639 
  152500      152.488    386.96026    15.905896   -442.12401   -426.21812   -10412.885   -2625.9415    1951.8384   -30564.553    15.334532    13.280125    27.852763    5672.0621 
  153000      152.988    401.36071    16.497822   -442.69208   -426.19426   -9995.9977   -1127.8978    1054.1864   -29914.282    15.334534    13.280127    27.852745    5672.0603 
  153500      153.488    395.03608     16.23785   -442.40755    -426.1697    -8050.372    -952.8326    1620.8484   -24819.132    15.334537    13.280129    27.852728    5672.0585 
  154000      153.988    386.82528    15.900347   -442.04496   -426.14461   -8976.5125   -205.70069   -129.73336   -26594.103    15.334539    13.280131     27.85271    5672.0567 
  154500      154.488    392.96654    16.152782    -442.2726   -426.11982   -9749.2769   -3320.1958    464.48139   -26392.116    15.334542    13.280133    27.852693    5672.0549 
  155000      154.988    382.25684    15.712563   -441.80755   -426.09499   -10183.592   -195.33899     1299.233   -31654.671    15.334544    13.280135    27.852675    5672.0531 
  155500      155.488    374.79507    15.405849   -441.47655    -426.0707   -8852.5606    -2462.792   -1595.3312   -22499.559    15.334546    13.280138    27.852658    5672.0513 
  156000      155.988    363.10425    14.925301   -440.97125   -426.04595   -8405.8636   -800.47581    3025.0896   -27442.204    15.334549     13.28014     27.85264    5672.0495 
  156500      156.488     389.1235    15.994815   -442.01615   -426.02134    -9247.411   -669.87789     992.5505   -28064.906    15.334551    13.280142    27.852623    5672.0477 
  157000      156.988    374.95199    15.412299   -441.40848   -425.99618   -8813.3501    1041.0068    1241.1054   -28722.162    15.334554    13.280144    27.852605    5672.0459 
  157500      157.488     366.9921     15.08511   -441.05687   -425.97176   -8174.9433    1007.3663   -1011.6225   -24520.574    15.334556    13.280146    27.852588    5672.0441 
  158000      157.988    382.93545    15.740457   -441.68709   -425.94664   -9081.8858   -2125.3787   -1505.0246   -23615.254    15.334558    13.280148     27.85257    5672.0423 
  158500      158.488     371.2141    15.258654   -441.18087   -425.92222   -8166.0961    2157.0794    88.305849   -26743.674    15.334561     13.28015    27.852553    5672.0405 
  159000      158.988     387.2951    15.919659   -441.81709   -425.89743   -9745.6208    -1456.456    1276.5514   -29056.958    15.334563    13.280152    27.852535    5672.0387 
  159500      159.488    403.18702    16.572892   -442.44613   -425.87323   -10324.311   -3613.5528    413.12145   -27772.503    15.334566    13.280154    27.852518    5672.0369 
  160000      159.988    391.45757    16.090756   -441.93887   -425.84811   -9545.5614    441.77645    257.76004   -29336.221    15.334568    13.280156      27.8525    5672.0351 
  160500      160.488    383.19135    15.750976   -441.57386   -425.82289   -8813.6653    440.31544    231.68403   -27112.995     15.33457    13.280158    27.852483    5672.0333 
  161000      160.988     389.3483    16.004055   -441.80207   -425.79802   -10699.024   -2546.9375    1350.1881   -30900.322    15.334573     13.28016    27.852465    5672.0315 
  161500      161.488    403.48509    16.585144   -442.35874   -425.77359   -9548.1478   -2904.4906    914.99775   -26654.951    15.334575    13.280162    27.852448    5672.0297 
  162000      161.988    402.93204    16.562411   -442.31083   -425.74842   -9205.8448   -272.82815   -721.43771   -26623.268    15.334578    13.280164     27.85243    5672.0279 
  162500      162.488    387.80697    15.940699   -441.66392   -425.72322   -9796.8738   -3058.5196    4311.2496   -30643.351     15.33458    13.280166    27.852413    5672.0261 
  163000      162.988    365.39487    15.019456   -440.71709   -425.69763   -8851.8656   -1263.8283    2940.8982   -28232.667    15.334582    13.280168    27.852395    5672.0243 
  163500      163.488    408.91658    16.808404   -442.48152   -425.67311   -8649.7043    -4073.838   -302.74712   -21572.528    15.334585     13.28017    27.852378    5672.0225 
  164000      163.988    383.94984    15.782153   -441.42972   -425.64757   -8938.3103      1651.24   -720.98976   -27745.181    15.334587    13.280172     27.85236    5672.0207 
  164500      164.488    391.21154    16.080643   -441.70304   -425.62239   -8639.5459   -1758.9214    3292.2967   -27452.013     15.33459    13.280174    27.852343    5672.0189 
  165000      164.988    400.96955    16.481744   -442.07946   -425.59772   -9806.0026   -2168.4332    1951.2523   -29200.827    15.334592    13.280176    27.852325    5672.0171 
  165500      165.488    386.26513    15.877322   -441.44956   -425.57224   -9216.0267    332.79877    2044.0829   -30024.962    15.334594    13.280179    27.852308    5672.0153 
  166000      165.988    391.53689    16.094017   -441.64073   -425.54671   -8602.7395   -1752.5647    1244.2172   -25299.871    15.334597    13.280181     27.85229    5672.0135 
  166500      166.488    377.62717    15.522261   -441.04416    -425.5219   -8621.6247   -1270.3543    180.81644   -24775.336    15.334599    13.280183    27.852273    5672.0117 
  167000      166.988    373.47209    15.351468   -440.84777    -425.4963   -8340.3016   -835.05457    395.68008    -24581.53    15.334602    13.280185    27.852255    5672.0099 
  167500      167.488    388.44596    15.966965   -441.43765   -425.47068   -8821.2275    -1401.091    24.602435   -25087.194    15.334604    13.280187    27.852238    5672.0081 
  168000      167.988    387.29791    15.919775   -441.36533   -425.44556    -8037.611    643.97859   -267.05884   -24489.753    15.334606    13.280189     27.85222    5672.0063 
  168500      168.488    388.61289    15.973827   -441.39439   -425.42056   -8262.5452     485.5762   -804.04122   -24469.171    15.334609    13.280191    27.852203    5672.0045 
  169000      168.988    422.13024    17.351548   -442.74687   -425.39532   -8609.3204   -634.22575    445.78268   -25639.518    15.334611    13.280193    27.852185    5672.0027 
  169500      169.488    385.33026    15.838895   -441.20836   -425.36947   -9644.4344    -2188.115    267.65122   -27012.839    15.334614    13.280195    27.852168    5672.0009 
  170000      169.988    402.68873     16.55241   -441.89671    -425.3443   -10465.958   -4943.8674    1218.0366   -27672.044    15.334616    13.280197     27.85215    5671.9991 
  170500      170.488    385.58641    15.849424   -441.16834   -425.31891   -8715.5607    2390.0496   -771.75427   -27764.978    15.334618    13.280199    27.852133    5671.9973 
  171000      170.988    404.70271    16.635194   -441.92822   -425.29303   -8488.5142   -2736.4793    2240.1834   -24969.247    15.334621    13.280201    27.852115    5671.9955 
  171500      171.488    380.28883    15.631668   -440.89927   -425.26761   -10056.853   -1646.0355    1713.0589   -30237.584    15.334623    13.280203    27.852098    5671.9937 
  172000      171.988    388.16032    15.955224   -441.19734   -425.24211   -8622.7617   -2630.8812   -172.15255   -23065.251    15.334626    13.280205     27.85208    5671.9919 
  172500      172.488    400.01314    16.442431   -441.65903    -425.2166   -9394.7467   -2571.7147    125.36894   -25737.894    15.334628    13.280207    27.852063    5671.9901 
  173000      172.988     426.7864    17.542938    -442.7344   -425.19146   -10062.975   -708.19116   -228.22219   -29252.513     15.33463    13.280209    27.852045    5671.9883 
  173500      173.488    408.44335    16.788952   -441.95467   -425.16572   -9748.0597   -2434.6971   -1211.4802   -25598.002    15.334633    13.280211    27.852028    5671.9865 
  174000      173.988    407.28528     16.74135   -441.88131   -425.13996   -8278.4356   -222.67187    850.93588   -25463.571    15.334635    13.280213     27.85201    5671.9847 
  174500      174.488    400.69503     16.47046   -441.58503   -425.11457   -9820.3032   -1739.4838    819.95482   -28541.381    15.334638    13.280215    27.851993    5671.9829 
  175000      174.988    407.62431    16.755285   -441.84442   -425.08913   -8885.8195    787.84503    1613.8176   -29059.121     15.33464    13.280217    27.851975    5671.9811 
  175500      175.488    382.91196    15.739491   -440.80239    -425.0629   -8256.6107   -947.46062    3189.4894   -27011.861    15.334642     13.28022    27.851958    5671.9793 
  176000      175.988    395.62733    16.262153   -441.29916   -425.03701   -8618.7003   -1575.7297   -40.935717   -24239.436    15.334645    13.280222     27.85194    5671.9775 
  176500      176.488    406.94701    16.727446   -441.73907   -425.01163   -9331.6878   -1703.9818    254.01717   -26545.099    15.334647    13.280224    27.851923    5671.9757 
  177000      176.988    399.13804     16.40646   -441.39256    -424.9861   -9232.7666   -3144.7733    911.68305   -25465.209     15.33465    13.280226    27.851905    5671.9739 
  177500      177.488    434.49777    17.859912   -442.82082    -424.9609   -9821.2873   -2261.1622     183.3864   -27386.086    15.334652    13.280228    27.851888    5671.9721 
  178000      177.988    396.92341    16.315428   -441.24945   -424.93402   -8789.2058   -2581.0876    2505.6186   -26292.148    15.334654     13.28023     27.85187    5671.9703 
  178500      178.488    384.67947    15.812144   -440.72072   -424.90857   -8780.4521   -446.24882    1159.2172   -27054.325    15.334657    13.280232    27.851853    5671.9685 
  179000      178.988    393.03105    16.155434   -441.03832   -424.88289   -8005.1769    233.01753    1616.3932   -25864.941    15.334659    13.280234    27.851835    5671.9667 
  179500      179.488    416.38246    17.115287   -441.97237   -424.85708    -10166.31   -340.58739    70.491148   -30228.833    15.334662    13.280236    27.851818    5671.9649 
  180000      179.988    409.57891    16.835629   -441.66701   -424.83139   -8819.2876   -514.61066    1602.8804   -27546.132    15.334664    13.280238      27.8518    5671.9631 
  180500      180.488    383.98757    15.783704   -440.58935   -424.80565   -7874.5867    1876.5509    1551.7701   -27052.081    15.334666     13.28024    27.851783    5671.9613 
  181000      180.988    390.95689    16.070176   -440.85004   -424.77986     -7481.43    2381.4647    734.77757   -25560.532    15.334669    13.280242    27.851765    5671.9595 
  181500      181.488    397.91351    16.356126   -441.10979   -424.75367   -8446.4819   -1516.0902    2005.3669   -25828.722    15.334671    13.280244    27.851748    5671.9577 
  182000      181.988    397.85565    16.353747   -441.08172   -424.72797   -8239.9659     1040.749   -261.72506   -25498.922    15.334674    13.280246     27.85173    5671.9559 
  182500      182.488    411.94498    16.932885   -441.63483   -424.70195   -8798.4951   -1982.9007    2894.2591   -27306.844    15.334676    13.280248    27.851713    5671.9541 
  183000      182.988     394.3368    16.209106   -440.88486   -424.67575     -9167.77   -2293.1885     3504.018   -28714.139    15.334678     13.28025    27.851695    5671.9523 
  183500      183.488    402.05655    16.526424   -441.17616   -424.64974   -8396.3503   -1342.1515    2724.0745   -26570.974    15.334681    13.280252    27.851678    5671.9505 
  184000      183.988    407.73752    16.759939   -441.38351   -424.62357   -8802.6783   -1688.5005    1242.1947   -25961.729    15.334683    13.280254     27.85166    5671.9487 
  184500      184.488    426.76901    17.542223   -442.14017   -424.59795   -8849.7276   -1746.6248   -561.78659   -24240.772    15.334686    13.280256    27.851643    5671.9469 
  185000      184.988    405.93488    16.685842   -441.25736   -424.57152   -8776.0289   -1842.7695   -358.84029   -24126.477    15.334688    13.280258    27.851625    5671.9451 
  185500      185.488    410.31936    16.866065   -441.41121   -424.54514   -8646.5724    200.96451    4261.4267   -30402.108     15.33469    13.280261    27.851608    5671.9433 
  186000      185.988    379.91596    15.616341   -440.13497   -424.51863    -6220.366   -659.21403    4570.9494   -22572.833    15.334693    13.280263     27.85159    5671.9415 
  186500      186.488    388.46615    15.967795   -440.46006   -424.49226   -8184.0725   -725.60228    2965.4353   -26792.051    15.334695    13.280265    27.851573    5671.9397 
  187000      186.988    402.08839    16.527733   -440.99453    -424.4668   -8090.4747   -787.73615    1111.0828   -24594.771    15.334698    13.280267    27.851555    5671.9379 
  187500      187.488    404.90857    16.643656   -441.08441   -424.44075   -8331.3239   -1574.2662    3161.4458   -26581.151      15.3347    13.280269    27.851538    5671.9361 
  188000      187.988    421.14909    17.311218   -441.72582    -424.4146     -9312.12   -1472.2556    1479.6955     -27943.8    15.334702    13.280271     27.85152    5671.9343 
  188500      188.488    409.92898    16.850018   -441.23764   -424.38762   -7987.2189    4063.7727    804.10808   -28829.537    15.334705    13.280273    27.851503    5671.9325 
  189000      188.988    397.86147    16.353987   -440.71517   -424.36119   -8629.0371    257.65293    262.33269   -26407.097    15.334707    13.280275    27.851485    5671.9307 
  189500      189.488     417.0701    17.143552   -441.47867   -424.33512   -8051.1682   -34.122074    2586.7283   -26706.111     15.33471    13.280277    27.851468    5671.9289 
  190000      189.988    402.83211    16.558303   -440.86678   -424.30847    -9055.355   -1112.3425    1711.2964   -27765.019    15.334712    13.280279     27.85145    5671.9271 
  190500      190.488    397.50593    16.339373   -440.62113   -424.28175   -8464.7609    854.22879    1787.8696   -28036.381    15.334714    13.280281    27.851433    5671.9253 
  191000      190.988    428.40804    17.609595   -441.86562   -424.25603   -8859.9617    1030.4106    649.99388   -28260.289    15.334717    13.280283    27.851415    5671.9235 
  191500      191.488    378.59872    15.562197   -439.79124   -424.22904   -8255.9822   -3036.6202    2434.1821   -24165.508    15.334719    13.280285    27.851398    5671.9216 
  192000      191.988    408.06901    16.773565   -440.97689   -424.20333   -8851.3271    1066.2247    1704.2832   -29324.489    15.334722    13.280287     27.85138    5671.9198 
  192500      192.488    426.04476    17.512453   -441.68931   -424.17686   -9664.7058   -959.83249    716.12963   -28750.415    15.334724    13.280289    27.851363     5671.918 
  193000      192.988    403.97349     16.60522   -440.75542    -424.1502   -8357.1464   -236.37859    1012.5023   -25847.563    15.334726    13.280291    27.851345    5671.9162 
  193500      193.488    427.19673    17.559805   -441.68429   -424.12449   -9009.2511    736.90336    918.34825   -28683.005    15.334729    13.280293    27.851328    5671.9144 
  194000      193.988    434.73566     17.86969   -441.96658   -424.09689   -8926.4177   -1071.4461    1068.6308   -26776.438    15.334731    13.280295     27.85131    5671.9126 
  194500      194.488    417.91775    17.178395   -441.24961   -424.07121   -8124.5057    854.30465    -461.8847   -24765.937    15.334734    13.280297    27.851293    5671.9108 
  195000      194.988    439.00661    18.045246   -442.09012   -424.04488   -10091.609   -2795.5669   -162.81171   -27316.449    15.334736    13.280299    27.851275     5671.909 
  195500      195.488    390.45692    16.049625    -440.0676   -424.01798   -8432.9607    365.73763    1330.9742   -26995.594    15.334738    13.280302    27.851258    5671.9072 
  196000      195.988    422.33656    17.360029   -441.35175   -423.99172   -8992.9113   -958.94153     283.7091   -26303.501    15.334741    13.280304     27.85124    5671.9054 
  196500      196.488    415.58061    17.082327   -441.04713   -423.96481   -7978.0491   -486.76223    1085.4085   -24532.794    15.334743    13.280306    27.851223    5671.9036 
  197000      196.988    394.30923    16.207973   -440.14591   -423.93794   -8326.0873   -887.73533    2580.6066   -26671.133    15.334746    13.280308    27.851205    5671.9018 
  197500      197.488    408.59578    16.795218   -440.70672    -423.9115    -8232.655   -174.65562     1264.453   -25787.762    15.334748     13.28031    27.851188       5671.9 
  198000      197.988     400.1526    16.448163   -440.33245   -423.88429   -7832.5597    1017.0136    2919.8753   -27434.568     15.33475    13.280312     27.85117    5671.8982 
  198500      198.488    400.53844    16.464023   -440.32167   -423.85765        -8514   -2106.3895    103.32596   -23538.936    15.334753    13.280314    27.851153    5671.8964 
  199000      198.988     432.4726    17.776668   -441.60791   -423.83125   -7715.5602   -525.78662    1799.8427   -24420.737    15.334755    13.280316    27.851135    5671.8946 
  199500      199.488    433.56488    17.821566   -441.62597    -423.8044   -8900.3472   -800.82178    1458.9253   -27359.145    15.334758    13.280318    27.851118    5671.8928 
  200000      199.988    385.62217    15.850894   -439.62795   -423.77705   -7385.0574   -1281.0577    3053.8309   -23927.945     15.33476     13.28032      27.8511     5671.891 
  200500      200.488    433.45578    17.817081   -441.56738    -423.7503   -8890.4158    416.55926    2560.3672   -29648.174    15.334762    13.280322    27.851083    5671.8892 
  201000      200.988    409.05417     16.81406   -440.53758   -423.72352   -8149.7093    2551.6794    2040.8507   -29041.658    15.334765    13.280324    27.851065    5671.8874 
  201500      201.488    419.44145    17.241026    -440.9375   -423.69647   -8481.1352    19.643184    1615.5822   -27078.631    15.334767    13.280326    27.851048    5671.8856 
  202000      201.988    404.24336    16.616313   -440.28646   -423.67015   -7296.7718   -264.49406    2526.9224   -24152.744     15.33477    13.280328     27.85103    5671.8838 
  202500      202.488    396.04291    16.279236   -439.92237   -423.64313   -7733.2537    2843.1642   -333.99369   -25708.932    15.334772     13.28033    27.851013     5671.882 
  203000      202.988    444.95086    18.289583   -441.90608    -423.6165   -8795.2446    37.234923    1695.2417   -28118.211    15.334774    13.280332    27.850995    5671.8802 
  203500      203.488    408.92807    16.808876   -440.39838    -423.5895   -9454.5963   -1909.9061    2670.7806   -29124.663    15.334777    13.280334    27.850978    5671.8784 
  204000      203.988    410.04819    16.854919   -440.41673   -423.56181   -7864.4638    1387.3089   -241.94875   -24738.751    15.334779    13.280336     27.85096    5671.8766 
  204500      204.488     422.4141    17.363216   -440.89878   -423.53556   -8615.3231   -233.19281    2302.7364   -27915.513    15.334782    13.280338    27.850943    5671.8748 
  205000      204.988    423.34164    17.401342   -440.91026   -423.50892   -7618.6202    746.04184    2427.5347   -26029.437    15.334784     13.28034    27.850925     5671.873 
  205500      205.488    412.40002     16.95159   -440.43373   -423.48214   -7562.4225   -1291.6333    3223.7409   -24619.375    15.334786    13.280343    27.850908    5671.8712 
  206000      205.988    408.11917    16.775627   -440.23026   -423.45463   -7834.1266    1080.2911   -177.98337   -24404.688    15.334789    13.280345     27.85089    5671.8694 
  206500      206.488    412.04927    16.937173   -440.36474   -423.42757   -8774.3715   -2616.4186    4061.0576   -27767.753    15.334791    13.280347    27.850873    5671.8676 
  207000      206.988      436.169    17.928607   -441.32952   -423.40092   -8609.5867   -3084.0064    2406.3263    -25151.08    15.334794    13.280349    27.850855    5671.8658 
  207500      207.488     399.9692    16.440624   -439.81394   -423.37332   -8084.4709    -2093.875    4843.1688   -27002.706    15.334796    13.280351    27.850838     5671.864 
  208000      207.988    402.57628    16.547788   -439.89402   -423.34623   -7527.0246   -1793.1427    1903.7182   -22691.649    15.334798    13.280353     27.85082    5671.8622 
  208500      208.488    429.35437    17.648494   -440.96787   -423.31938   -7946.8241   -2088.9177    589.83671   -22341.391    15.334801    13.280355    27.850803    5671.8604 
  209000      208.988    415.04959      17.0605   -440.35223   -423.29173   -8631.5139   -941.78685    2276.0811   -27228.836    15.334803    13.280357    27.850785    5671.8586 
  209500      209.488    445.19789    18.299737   -441.56482   -423.26509   -8772.8069   -620.64559    1463.2753    -27161.05    15.334806    13.280359    27.850768    5671.8568 
  210000      209.988    428.19769    17.600949     -440.838   -423.23705   -8141.1645   -53.903889     341.6757   -24711.265    15.334808    13.280361     27.85075     5671.855 
  210500      210.488    409.71266    16.841127   -440.05101   -423.20988   -7887.2854    620.74827    1080.0164   -25362.621     15.33481    13.280363    27.850733    5671.8532 
  211000      210.988    398.37657     16.37516   -439.55769   -423.18253   -6723.4882    364.65131    3363.7009   -23898.817    15.334813    13.280365    27.850715    5671.8514 
  211500      211.488    439.13514     18.05053   -441.20574   -423.15521   -8267.9253   -934.02361    -995.9321    -22873.82    15.334815    13.280367    27.850698    5671.8496 
  212000      211.988    443.95929    18.248825   -441.37664   -423.12781    -8944.763   -677.55681    1085.6182   -27242.351    15.334818    13.280369     27.85068    5671.8478 
[...]
  948500      948.488      582.134    23.928459   -435.68313   -411.75467   -3141.2229    5575.0726    3824.1537   -18822.895    15.338353    13.283389    27.824903    5669.1933 
  949000      948.988    545.87865    22.438192   -434.18831   -411.75012   -2520.1591    5960.4601    6482.7508   -20003.688    15.338355    13.283391    27.824885    5669.1915 
  949500      949.488    552.62997    22.715703   -434.46156   -411.74586   -2426.6319    5946.5081    6827.8596   -20054.263    15.338358    13.283393    27.824868    5669.1897 
  950000      949.988    589.51534    24.231867   -435.97546    -411.7436   -4084.0015    5209.2952    4184.1844   -21645.484     15.33836    13.283395     27.82485    5669.1879 
  950500      950.488    540.21352    22.205329   -433.94489   -411.73957   -1846.5901    4042.4606    5783.0884   -15365.319    15.338362    13.283397    27.824833    5669.1861 
  951000      950.988    585.01225    24.046768   -435.78348   -411.73671   -4158.8189    6248.6075    1399.6696   -20124.734    15.338365    13.283399    27.824815    5669.1843 
  951500      951.488     595.7865    24.489641   -436.22289   -411.73325   -2090.2135     7492.162    5520.8665   -19283.669    15.338367    13.283401    27.824798    5669.1825 
  952000      951.988    585.08899    24.049923   -435.77924   -411.72932   -1448.6994    9663.2614    2059.0344   -16068.394     15.33837    13.283403     27.82478    5669.1807 
  952500      952.488    580.89668    23.877599    -435.6034    -411.7258   -2899.6681    4673.1997    6584.2999   -19956.504    15.338372    13.283405    27.824763    5669.1788 
  953000      952.988    583.78582    23.996356   -435.71849   -411.72214   -3163.9612    6152.0475    6936.5549   -22580.486    15.338374    13.283407    27.824745     5669.177 
  953500      953.488    594.61494    24.441484   -436.15828   -411.71679   -3688.4203    2091.4647    5481.0293   -18637.755    15.338377    13.283409    27.824728    5669.1752 
  954000      953.988    567.01789    23.307115   -435.01908   -411.71197   -3387.1146    9076.4552    473.84325   -19711.642    15.338379    13.283411     27.82471    5669.1734 
  954500      954.488    594.97171    24.456149   -436.16498   -411.70883   -4233.3425    3929.9884    4001.5268   -20631.543    15.338382    13.283413    27.824693    5669.1716 
  955000      954.988    572.60649    23.536833    -435.2392   -411.70236   -2760.0672     4476.014    3971.9348    -16728.15    15.338384    13.283415    27.824675    5669.1698 
  955500      955.488    592.46208    24.352992   -436.05127   -411.69828   -3450.1326    5869.5525    4885.9489   -21105.899    15.338386    13.283418    27.824658     5669.168 
  956000      955.988    576.19117     23.68418   -435.37802   -411.69384   -2197.5441    9370.5328    7297.1827   -23260.348    15.338389     13.28342     27.82464    5669.1662 
  956500      956.488    585.31087    24.059043   -435.74995    -411.6909   -3902.5954    4459.2737    8461.8767   -24628.937    15.338391    13.283422    27.824623    5669.1644 
  957000      956.988    588.49305    24.189846   -435.87505    -411.6852   -3145.0975    2829.2681    6563.0291    -18827.59    15.338394    13.283424    27.824605    5669.1626 
  957500      957.488    564.12912    23.188373   -434.86897    -411.6806   -4016.8688    2533.4425    7651.8071   -22235.856    15.338396    13.283426    27.824588    5669.1608 
  958000      957.988    548.74949    22.556197   -434.23175   -411.67556   -443.91804    5180.4884    10750.752   -17262.995    15.338398    13.283428     27.82457     5669.159 
  958500      958.488    562.15746    23.107329    -434.7787   -411.67137   -2326.7392    6492.9118    4998.4448   -18471.574    15.338401     13.28343    27.824553    5669.1572 
  959000      958.988    587.86485    24.164023   -435.83084   -411.66682   -3090.5551    4106.2933    4658.6878   -18036.646    15.338403    13.283432    27.824535    5669.1554 
  959500      959.488     567.6411    23.332732   -434.99484   -411.66211   -1730.8576    2833.4877    8041.6505   -16067.711    15.338406    13.283434    27.824518    5669.1536 
  960000      959.988    589.36866    24.225837   -435.88421   -411.65838   -5299.0804    3139.0039    6796.6336   -25832.879    15.338408    13.283436      27.8245    5669.1518 
  960500      960.488    550.41354    22.624598   -434.27806   -411.65346   -1063.4836    6391.0319     8992.236   -18573.719     15.33841    13.283438    27.824483      5669.15 
  961000      960.988    565.61869    23.249602   -434.89839   -411.64879   -2742.4993    5779.5058     6451.259   -20458.263    15.338413     13.28344    27.824465    5669.1482 
  961500      961.488    608.41274    25.008639   -436.65427   -411.64563   -3597.0366    1215.6482    9984.3043   -21991.062    15.338415    13.283442    27.824448    5669.1464 
  962000      961.988    589.07406    24.213728   -435.85383   -411.64011   -2933.2959    1056.1583    8017.8569   -17873.903    15.338418    13.283444     27.82443    5669.1446 
  962500      962.488    560.10712     23.02305   -434.65688   -411.63383   -1698.2295    6348.0274    5169.2078   -16611.924     15.33842    13.283446    27.824413    5669.1428 
  963000      962.988    560.44359     23.03688   -434.66542   -411.62854   -2713.0765    8572.3527    4316.6451   -21028.227    15.338422    13.283448    27.824395     5669.141 
  963500      963.488    558.89544    22.973244   -434.59562   -411.62237   -2661.5305    6328.1256    5540.3759   -19853.093    15.338425     13.28345    27.824378    5669.1392 
  964000      963.988    552.29179    22.701803   -434.31846   -411.61666   -3012.8045    4684.7987    8501.5156   -22224.728    15.338427    13.283452     27.82436    5669.1374 
  964500      964.488    591.12297    24.297948   -435.90885    -411.6109   -3196.1908    3770.6322    2655.4311   -16014.636     15.33843    13.283454    27.824343    5669.1356 
  965000      964.988    595.13371    24.462808   -436.06818   -411.60538   -3079.5027    6037.4613    4295.6682   -19571.638    15.338432    13.283456    27.824325    5669.1338 
  965500      965.488    604.01614    24.827918   -436.42723   -411.59931   -3850.5821    2389.9409    2175.9385   -16117.626    15.338434    13.283459    27.824308     5669.132 
  966000      965.988    576.45769    23.695136    -435.2893   -411.59417   -2877.1484    2731.9919    6681.3953   -18044.832    15.338437    13.283461     27.82429    5669.1302 
  966500      966.488    564.16297    23.189764   -434.77729   -411.58753   -2986.6838    2735.4738    5999.0288   -17694.554    15.338439    13.283463    27.824273    5669.1283 
  967000      966.988    583.85024    23.999004   -435.58147   -411.58247   -4257.6698    1137.6874    7156.2201   -21066.917    15.338442    13.283465    27.824255    5669.1265 
  967500      967.488    589.23341    24.220278   -435.79668    -411.5764   -2030.3013    3676.3077    8646.2731   -18413.485    15.338444    13.283467    27.824238    5669.1247 
  968000      967.988     571.7851     23.50307    -435.0728   -411.56973   -2722.3801    3206.2616     7083.403   -18456.805    15.338446    13.283469     27.82422    5669.1229 
  968500      968.488    551.88545      22.6851   -434.24821   -411.56311   -1133.0046    3985.5574    8623.3518   -16007.923    15.338449    13.283471    27.824203    5669.1211 
  969000      968.988    537.93109     22.11151   -433.66594   -411.55443   -3063.0962    5963.2229    7110.9935   -22263.505    15.338451    13.283473    27.824185    5669.1193 
  969500      969.488     563.8715    23.177783    -434.7262   -411.54841   -4838.6411    451.83186    5605.8736   -20573.629    15.338454    13.283475    27.824168    5669.1175 
  970000      969.988    588.12427    24.174687    -435.7168   -411.54211   -3543.1184    6571.3957    6197.9859   -23398.737    15.338456    13.283477     27.82415    5669.1157 
  970500      970.488    572.87719     23.54796   -435.08317   -411.53521   -3556.9344    4630.7505    5349.0469     -20650.6    15.338458    13.283479    27.824133    5669.1139 
  971000      970.988    585.98959    24.086942    -435.6165   -411.52956   -3228.5902    3593.8301    7391.5975   -20671.198    15.338461    13.283481    27.824115    5669.1121 
  971500      971.488     586.2472    24.097531    -435.6205   -411.52297    -3202.644    7628.8292    2559.7969   -19796.558    15.338463    13.283483    27.824098    5669.1103 
  972000      971.988    579.65561    23.826585   -435.34313   -411.51654   -2443.9076    6637.5888    7744.4811   -21713.793    15.338466    13.283485     27.82408    5669.1085 
  972500      972.488    566.49903    23.285788   -434.79583   -411.51005   -3290.3849    5818.5228    3486.8424    -19176.52    15.338468    13.283487    27.824063    5669.1067 
  973000      972.988    547.35116    22.498719   -434.00114   -411.50242   -3258.4126    1704.2377    7052.0736   -18531.549     15.33847    13.283489    27.824045    5669.1049 
  973500      973.488    594.04159    24.417917   -435.91597   -411.49805   -2957.5617     4519.205    5926.9004    -19318.79    15.338473    13.283491    27.824028    5669.1031 
  974000      973.988    562.52901    23.122601   -434.61159   -411.48899   -3295.5056    5417.9119    7734.9294   -23039.358    15.338475    13.283493     27.82401    5669.1013 
  974500      974.488    601.33893    24.717872   -436.20177    -411.4839    -3544.483    4117.0229    5277.4339   -20027.906    15.338478    13.283495    27.823993    5669.0995 
  975000      974.988    551.99773    22.689716   -434.16646   -411.47675   -5790.9355    3752.0406    226.26451   -21351.111     15.33848    13.283497    27.823975    5669.0977 
  975500      975.488    542.07162    22.281705   -433.75048   -411.46878   -2494.0216    7245.4709    5109.3225   -19836.858    15.338482      13.2835    27.823958    5669.0959 
  976000      975.988    583.86669     23.99968    -435.4627   -411.46302   -3390.7493    4442.1793    4439.6712   -19054.098    15.338485    13.283502     27.82394    5669.0941 
  976500      976.488    567.61296    23.331575   -434.78773   -411.45616     -931.173    9538.5952     5668.613   -18000.727    15.338487    13.283504    27.823923    5669.0923 
  977000      976.988    579.69132    23.828053   -435.27735   -411.44929   -467.99468    11736.298    6435.7632   -19576.045     15.33849    13.283506    27.823905    5669.0905 
  977500      977.488    561.86597    23.095347   -434.53721   -411.44186   -2804.8257    9230.5416    2926.3503   -20571.369    15.338492    13.283508    27.823888    5669.0887 
  978000      977.988    574.38374    23.609886   -435.04434   -411.43445   -3172.0384    8048.0577    903.93129   -18468.104    15.338494     13.28351     27.82387    5669.0869 
  978500      978.488    562.07357     23.10388   -434.53157   -411.42769   -2675.4852    5839.1992    6523.0208   -20388.676    15.338497    13.283512    27.823853    5669.0851 
  979000      978.988    572.69361    23.540414   -434.96138   -411.42096   -2129.2481     7448.073       4844.5   -18680.317    15.338499    13.283514    27.823835    5669.0833 
  979500      979.488    563.30563    23.154524   -434.56802    -411.4135   -2790.5151    6773.0699    1796.6061   -16941.221    15.338502    13.283516    27.823818    5669.0815 
  980000      979.988     547.6259    22.510013   -433.91434   -411.40432     -2460.59    9488.3979    2009.9686   -18880.137    15.338504    13.283518      27.8238    5669.0796 
  980500      980.488    602.22439    24.754269   -436.15246   -411.39819   -2194.4988    9150.3793    1145.4694   -16879.345    15.338506     13.28352    27.823783    5669.0778 
  981000      980.988    634.41289    26.077368   -437.46946   -411.39209   -5440.0487    3551.1366    1094.8209   -20966.104    15.338509    13.283522    27.823765     5669.076 
  981500      981.488    594.60422    24.441043   -435.82461   -411.38357   -4359.3403    8074.3943    2616.7764   -23769.192    15.338511    13.283524    27.823748    5669.0742 
  982000      981.988    573.49919    23.573527   -434.95027   -411.37674   -4012.5774    7273.3175    4367.9043   -23678.954    15.338514    13.283526     27.82373    5669.0724 
  982500      982.488    554.66885    22.799511   -434.16869   -411.36918   -4272.4854    5419.2151   -651.47074     -17585.2    15.338516    13.283528    27.823713    5669.0706 
  983000      982.988    591.14415    24.298818   -435.66078   -411.36196   -3162.6446    8017.7916     4477.404   -21983.129    15.338518     13.28353    27.823695    5669.0688 
  983500      983.488    571.53747    23.492891     -434.847    -411.3541   -2398.4071    5812.0241    5613.3969   -18620.642    15.338521    13.283532    27.823678     5669.067 
  984000      983.988    580.76856    23.872333   -435.21862   -411.34629   -3202.0098     4128.012    3919.9618   -17654.003    15.338523    13.283534     27.82366    5669.0652 
  984500      984.488    557.13985    22.901081   -434.23916   -411.33808   -1950.1492    7150.9258    4142.2296   -17143.603    15.338526    13.283536    27.823643    5669.0634 
  985000      984.988    570.67324    23.457367   -434.78817   -411.33081   -1848.9501    5903.3037    5948.3567   -17398.511    15.338528    13.283538    27.823625    5669.0616 
  985500      985.488    589.17576    24.217908   -435.54069   -411.32278   -1854.1088    8270.7891    3738.3008   -17571.416     15.33853    13.283541    27.823608    5669.0598 
  986000      985.988    544.36581    22.376007   -433.68964   -411.31363   -1232.1517    7815.5847    6609.8132   -18121.853    15.338533    13.283543     27.82359     5669.058 
  986500      986.488    565.99063     23.26489   -434.57072   -411.30583   -1475.7683    8947.2745    1879.4805    -15254.06    15.338535    13.283545    27.823573    5669.0562 
  987000      986.988    546.14621     22.44919   -433.74637   -411.29718   -1898.1301    6676.8658   -588.91548   -11782.341    15.338538    13.283547    27.823555    5669.0544 
  987500      987.488    586.88018    24.123549   -435.41368   -411.29013   -2561.2444    8512.9047    6197.1619     -22393.8     15.33854    13.283549    27.823538    5669.0526 
  988000      987.988    525.02797    21.581131   -432.86278   -411.28165   -852.12137    8299.5896    6089.1616   -16945.115    15.338542    13.283551     27.82352    5669.0508 
  988500      988.488    575.39764    23.651562   -434.92517    -411.2736   -1573.2818    10745.919    3301.9087   -18767.673    15.338545    13.283553    27.823503     5669.049 
  989000      988.988    621.61224    25.551201   -436.81757   -411.26637   -2129.0344      9246.91    2094.7437   -17728.757    15.338547    13.283555    27.823485    5669.0472 
  989500      989.488    614.76148    25.269602   -436.52745   -411.25785   -3481.5923    9185.2846   -2.3745499   -19627.687     15.33855    13.283557    27.823468    5669.0454 
  990000      989.988    593.35528    24.389706   -435.63917   -411.24946   -3851.9571    7502.9084    3113.7949   -22172.575    15.338552    13.283559     27.82345    5669.0436 
  990500      990.488    580.50208    23.861379   -435.10256   -411.24118   -4205.3902    7057.2213    4590.7193   -24264.111    15.338554    13.283561    27.823433    5669.0418 
  991000      990.988    611.92003    25.152805   -436.38565   -411.23284    -2330.227    8622.9911    3023.9963   -18637.668    15.338557    13.283563    27.823415      5669.04 
  991500      991.488    584.27116    24.016306    -435.2397   -411.22339   -4283.7137    6059.2598   -117.72971   -18792.671    15.338559    13.283565    27.823398    5669.0382 
  992000      991.988    566.79052    23.297769    -434.5129   -411.21513   -2508.3301    10032.419    2690.9538   -20248.364    15.338562    13.283567     27.82338    5669.0364 
  992500      992.488    587.88227     24.16474   -435.37178   -411.20704   -3945.0574    4562.8788    4156.6687    -20554.72    15.338564    13.283569    27.823363    5669.0346 
  993000      992.988    550.57208    22.631115   -433.82893   -411.19781   -1287.9235    8350.7109    2971.5812   -15186.063    15.338566    13.283571    27.823345    5669.0328 
  993500      993.488    566.14095    23.271069   -434.45998   -411.18892    -2806.221     6827.621     1911.083   -17157.367    15.338569    13.283573    27.823328    5669.0309 
  994000      993.988    599.99353     24.66257   -435.84383   -411.18126   -3270.4012    10924.661    1413.4345   -22149.299    15.338571    13.283575     27.82331    5669.0291 
  994500      994.488    575.86493     23.67077   -434.84264   -411.17187   -1395.9506    10351.962    5882.4662    -20422.28    15.338574    13.283577    27.823293    5669.0273 
  995000      994.988    550.96292     22.64718   -433.80983   -411.16265   -962.39813    11028.819    5287.0411   -19203.055    15.338576    13.283579    27.823275    5669.0255 
  995500      995.488    570.81562     23.46322   -434.61636   -411.15314    -2532.195    8212.9766    3257.0343   -19066.596    15.338578    13.283582    27.823258    5669.0237 
  996000      995.988    543.69008    22.348232   -433.49265   -411.14442    300.31887     11826.19     3051.919   -13977.153    15.338581    13.283584     27.82324    5669.0219 
  996500      996.488    575.55859    23.658178   -434.79502   -411.13685   -3110.5417    8406.2434    1753.9485   -19491.817    15.338583    13.283586    27.823223    5669.0201 
  997000      996.988    604.41125    24.844159   -435.97174   -411.12758    -3844.225    8086.8032    608.96153    -20228.44    15.338586    13.283588    27.823205    5669.0183 
  997500      997.488    589.01674    24.211372   -435.32913   -411.11776   -2296.5791     11616.62     515.0877   -19021.445    15.338588     13.28359    27.823188    5669.0165 
  998000      997.988    599.18571    24.629364   -435.73729   -411.10793   -2485.7617    7663.6865    1746.3555   -16867.327     15.33859    13.283592     27.82317    5669.0147 
  998500      998.488    574.61288    23.619305   -434.71626   -411.09695   -2436.9815    9302.1973    5418.9866   -22032.128    15.338593    13.283594    27.823153    5669.0129 
  999000      998.988    593.28052    24.386633   -435.47518   -411.08855   -1811.7451     9443.338    1068.5162    -15947.09    15.338595    13.283596    27.823135    5669.0111 
  999500      999.488    583.47156    23.983439   -435.06255   -411.07911   -1162.9929    11116.268     1527.298   -16132.544    15.338598    13.283598    27.823118    5669.0093 
 1000000      999.988     568.0302    23.348726   -434.41776   -411.06903   -2706.0956    5603.2916    4657.9873   -18379.566      15.3386      13.2836      27.8231    5669.0075 
 1000012         1000    608.44054    25.009782   -436.07881   -411.06903   -3005.2004    5661.0937    5025.0801   -19701.775      15.3386      13.2836      27.8231    5669.0075 
Loop time of 902.102 on 28 procs for 1000000 steps with 319 atoms

Performance: 95.776 ns/day, 0.251 hours/ns, 1108.522 timesteps/s
87.3% CPU use with 28 MPI tasks x no OpenMP threads

MPI task timing breakdown:
Section |  min time  |  avg time  |  max time  |%varavg| %total
---------------------------------------------------------------
Pair    | 749.68     | 783.39     | 818.87     |  64.0 | 86.84
Neigh   | 0.020615   | 0.030024   | 0.037928   |   2.9 |  0.00
Comm    | 72.586     | 104.86     | 138.95     | 167.2 | 11.62
Output  | 0.10135    | 0.10352    | 0.126      |   1.4 |  0.01
Modify  | 4.6972     | 8.5652     | 14.17      | 103.2 |  0.95
Other   |            | 5.148      |            |       |  0.57

Nlocal:    11.3929 ave 17 max 6 min
Histogram: 4 1 1 2 3 6 8 1 1 1
Nghost:    643.857 ave 688 max 590 min
Histogram: 3 5 0 3 1 0 4 2 5 5
Neighs:    702.536 ave 1047 max 350 min
Histogram: 2 2 2 1 4 6 6 4 0 1
FullNghs:  1405.07 ave 2124 max 728 min
Histogram: 3 2 1 2 3 6 8 1 1 1

Total # of neighbors = 39342
Ave neighs/atom = 123.329
Neighbor list builds = 444
Dangerous builds = 0

write_restart   POSCAR_1x1x1.rest

#unfix    1
#undump   1
Total wall time: 0:15:02
