LAMMPS (7 Dec 2015)
#----------- Initialize Simulation ------------ restart01
#processors	2 2 2
units		metal
boundary	p p p     ## periodic boundary condition  on x y z axis ##
atom_style atomic
#atom_modify map array sort 0 0.0

read_data	POSCAR_1x1x1.lammps
  triclinic box = (0 0 0) to (15.3576 13.3001 27.6831) with tilt (-7.6787 0 0)
  2 by 2 by 7 MPI processor grid
  reading atoms ...
  319 atoms

#----------- Define Potential -----------------
pair_style meam
pair_coeff * * MgAlZn.library.meam Mg Al Zn MgAlZn.parameter.meam Mg Al Zn 	#1=Mg 2=Al 3=Zn	#atoms/mass

#----------- Neighbor List --------------------
neighbor 2.0 bin
neigh_modify delay 10 check yes

#--------------  Run a simulation (minimization) ---------------------------------------
minimize       1.0e-4   1.0e-6   100   1000          #結構優化的條件
WARNING: Resetting reneighboring criteria during minimization (../min.cpp:168)
Neighbor list info ...
  2 neighbor list requests
  update every 1 steps, delay 0 steps, check yes
  max neighbors/atom: 2000, page size: 100000
  master list distance cutoff = 8
  ghost atom cutoff = 8
  binsize = 4 -> bins = 6 4 7
Memory usage per processor = 8.65723 Mbytes
Step Temp E_pair E_mol TotEng Press 
       0            0   -434.77175            0   -434.77175   -6912.7252 
      12            0   -457.11562            0   -457.11562   -22846.632 
Loop time of 0.0192883 on 28 procs for 12 steps with 319 atoms

86.2% CPU use with 28 MPI tasks x no OpenMP threads

Minimization stats:
  Stopping criterion = energy tolerance
  Energy initial, next-to-last, final = 
        -434.771747785     -457.070821145     -457.115622674
  Force two-norm initial, final = 19.6544 0.897676
  Force max component initial, final = 4.05044 0.16945
  Final line search alpha, max atom move = 0.464176 0.0786548
  Iterations, force evaluations = 12 20

MPI task timing breakdown:
Section |  min time  |  avg time  |  max time  |%varavg| %total
---------------------------------------------------------------
Pair    | 0.015494   | 0.016151   | 0.017369   |   0.3 | 83.73
Neigh   | 0          | 0          | 0          |   0.0 |  0.00
Comm    | 0.0010613  | 0.002178   | 0.0029031  |   0.8 | 11.29
Output  | 0          | 0          | 0          |   0.0 |  0.00
Modify  | 0          | 0          | 0          |   0.0 |  0.00
Other   |            | 0.0009593  |            |       |  4.97

Nlocal:    11.3929 ave 16 max 6 min
Histogram: 1 2 2 2 3 4 3 3 5 3
Nghost:    646.857 ave 691 max 590 min
Histogram: 4 4 0 0 2 5 1 1 6 5
Neighs:    703.036 ave 1015 max 354 min
Histogram: 1 2 3 2 6 2 3 6 2 1
FullNghs:  1406.07 ave 1966 max 717 min
Histogram: 1 2 2 2 6 3 2 3 5 2

Total # of neighbors = 39370
Ave neighs/atom = 123.417
Neighbor list builds = 0
Dangerous builds = 0
velocity all  create 600.0 4928459 #rot yes dist gaussian

#--------------  Run a simulation (Relaxation)  ----------------------------------------
fix  1  all  nvt   temp  600.0  600.0  100				#damping constant
#fix  2  all  npt   temp  393.0  393.0  50 iso 0.0 0.0 1000.0
fix  2  all deform 1 x final 0 15.3624 y final 0 13.3042 z final 0 27.6481 xy final -7.6811 units lattice
#fix  3  all  npt   temp  393.0  393.0  50 z 0.0 0.0 1000.0

#variable b equal 1
#fix 2 all efield  0.0  0.0  v_b
#compute pot all pe/atom


#----------- Output --------------------------
thermo	 500
timestep  0.001		#1.0 fs
thermo_style	custom step time temp ke pe etotal press pxx pyy pzz lx ly lz vol

dump 1 all custom 10000 dump.eq id type x y z
dump_modify 1 sort  id

run        1000000	#1000 ps
Neighbor list info ...
  2 neighbor list requests
  update every 1 steps, delay 10 steps, check yes
  max neighbors/atom: 2000, page size: 100000
  master list distance cutoff = 8
  ghost atom cutoff = 8
  binsize = 4 -> bins = 6 4 7
Memory usage per processor = 7.56318 Mbytes
Step Time Temp KinEng PotEng TotEng Press Pxx Pyy Pzz Lx Ly Lz Volume 
      12            0          600    24.662836   -457.11562   -432.45279   -18187.885   -8553.2435   -11301.799   -34708.612      15.3576      13.3001      27.6831     5654.484 
     500        0.488    338.09748    13.897404   -446.34691    -432.4495   -11484.764   -1893.3635   -4627.3962   -27933.533    15.357602    13.300102    27.683083    5654.4822 
    1000        0.988    308.04945    12.662288    -445.1107   -432.44841   -11710.265   -3326.7936   -4098.0124    -27705.99    15.357605    13.300104    27.683065    5654.4804 
    1500        1.488    318.01633    13.071974   -445.52014   -432.44816   -11680.701   -3102.0323   -3334.6197   -28605.452    15.357607    13.300106    27.683048    5654.4786 
    2000        1.988    325.09494    13.362938   -445.81018   -432.44724    -12032.61   -3206.9367   -6572.9054   -26317.989     15.35761    13.300108     27.68303    5654.4768 
    2500        2.488    323.25556    13.287331   -445.73322   -432.44589   -10249.243    -2672.212   -4122.5261   -23952.991    15.357612     13.30011    27.683013    5654.4749 
    3000        2.988    329.55873    13.546421   -445.99054   -432.44412   -11589.462   -3515.6277   -3679.0035   -27573.754    15.357614    13.300112    27.682995    5654.4731 
    3500        3.488    308.54884    12.682816   -445.12475   -432.44193   -10335.964   -2022.3561    -3192.231   -25793.306    15.357617    13.300114    27.682978    5654.4713 
    4000        3.988    319.43555    13.130311   -445.57029   -432.43998   -12462.353   -2618.5795   -4226.9216   -30541.558    15.357619    13.300116     27.68296    5654.4695 
    4500        4.488    308.50493    12.681011   -445.11832   -432.43731   -10991.247   -2392.8614   -5193.3005    -25387.58    15.357622    13.300118    27.682943    5654.4677 
    5000        4.988    314.16885    12.913825   -445.34795   -432.43412   -12425.948   -3240.2096   -6078.3685   -27959.266    15.357624     13.30012    27.682925    5654.4659 
    5500        5.488    315.24655    12.958123   -445.38968   -432.43156   -11517.659   -1850.1387   -4049.1452   -28653.694    15.357626    13.300123    27.682908     5654.464 
    6000        5.988    297.51373     12.22922   -444.65654   -432.42732   -9718.1261   -620.11996   -4147.6103   -24386.648    15.357629    13.300125     27.68289    5654.4622 
    6500        6.488    317.16233    13.036871   -445.46076   -432.42389   -11895.794   -813.64913   -5781.9711   -29091.763    15.357631    13.300127    27.682873    5654.4604 
    7000        6.988    311.41798    12.800751   -445.22049   -432.41974   -11797.669    -2983.216   -5324.4259   -27085.364    15.357634    13.300129    27.682855    5654.4586 
    7500        7.488    313.37976    12.881389   -445.29646   -432.41507   -11504.939    -5150.337   -3821.1665   -25543.313    15.357636    13.300131    27.682838    5654.4568 
    8000        7.988     323.8339    13.311104   -445.72172   -432.41061    -11892.66   -2956.0363   -5146.8041   -27575.141    15.357638    13.300133     27.68282    5654.4549 
    8500        8.488    324.22354     13.32712    -445.7328   -432.40568   -10840.058   -2386.0198   -4470.7083   -25663.446    15.357641    13.300135    27.682803    5654.4531 
    9000        8.988    295.90943    12.163276   -444.56308    -432.3998   -11438.448   -2087.2875    -4999.348   -27228.708    15.357643    13.300137    27.682785    5654.4513 
    9500        9.488      320.141    13.159308   -445.55398   -432.39467   -11899.746   -4404.0815   -4339.7568   -26955.401    15.357646    13.300139    27.682768    5654.4495 
   10000        9.988    322.40311    13.252292   -445.64095   -432.38865   -12627.394   -2734.4472   -6324.4427   -28823.293    15.357648    13.300141     27.68275    5654.4477 
   10500       10.488    317.60095      13.0549   -445.43708   -432.38218   -11804.655   -3491.3602   -5266.4781   -26656.128     15.35765    13.300143    27.682733    5654.4458 
   11000       10.988    329.08271    13.526855    -445.9025   -432.37564   -11996.907   -3672.0417   -4926.5347   -27392.145    15.357653    13.300145    27.682715     5654.444 
   11500       11.488    317.31411     13.04311   -445.41216   -432.36905   -12270.525   -3203.1029   -5661.8209   -27946.651    15.357655    13.300147    27.682698    5654.4422 
   12000       11.988    310.68333    12.770553   -445.13249   -432.36194   -10833.877   -4803.6687   -1919.5935    -25778.37    15.357658    13.300149     27.68268    5654.4404 
   12500       12.488     305.8677    12.572608    -444.9266   -432.35399    -11480.47   -2646.0258   -6354.1931   -25441.192     15.35766    13.300151    27.682663    5654.4386 
   13000       12.988    309.80318    12.734375   -445.08042   -432.34604   -11871.221   -1361.9176   -6348.8971   -27902.848    15.357662    13.300153    27.682645    5654.4367 
   13500       13.488    315.28098    12.959538   -445.29765   -432.33811   -11560.798    -3922.785   -3266.4928   -27493.116    15.357665    13.300155    27.682628    5654.4349 
   14000       13.988    304.04227    12.497574   -444.82706   -432.32948   -11604.994   -1877.9966   -3808.1757    -29128.81    15.357667    13.300157     27.68261    5654.4331 
   14500       14.488    311.13074    12.788944   -445.10975    -432.3208   -10052.365   -2347.5831   -3662.0534   -24147.459     15.35767    13.300159    27.682593    5654.4313 
   15000       14.988    332.53839      13.6689   -445.98106   -432.31216   -11886.001   -2691.3343   -6910.5678     -26056.1    15.357672    13.300161    27.682575    5654.4295 
   15500       15.488    315.23772     12.95776      -445.26   -432.30224   -10869.189   -2086.7683   -5065.9634   -25454.835    15.357674    13.300164    27.682558    5654.4276 
   16000       15.988    301.18077    12.379953   -444.67242   -432.29247   -11599.133    -1736.909   -6052.4882   -27008.003    15.357677    13.300166     27.68254    5654.4258 
   16500       16.488    334.65349     13.75584   -446.03883   -432.28299   -11679.739   -1695.9656   -6258.5499   -27084.701    15.357679    13.300168    27.682523     5654.424 
   17000       16.988    302.64873    12.440293   -444.71254   -432.27224   -10376.506   -1845.8394   -4568.6596    -24715.02    15.357682     13.30017    27.682505    5654.4222 
   17500       17.488    291.30626    11.974064   -444.23601   -432.26195   -11197.297   -3412.6475   -5384.2528    -24794.99    15.357684    13.300172    27.682488    5654.4204 
   18000       17.988    321.73555    13.224852   -445.47579   -432.25094   -11708.342   -2479.1033   -3250.1526   -29395.769    15.357686    13.300174     27.68247    5654.4186 
   18500       18.488     327.5293    13.463002   -445.70333   -432.24032   -11771.123   -5056.6699   -3295.7991   -26960.899    15.357689    13.300176    27.682453    5654.4167 
   19000       18.988    306.03295      12.5794   -444.80765   -432.22825   -11530.983   -2820.4157   -4966.0653   -26806.469    15.357691    13.300178    27.682435    5654.4149 
   19500       19.488    339.00547    13.934727   -446.15166   -432.21694   -12076.146   -2291.3949   -5495.4212   -28441.623    15.357694     13.30018    27.682418    5654.4131 
   20000       19.988    303.66376    12.482016   -444.68654   -432.20452     -10521.8   -1828.2648   -3226.8018   -26510.335    15.357696    13.300182      27.6824    5654.4113 
   20500       20.488    309.96827    12.741161   -444.93333   -432.19217   -11095.209   -4678.2393   -3856.0639   -24751.323    15.357698    13.300184    27.682383    5654.4095 
   21000       20.988    305.18993    12.544749   -444.72482   -432.18007   -11053.913   -1613.6741   -5161.1782   -26386.886    15.357701    13.300186    27.682365    5654.4076 
   21500       21.488    308.40774    12.677016   -444.84388   -432.16687   -10777.487   -2507.7818   -4881.6047   -24943.073    15.357703    13.300188    27.682348    5654.4058 
   22000       21.988    338.21013    13.902035   -446.05606   -432.15403   -13159.925   -3703.4529   -7410.3732    -28365.95    15.357706     13.30019     27.68233     5654.404 
   22500       22.488    308.67825    12.688135   -444.82829   -432.14015   -11564.362   -3764.4166   -3454.5121   -27474.156    15.357708    13.300192    27.682313    5654.4022 
   23000       22.988    308.37579    12.675703   -444.80196   -432.12626   -10047.381   -2169.3574   -4130.2831   -23842.503     15.35771    13.300194    27.682295    5654.4004 
   23500       23.488    327.35316    13.455762   -445.56868   -432.11292    -12216.91   -1440.3285   -4025.5972   -31184.806    15.357713    13.300196    27.682278    5654.3985 
   24000       23.988    315.79736    12.980764   -445.07868   -432.09792   -11721.295   -2052.4371   -4682.3357   -28429.111    15.357715    13.300198     27.68226    5654.3967 
   24500       24.488    295.72375    12.155644   -444.23907   -432.08343   -10674.083   -813.45707   -5162.2662   -26046.526    15.357718      13.3002    27.682243    5654.3949 
   25000       24.988     323.4907    13.296997   -445.36606   -432.06906   -10283.616   -2234.4813   -5048.5793   -23567.787     15.35772    13.300202    27.682225    5654.3931 
   25500       25.488    305.45506    12.555646   -444.60891   -432.05326   -10048.686   -2080.9802   -1346.1696   -26718.908    15.357722    13.300205    27.682208    5654.3913 
   26000       25.988    328.87471    13.518305     -445.557    -432.0387   -11498.002   -3439.5633   -6503.0911    -24551.35    15.357725    13.300207     27.68219    5654.3894 
   26500       26.488    326.59389    13.424553   -445.44739   -432.02284    -10896.73   -1971.1843   -4801.6573   -25917.349    15.357727    13.300209    27.682173    5654.3876 
   27000       26.988    318.77909    13.103327   -445.11062   -432.00729   -11233.264   -1778.7163   -5815.1218   -26105.952     15.35773    13.300211    27.682155    5654.3858 
   27500       27.488    302.99243    12.454421   -444.44546   -431.99104   -9455.2436    -609.6288   -3358.4227   -24397.679    15.357732    13.300213    27.682138     5654.384 
   28000       27.988    321.55005    13.217227   -445.19239   -431.97516     -11525.1   -5173.3084   -3415.7744   -25986.217    15.357734    13.300215     27.68212    5654.3822 
   28500       28.488    327.45372    13.459896   -445.41847   -431.95858   -12292.488    -3526.498   -5257.2748    -28093.69    15.357737    13.300217    27.682103    5654.3803 
   29000       28.988    306.92809    12.616195   -444.55789   -431.94169   -10940.252   -1676.6201   -5986.2843    -25157.85    15.357739    13.300219    27.682085    5654.3785 
   29500       29.488    325.59471    13.383482   -445.30898    -431.9255   -10970.907   -2663.5083   -7243.2909   -23005.922    15.357742    13.300221    27.682068    5654.3767 
   30000       29.988    318.50313    13.091984   -445.00023   -431.90825   -12137.039   -825.30586   -6514.9505    -29070.86    15.357744    13.300223     27.68205    5654.3749 
   30500       30.488    325.57092    13.382503   -445.27345   -431.89094    -11209.24   -3345.1635   -5585.0583   -24697.498    15.357746    13.300225    27.682033    5654.3731 
   31000       30.988    317.63171    13.056164   -444.92967   -431.87351   -10605.167   -1992.3981   -5059.4053   -24763.698    15.357749    13.300227    27.682015    5654.3712 
   31500       31.488    319.26795    13.123422   -444.97927   -431.85585   -10352.299   -3952.6008   -5732.1661   -21372.132    15.357751    13.300229    27.681998    5654.3694 
   32000       31.988    330.54603    13.587004   -445.42503   -431.83803   -11285.391   -2299.2314    -3951.653   -27605.288    15.357754    13.300231     27.68198    5654.3676 
   32500       32.488    339.83921    13.968998    -445.7898    -431.8208   -10939.965    -2470.674   -4722.3507   -25626.871    15.357756    13.300233    27.681963    5654.3658 
   33000       32.988    322.58845     13.25991   -445.06203   -431.80212   -11663.533   -2653.9632   -4521.5281   -27815.107    15.357758    13.300235    27.681945     5654.364 
   33500       33.488     319.7082    13.141518   -444.92531   -431.78379   -10384.195    7.2716589   -5804.2531   -25355.602    15.357761    13.300237    27.681928    5654.3621 
   34000       33.988    322.46333    13.254767   -445.02021   -431.76545    -10980.63    -3332.875   -5670.1524   -23938.864    15.357763    13.300239     27.68191    5654.3603 
   34500       34.488    300.74611    12.362086   -444.10853   -431.74644   -10337.969   -1909.0844    -5008.276   -24096.548    15.357766    13.300241    27.681893    5654.3585 
   35000       34.988     312.1027    12.828896   -444.55749    -431.7286   -10416.731    -1007.052   -6501.5271   -23741.613    15.357768    13.300243    27.681875    5654.3567 
   35500       35.488    334.14668    13.735008   -445.44526   -431.71026   -12415.816   -570.32328   -8317.0927   -28360.031     15.35777    13.300246    27.681858    5654.3549 
   36000       35.988    314.51573    12.928083   -444.61882   -431.69074   -9429.2583   -86.337803   -2204.1518   -25997.285    15.357773    13.300248     27.68184    5654.3531 
   36500       36.488    313.06538    12.868467   -444.54083   -431.67237    -11655.45   -2025.9715   -6919.6055   -26020.774    15.357775     13.30025    27.681823    5654.3512 
   37000       36.988    319.81692    13.145987   -444.79964   -431.65365   -11276.124   -3468.5643   -5275.3547   -25084.453    15.357778    13.300252    27.681805    5654.3494 
   37500       37.488    311.86496    12.819124   -444.45344   -431.63431   -10993.549   -3550.8398   -3892.3689   -25537.438     15.35778    13.300254    27.681788    5654.3476 
   38000       37.988    311.31038    12.796328    -444.4117   -431.61537   -10391.911   -390.38799   -6066.1733   -24719.172    15.357782    13.300256     27.68177    5654.3458 
   38500       38.488    330.58264    13.588509   -445.18556   -431.59705    -12108.42   -3392.8892   -4782.9247   -28149.445    15.357785    13.300258    27.681753     5654.344 
   39000       38.988    329.21326    13.532221   -445.10992    -431.5777   -11511.424   -4162.5375   -5759.6411   -24612.092    15.357787     13.30026    27.681735    5654.3421 
   39500       39.488    317.10216    13.034397   -444.59242   -431.55802   -11049.287   -1448.9121   -7202.8531   -24496.096     15.35779    13.300262    27.681718    5654.3403 
   40000       39.988    337.80897    13.885545   -445.42437   -431.53882     -11643.7   -3774.9138   -4467.0093   -26689.175    15.357792    13.300264      27.6817    5654.3385 
   40500       40.488    310.41614     12.75957   -444.27953   -431.51996   -10627.351   -3261.9258   -2886.3021   -25733.824    15.357794    13.300266    27.681683    5654.3367 
   41000       40.988     342.6674     14.08525   -445.58658   -431.50133   -11269.698   -2006.7299   -5286.8959   -26515.468    15.357797    13.300268    27.681665    5654.3349 
   41500       41.488    339.11349    13.939167   -445.42127    -431.4821   -11384.912   -3381.6861   -4068.2988   -26704.752    15.357799     13.30027    27.681648     5654.333 
   42000       41.988    314.80036    12.939783   -444.40245   -431.46267   -11755.726   -2451.1378   -3706.3961   -29109.644    15.357802    13.300272     27.68163    5654.3312 
   42500       42.488    326.52732    13.421816   -444.86567   -431.44385   -11096.915   -3778.6098   -4510.3268    -25001.81    15.357804    13.300274    27.681613    5654.3294 
   43000       42.988    331.57522    13.629309   -445.05418   -431.42488   -11865.063   -3280.0733   -6661.2273   -25653.889    15.357806    13.300276    27.681595    5654.3276 
   43500       43.488    341.30195    14.029123   -445.43506   -431.40593   -11568.779   -1526.4945   -5017.3167   -28162.526    15.357809    13.300278    27.681578    5654.3258 
   44000       43.988    326.12965     13.40547   -444.79263   -431.38716   -11255.212   -3274.6902   -3897.6055    -26593.34    15.357811     13.30028     27.68156    5654.3239 
   44500       44.488    313.61686    12.891135   -444.25934    -431.3682   -10716.625   -2622.1752   -3894.1928   -25633.508    15.357814    13.300282    27.681543    5654.3221 
   45000       44.988    338.60408    13.918228   -445.26811   -431.34988    -11301.44    -2275.801   -5085.4647   -26543.056    15.357816    13.300284    27.681525    5654.3203 
   45500       45.488    317.39749    13.046537    -444.3772   -431.33066   -9811.5424   -1659.3719   -980.66767   -26794.588    15.357818    13.300287    27.681508    5654.3185 
   46000       45.988    321.43106    13.212336   -444.52452   -431.31218   -10272.381   -1291.3977   -6388.2939   -23137.452    15.357821    13.300289     27.68149    5654.3167 
   46500       46.488    330.56686     13.58786   -444.88184   -431.29398   -12399.447   -3319.2139   -5391.0152   -28488.111    15.357823    13.300291    27.681473    5654.3148 
   47000       46.988    322.48994    13.255861   -444.53087   -431.27501    -11103.51   -3133.2888   -4211.7776   -25965.465    15.357826    13.300293    27.681455     5654.313 
   47500       47.488    325.46846    13.378292   -444.63495   -431.25666   -11452.124   -2447.2509   -2789.9188   -29119.202    15.357828    13.300295    27.681438    5654.3112 
   48000       47.988    321.64199    13.221006   -444.45919   -431.23818   -10383.501   -765.99979   -7979.3597   -22405.145     15.35783    13.300297     27.68142    5654.3094 
   48500       48.488    335.38121    13.785753   -445.00604   -431.22029   -10521.009   -1655.2581   -6100.6044   -23807.164    15.357833    13.300299    27.681403    5654.3076 
   49000       48.988    338.45528    13.912112   -445.11411   -431.20199   -11105.644   -1245.2044   -5629.4971    -26442.23    15.357835    13.300301    27.681385    5654.3057 
   49500       49.488    311.73849    12.813925   -443.99745   -431.18352   -10582.871   -1324.5362   -5677.3803   -24746.695    15.357838    13.300303    27.681368    5654.3039 
   50000       49.988    317.79617    13.062925   -444.22884   -431.16592   -11652.088   -3253.6252   -4317.7654   -27384.872     15.35784    13.300305     27.68135    5654.3021 
   50500       50.488    339.11801    13.939353   -445.08796   -431.14861    -10331.26   -1673.3055   -5785.0142   -23535.459    15.357842    13.300307    27.681333    5654.3003 
   51000       50.988     325.5276    13.380723   -444.51122   -431.13049   -10660.246   -1127.6556   -3934.1854   -26918.896    15.357845    13.300309    27.681315    5654.2985 
   51500       51.488    346.78573    14.254533   -445.36758   -431.11305   -11165.705   -2485.8051   -3036.5232   -27974.785    15.357847    13.300311    27.681298    5654.2966 
   52000       51.988     308.1736    12.667391   -443.76231   -431.09492   -10282.795   -1651.5997   -5177.5691   -24019.216     15.35785    13.300313     27.68128    5654.2948 
   52500       52.488    313.61396    12.891016   -443.96848   -431.07747   -9803.7027   -1741.0354   -3037.9316   -24632.141    15.357852    13.300315    27.681263     5654.293 
   53000       52.988    324.66729     13.34536   -444.40556    -431.0602   -10682.603   -1208.9778    -3752.907   -27085.924    15.357854    13.300317    27.681245    5654.2912 
   53500       53.488    311.88498    12.819947   -443.86288   -431.04294   -11938.523   -2830.3231   -4603.2808   -28381.964    15.357857    13.300319    27.681228    5654.2894 
   54000       53.988    342.14279    14.063686   -445.09029    -431.0266   -11378.563     -2969.77   -6262.9473   -24902.972    15.357859    13.300321     27.68121    5654.2875 
   54500       54.488    308.36177    12.675126   -443.68394   -431.00882   -10055.502   -74.956153   -4226.5277   -25865.021    15.357862    13.300323    27.681193    5654.2857 
   55000       54.988    316.27494    13.000395   -443.99233   -430.99194   -9752.6951   -1136.4961    -5693.781   -22427.808    15.357864    13.300325    27.681175    5654.2839 
   55500       55.488    325.71636    13.388482   -444.36385   -430.97537   -10562.242   -2240.8567   -3847.4754   -25598.395    15.357866    13.300328    27.681158    5654.2821 
   56000       55.988      340.984    14.016054   -444.97497   -430.95892   -10728.452   -1522.8824    -5558.647   -25103.826    15.357869     13.30033     27.68114    5654.2803 
   56500       56.488    329.10658    13.527836   -444.46955   -430.94171   -11375.315    -917.9784   -6012.7203   -27195.247    15.357871    13.300332    27.681123    5654.2785 
   57000       56.988    349.81228    14.378938   -445.30428   -430.92534   -12054.574   -2948.2099   -4466.1995   -28749.314    15.357874    13.300334    27.681105    5654.2766 
   57500       57.488    345.92534    14.219166   -445.12831   -430.90915   -11483.358   -2486.4058   -6315.9598   -25647.708    15.357876    13.300336    27.681088    5654.2748 
   58000       57.988    323.90569    13.314055   -444.20643   -430.89238   -9288.5725   -1803.7965   -4633.3975   -21428.524    15.357878    13.300338     27.68107     5654.273 
   58500       58.488    333.33038    13.701454   -444.57771   -430.87626   -11356.816   -3360.9161   -5365.1881   -25344.344    15.357881     13.30034    27.681053    5654.2712 
   59000       58.988    339.91084    13.971942   -444.83181   -430.85987   -11292.323   -2825.3899   -5722.8791     -25328.7    15.357883    13.300342    27.681035    5654.2694 
   59500       59.488    322.70386    13.264654   -444.10824   -430.84359   -10322.496    -650.1317   -5366.0447   -24951.313    15.357886    13.300344    27.681018    5654.2675 
   60000       59.988    331.75599    13.636739    -444.4639   -430.82716   -10198.749   -1654.2845   -4091.1907   -24850.772    15.357888    13.300346       27.681    5654.2657 
   60500       60.488    323.10398      13.2811   -444.09234   -430.81124   -10832.468    -2898.457   -4829.0365    -24769.91     15.35789    13.300348    27.680983    5654.2639 
   61000       60.988    346.11235    14.226853   -445.02181   -430.79495   -10716.335   -3075.8898   -5086.9233   -23986.192    15.357893     13.30035    27.680965    5654.2621 
   61500       61.488    337.58491    13.876335   -444.65586   -430.77953   -10809.259   -802.38626   -5185.1214   -26440.269    15.357895    13.300352    27.680948    5654.2603 
   62000       61.988    325.47783    13.378677   -444.14189   -430.76321   -10102.269   -1153.6007   -4983.5317   -24169.675    15.357898    13.300354     27.68093    5654.2584 
   62500       62.488    358.35333    14.730015   -445.47727   -430.74726    -10932.16   -2177.0314   -5815.0633   -24804.385      15.3579    13.300356    27.680913    5654.2566 
   63000       62.988     319.8918    13.149065   -443.88029   -430.73123   -10335.681   -2238.7406   -1564.9608   -27203.341    15.357902    13.300358    27.680895    5654.2548 
   63500       63.488    352.87177    14.504698   -445.22065   -430.71595   -10941.803   -2149.1446   -5010.5667   -25665.699    15.357905     13.30036    27.680878     5654.253 
   64000       63.988    342.25165     14.06816   -444.76772   -430.69956    -10147.81   -273.68749   -6317.6801   -23852.064    15.357907    13.300362     27.68086    5654.2512 
   64500       64.488    338.81704    13.926982   -444.61028    -430.6833   -11451.355   -3972.9093   -5590.2946   -24790.861     15.35791    13.300364    27.680843    5654.2493 
   65000       64.988     344.3068    14.152637   -444.82078   -430.66814    -10937.59    -982.5664   -4944.3538   -26885.849    15.357912    13.300366    27.680825    5654.2475 
   65500       65.488    329.42157    13.540783   -444.19254   -430.65176   -10292.225   -1744.6232   -4970.6626   -24161.388    15.357914    13.300369    27.680808    5654.2457 
   66000       65.988    347.79976    14.296214   -444.93295   -430.63673   -10473.679   -177.28869   -5616.6561   -25627.092    15.357917    13.300371     27.68079    5654.2439 
   66500       66.488    347.06486    14.266006   -444.88643   -430.62043   -11109.658   -1540.7817   -5513.3203   -26274.871    15.357919    13.300373    27.680773    5654.2421 
   67000       66.988    348.79883     14.33728   -444.94236   -430.60508   -9989.9012   -2075.1973   -2797.6739   -25096.832    15.357922    13.300375    27.680755    5654.2402 
   67500       67.488    349.11165    14.350139   -444.93885   -430.58871   -10885.464   -3216.5923   -7495.4362   -21944.365    15.357924    13.300377    27.680738    5654.2384 
   68000       67.988    328.94926    13.521369   -444.09435   -430.57298   -9575.2882   -834.30887   -3000.8398   -24890.716    15.357926    13.300379     27.68072    5654.2366 
   68500       68.488    331.77427    13.637491   -444.19464   -430.55715   -11275.364   -5150.8203   -3284.5595   -25390.713    15.357929    13.300381    27.680703    5654.2348 
   69000       68.988    325.88911    13.395583   -443.93726   -430.54167   -10321.663   -1415.9389   -4235.9697   -25313.079    15.357931    13.300383    27.680685     5654.233 
   69500       69.488    332.44998    13.665266   -444.19109   -430.52582   -10568.101   -2467.6633   -3673.0699   -25563.571    15.357934    13.300385    27.680668    5654.2311 
   70000       69.988    335.07031    13.772973   -444.28299   -430.51002   -11441.618   -2691.1312   -4045.7351   -27587.987    15.357936    13.300387     27.68065    5654.2293 
   70500       70.488    341.33636    14.030538   -444.52508   -430.49454   -10339.071   -2002.3799   -3333.1613   -25681.673    15.357938    13.300389    27.680633    5654.2275 
   71000       70.988    342.66238    14.085043   -444.56357   -430.47853   -11407.091   -4118.9534   -4853.9705    -25248.35    15.357941    13.300391    27.680615    5654.2257 
   71500       71.488     321.2088      13.2032   -443.66547   -430.46227   -10173.606    430.83646   -4888.7218   -26062.933    15.357943    13.300393    27.680598    5654.2239 
   72000       71.988    349.66323    14.372811   -444.81987   -430.44706    -11461.06   -3159.5669   -5939.0967   -25284.516    15.357946    13.300395     27.68058     5654.222 
   72500       72.488    313.78935    12.898225   -443.32869   -430.43046   -10756.545   -3118.4535   -4616.9301   -24534.252    15.357948    13.300397    27.680563    5654.2202 
   73000       72.988    332.12935    13.652086   -444.06724   -430.41515   -9840.7689   -351.34443   -5984.6619   -23186.301     15.35795    13.300399    27.680545    5654.2184 
   73500       73.488    342.31827    14.070899   -444.47038   -430.39948   -10665.247   -1815.9682   -5810.8401   -24368.932    15.357953    13.300401    27.680528    5654.2166 
   74000       73.988    337.90472    13.889481   -444.27313   -430.38365   -11185.264   -4014.9419   -3191.9165   -26348.934    15.357955    13.300403     27.68051    5654.2148 
   74500       74.488    323.47196    13.296226   -443.66335   -430.36712   -10802.864   -4123.3733   -2262.9616   -26022.257    15.357958    13.300405    27.680493    5654.2129 
   75000       74.988     342.2353    14.067488   -444.41839   -430.35091   -9520.9555   -1304.7746   -569.25583   -26688.836     15.35796    13.300407    27.680475    5654.2111 
   75500       75.488    346.55776    14.245162   -444.58052   -430.33536   -10788.614   -505.39775   -5024.2883   -26836.155    15.357962     13.30041    27.680458    5654.2093 
   76000       75.988    328.52902    13.504095   -443.82249   -430.31839   -10285.171    -2528.116   -5045.3554    -23282.04    15.357965    13.300412     27.68044    5654.2075 
   76500       76.488     332.2552    13.657259   -443.95948   -430.30222   -10260.007   -1977.4165   -4801.4703   -24001.133    15.357967    13.300414    27.680423    5654.2057 
   77000       76.988    349.98503    14.386039   -444.67208   -430.28604   -10872.663    328.55572   -7184.8264   -25761.717     15.35797    13.300416    27.680405    5654.2039 
   77500       77.488    347.41935    14.280577   -444.55049   -430.26992   -10132.585   -2023.4341   -2235.4236   -26138.897    15.357972    13.300418    27.680388     5654.202 
   78000       77.988    339.10246    13.938714   -444.19216   -430.25344   -9894.5048   -1334.3446   -2797.6735   -25551.496    15.357974     13.30042     27.68037    5654.2002 
   78500       78.488    344.77121    14.171726   -444.40828   -430.23655   -10523.345   -569.61597   -4194.7935   -26805.625    15.357977    13.300422    27.680353    5654.1984 
   79000       78.988    342.37257    14.073131   -444.29332   -430.22019   -10314.781   -1943.8272   -3607.4778   -25393.039    15.357979    13.300424    27.680335    5654.1966 
   79500       79.488    365.42956    15.020882   -445.22464   -430.20375   -11699.628    -3183.495   -5913.5789   -26001.809    15.357982    13.300426    27.680318    5654.1948 
   80000       79.988    341.66876    14.044201   -444.23109   -430.18689   -10662.388   -3532.4953   -5160.5739   -23294.095    15.357984    13.300428      27.6803    5654.1929 
   80500       80.488    345.33034    14.194709   -444.36502   -430.17031   -11887.545   -4408.7199   -2883.4396   -28370.475    15.357986     13.30043    27.680283    5654.1911 
   81000       80.988    339.37303    13.949835   -444.10272   -430.15289    -9321.327   -2632.8988   -2181.1931   -23149.889    15.357989    13.300432    27.680265    5654.1893 
   81500       81.488    348.73539    14.334673    -444.4708   -430.13613   -9440.3173   -2080.1365    -4126.157   -22114.658    15.357991    13.300434    27.680248    5654.1875 
   82000       81.988    327.14758    13.447312   -443.56623   -430.11891    -9114.881   -1445.9931   -2955.9773   -22942.673    15.357994    13.300436     27.68023    5654.1857 
   82500       82.488    336.17037    13.818191   -443.92033   -430.10214   -10417.507   -1316.8243   -4337.6815   -25598.015    15.357996    13.300438    27.680213    5654.1838 
   83000       82.988    339.19959    13.942706   -444.02794   -430.08524   -9816.8132     118.1017   -1995.5441   -27572.997    15.357998     13.30044    27.680195     5654.182 
   83500       83.488    347.49484     14.28368   -444.35173   -430.06805   -10413.809    -1882.819   -1953.1516   -27405.457    15.358001    13.300442    27.680178    5654.1802 
   84000       83.988    355.17466    14.599357   -444.65035   -430.05099   -11056.454   -2945.2118   -4487.0641   -25737.086    15.358003    13.300444     27.68016    5654.1784 
   84500       84.488    357.82047    14.708113   -444.74167   -430.03356   -10196.321   -482.39709   -4361.6964   -25744.869    15.358006    13.300446    27.680143    5654.1766 
   85000       84.988    332.18004     13.65417   -443.66987    -430.0157   -10378.102   -1319.4432   -5941.1583   -23873.704    15.358008    13.300448    27.680125    5654.1747 
   85500       85.488    346.01531    14.222865   -444.22066   -429.99779   -10782.964   -2621.7021   -4777.1765   -24950.014     15.35801    13.300451    27.680108    5654.1729 
   86000       85.988    352.63678    14.495038   -444.47572   -429.98068   -10657.955     147.9871   -6341.4476   -25780.404    15.358013    13.300453     27.68009    5654.1711 
   86500       86.488    346.16887    14.229176   -444.19198    -429.9628   -10387.772   -1533.8938   -5652.2285   -23977.194    15.358015    13.300455    27.680073    5654.1693 
   87000       86.988    358.23228     14.72504   -444.67039   -429.94535   -9734.8409   -1457.5288   -3638.5737    -24108.42    15.358018    13.300457    27.680055    5654.1675 
   87500       87.488    341.56523    14.039945   -443.96726   -429.92731   -9973.5382   -4224.8185   -3220.0722   -22475.724     15.35802    13.300459    27.680038    5654.1656 
   88000       87.988     354.0413    14.552771   -444.46244   -429.90967   -11038.083   -5887.8486   -4731.7827   -22494.617    15.358022    13.300461     27.68002    5654.1638 
   88500       88.488    363.37173    14.936295   -444.82746   -429.89116   -10825.956   -3340.4605   -3780.0228   -25357.384    15.358025    13.300463    27.680003     5654.162 
   89000       88.988    344.16765    14.146917   -444.02005   -429.87313   -9705.0137   -2737.7067   -3445.6727   -22931.662    15.358027    13.300465    27.679985    5654.1602 
   89500       89.488    347.23774    14.273112   -444.12799   -429.85488   -10800.217   -1109.6563   -6037.1388   -25253.857     15.35803    13.300467    27.679968    5654.1584 
   90000       89.988      359.433    14.774395   -444.61076   -429.83637   -10188.124   -2172.3833   -4912.8962   -23479.092    15.358032    13.300469     27.67995    5654.1565 
   90500       90.488    354.76944    14.582701   -444.40068   -429.81798   -10080.549   -2693.1103   -3741.7298   -23806.807    15.358034    13.300471    27.679933    5654.1547 
   91000       90.988    351.99948    14.468842    -444.2686   -429.79976   -9921.6718    1093.3451   -5724.7057   -25133.655    15.358037    13.300473    27.679915    5654.1529 
   91500       91.488    343.36129    14.113772   -443.89443   -429.78066   -9900.4541   -1372.4859   -3676.9987   -24651.878    15.358039    13.300475    27.679898    5654.1511 
   92000       91.988    344.86222    14.175467   -443.93712   -429.76165   -10988.097   -2385.5643   -4351.6396   -26227.088    15.358042    13.300477     27.67988    5654.1493 
   92500       92.488    345.06145    14.183656   -443.92607   -429.74242   -10036.816   -3608.9183   -5011.0651   -21490.465    15.358044    13.300479    27.679863    5654.1474 
   93000       92.988    336.99875    13.852241   -443.57546   -429.72321    -9436.983   -3150.9772   -1154.8104   -24005.161    15.358046    13.300481    27.679845    5654.1456 
   93500       93.488    354.12419    14.556178   -444.26081   -429.70464    -11032.49    -2519.127   -4477.1729   -26101.169    15.358049    13.300483    27.679828    5654.1438 
   94000       93.988    350.70669    14.415702   -444.10161   -429.68591   -10334.852   -3159.8947   -3500.3525    -24344.31    15.358051    13.300485     27.67981     5654.142 
   94500       94.488    349.93441    14.383958   -444.05044   -429.66648   -9037.7832     1185.537    -3379.206   -24919.681    15.358054    13.300487    27.679793    5654.1402 
   95000       94.988    336.71127    13.840424   -443.48773   -429.64731   -10858.465    -2976.988   -5996.3063   -23602.102    15.358056    13.300489    27.679775    5654.1383 
   95500       95.488    355.23383    14.601789   -444.22982   -429.62803    -9985.217   -1554.7999   -6140.0022   -22260.849    15.358058    13.300492    27.679758    5654.1365 
   96000       95.988    376.08638    15.458928   -445.06822   -429.60929   -11397.686   -1255.1242   -4061.7427   -28876.192    15.358061    13.300494     27.67974    5654.1347 
   96500       96.488    369.37159    15.182918   -444.77295   -429.59003   -10131.337   -442.93657    -2562.389   -27388.687    15.358063    13.300496    27.679723    5654.1329 
   97000       96.988    353.91848    14.547722   -444.11752    -429.5698   -8980.8767   -3.3591371   -5765.1896   -21174.081    15.358066    13.300498    27.679705    5654.1311 
   97500       97.488    340.51156    13.996634   -443.54687   -429.55023   -9423.8465   -2742.5166   -756.68318    -24772.34    15.358068      13.3005    27.679688    5654.1292 
   98000       97.988    340.53634    13.997653   -443.52801   -429.53036   -10431.445   -2283.2972   -6.7641797   -29004.272     15.35807    13.300502     27.67967    5654.1274 
   98500       98.488    359.20077    14.764849   -444.27559   -429.51074   -10266.277   -1205.6311   -2351.3443   -27241.855    15.358073    13.300504    27.679653    5654.1256 
   99000       98.988    365.63964    15.029517   -444.52058   -429.49106   -11230.178    -1381.131   -3953.7209   -28355.684    15.358075    13.300506    27.679635    5654.1238 
   99500       99.488    356.66189    14.660489   -444.13153   -429.47104   -10385.314   -3281.5257   -3379.5864    -24494.83    15.358078    13.300508    27.679618     5654.122 
  100000       99.988    347.59122    14.287642   -443.73845    -429.4508   -10549.959   -1966.9224   -5369.2418   -24313.713     15.35808     13.30051      27.6796    5654.1201 
  100500      100.488    368.63478    15.152632   -444.58394    -429.4313   -10514.702   -3415.2867   -2608.8909   -25519.929    15.358082    13.300512    27.679583    5654.1183 
  101000      100.988    371.99132    15.290601   -444.70172   -429.41112    -10543.82   -2615.7232   -5445.5658   -23570.172    15.358085    13.300514    27.679565    5654.1165 
  101500      101.488    320.44419    13.171771   -442.56142   -429.38964   -10559.118   -2766.6594   -2406.3283   -26504.366    15.358087    13.300516    27.679548    5654.1147 
  102000      101.988    351.10076    14.431901   -443.80204   -429.37014   -10423.261    275.35687   -3393.7158   -28151.425     15.35809    13.300518     27.67953    5654.1129 
  102500      102.488    363.14344    14.926911   -444.27668   -429.34976   -10881.623   -1838.9737   -5366.4848   -25439.411    15.358092     13.30052    27.679513     5654.111 
  103000      102.988    371.10209     15.25405   -444.58299   -429.32894    -9959.847   -820.10119   -4590.1837   -24469.256    15.358094    13.300522    27.679495    5654.1092 
  103500      103.488    341.57171    14.040211   -443.34833   -429.30812   -8259.0768   -2127.6264   -1921.1356   -20728.468    15.358097    13.300524    27.679478    5654.1074 
  104000      103.988    341.12032    14.021657   -443.30869   -429.28703   -10202.924   -1493.4426   -4309.1708   -24806.158    15.358099    13.300526     27.67946    5654.1056 
  104500      104.488    342.90309    14.094938   -443.36119   -429.26625   -10977.656   -4343.9157   -6325.7509   -22263.301    15.358102    13.300528    27.679443    5654.1038 
  105000      104.988    359.07693    14.759759   -444.00561   -429.24585   -10293.028   -370.64614   -5308.5831   -25199.855    15.358104     13.30053    27.679425    5654.1019 
  105500      105.488    341.92079     14.05456   -443.27928   -429.22472   -9602.0824   -1928.0546   -2066.4733   -24811.719    15.358106    13.300533    27.679408    5654.1001 
  106000      105.988    338.80677     13.92656   -443.13005   -429.20349   -9827.7397   -1106.1627   -3763.2281   -24613.828    15.358109    13.300535     27.67939    5654.0983 
  106500      106.488    351.90121    14.464803   -443.64724   -429.18243   -9053.9978    -984.6292   -3081.1147    -23096.25    15.358111    13.300537    27.679373    5654.0965 
  107000      106.988    352.27543    14.480185   -443.64174   -429.16156    -9294.037    -1201.238   -2180.0435   -24500.829    15.358114    13.300539    27.679355    5654.0947 
  107500      107.488    369.45509     15.18635   -444.32694   -429.14059   -9904.8359    -1680.663   -5159.9679   -22873.877    15.358116    13.300541    27.679338    5654.0929 
  108000      107.988    363.31467     14.93395   -444.05329   -429.11934   -10152.088   -1028.7108   -4592.9394   -24834.614    15.358118    13.300543     27.67932     5654.091 
  108500      108.488    358.38898    14.731481   -443.82908    -429.0976   -9501.4245   -2125.6077   -3641.0775   -22737.588    15.358121    13.300545    27.679303    5654.0892 
  109000      108.988    361.64709    14.865405   -443.94173   -429.07632   -9783.1537   -2530.9708   -2655.7828   -24162.708    15.358123    13.300547    27.679285    5654.0874 
  109500      109.488    349.51808    14.366845   -443.42192   -429.05507   -10687.461   -5.8885121   -4768.0197   -27288.476    15.358126    13.300549    27.679268    5654.0856 
  110000      109.988    373.44275    15.350262   -444.38369   -429.03343   -9805.6577    20.116906   -4684.1719   -24752.918    15.358128    13.300551     27.67925    5654.0838 
  110500      110.488    351.44371    14.445997   -443.45771   -429.01171    -8791.675   -639.48092    -4928.632   -20806.912     15.35813    13.300553    27.679233    5654.0819 
  111000      110.988    368.06833    15.129348   -444.11954    -428.9902   -9325.2581   -725.07608   -3852.5753   -23398.123    15.358133    13.300555    27.679215    5654.0801 
  111500      111.488    367.82154    15.119203   -444.08788   -428.96868   -9600.7482    -904.1369   -3486.4406   -24411.667    15.358135    13.300557    27.679198    5654.0783 
  112000      111.988    352.19512    14.476884   -443.42316   -428.94628   -8919.1528   -74.210702   -2801.8455   -23881.402    15.358138    13.300559     27.67918    5654.0765 
  112500      112.488     343.8732    14.134814   -443.05903   -428.92422   -10762.377   -2578.3232   -2103.4032   -27605.404     15.35814    13.300561    27.679163    5654.0747 
  113000      112.988    378.18118    15.545034    -444.4477   -428.90267   -9535.7369    436.49592   -6384.9127   -22658.794    15.358142    13.300563    27.679145    5654.0728 
  113500      113.488    359.24306    14.766588   -443.64695   -428.88036   -10017.247   -916.70715   -4377.9146   -24757.118    15.358145    13.300565    27.679128     5654.071 
  114000      113.988    355.22895    14.601589   -443.45948   -428.85789   -10420.912   -3823.1072   -5513.6292   -21926.001    15.358147    13.300567     27.67911    5654.0692 
  114500      114.488    374.40185    15.389686   -444.22561   -428.83592    -9977.591   -2040.4615   -3619.9698   -24272.342     15.35815    13.300569    27.679093    5654.0674 
  115000      114.988    350.79944    14.419515   -443.23348   -428.81397   -8843.6405    717.74663   -5167.1149   -22081.553    15.358152    13.300571    27.679075    5654.0656 
  115500      115.488    337.19478    13.860299    -442.6519    -428.7916   -8041.6531    178.33607   -1510.5642   -22792.731    15.358154    13.300574    27.679058    5654.0637 
  116000      115.988    351.69871    14.456479   -443.22606   -428.76958   -9149.1407   -1016.9123   -3936.8352   -22493.675    15.358157    13.300576     27.67904    5654.0619 
  116500      116.488     355.1284    14.597456   -443.34448   -428.74702    -10536.56    -2055.283   -3055.8321   -26498.565    15.358159    13.300578    27.679023    5654.0601 
  117000      116.988    357.03524    14.675836   -443.40072   -428.72488   -10039.864   -2422.2422   -4515.1939   -23182.155    15.358162     13.30058    27.679005    5654.0583 
  117500      117.488    361.80422    14.871863   -443.57459   -428.70272    -9039.588   -1487.1993   -3453.9147    -22177.65    15.358164    13.300582    27.678988    5654.0565 
  118000      117.988    356.70642     14.66232   -443.34269   -428.68037   -10011.221   -2881.0495   -2180.4571   -24972.156    15.358166    13.300584     27.67897    5654.0546 
  118500      118.488    376.88704    15.491839    -444.1499   -428.65807   -9951.1385    -1475.032   -4523.6382   -23854.745    15.358169    13.300586    27.678953    5654.0528 
  119000      118.988    345.70643    14.210168   -442.84517     -428.635   -9772.5229   -1157.2702   -3124.8965   -25035.402    15.358171    13.300588    27.678935     5654.051 
  119500      119.488    341.64421    14.043192   -442.65519     -428.612   -9768.4551   -2514.2164   -2753.8761   -24037.273    15.358174     13.30059    27.678918    5654.0492 
  120000      119.988    359.27865     14.76805   -443.35842   -428.59037   -9618.4732   -2624.2485   -2877.2546   -23353.916    15.358176    13.300592      27.6789    5654.0474 
  120500      120.488    342.74715    14.088528   -442.65573   -428.56721   -9707.5948   -2411.6354   -1499.9974   -25211.152    15.358178    13.300594    27.678883    5654.0455 
  121000      120.988     356.5613    14.656355    -443.2012   -428.54485   -9740.2193   -1729.5605   -437.42171   -27053.676    15.358181    13.300596    27.678865    5654.0437 
  121500      121.488    360.13917    14.803422   -443.32531   -428.52189   -9562.8234   -216.98276   -3629.1917   -24842.296    15.358183    13.300598    27.678848    5654.0419 
  122000      121.988    360.49627      14.8181   -443.31764   -428.49954   -9651.9321    785.94658    -7271.569   -22470.174    15.358186      13.3006     27.67883    5654.0401 
  122500      122.488    375.99711    15.455258   -443.93199   -428.47673   -10187.112   -3892.5021   -4247.8727   -22420.962    15.358188    13.300602    27.678813    5654.0383 
  123000      122.988    367.90763    15.122742   -443.57646   -428.45372   -10330.131   -515.65747   -6280.6215   -24194.114     15.35819    13.300604    27.678795    5654.0364 
  123500      123.488    375.08737    15.417864   -443.84883   -428.43097   -8917.3668   -73.662482   -3796.5279    -22881.91    15.358193    13.300606    27.678778    5654.0346 
  124000      123.988    362.45118    14.898456   -443.30647   -428.40801   -9835.3624   -692.06481   -4260.0503   -24553.972    15.358195    13.300608     27.67876    5654.0328 
  124500      124.488    362.31061    14.892678   -443.27742   -428.38474   -8872.7785   -1324.1462   -1137.1824   -24157.007    15.358198     13.30061    27.678743     5654.031 
  125000      124.988    380.06547    15.622487   -443.98514   -428.36265    -9905.637   -971.79443   -3968.0653   -24777.051      15.3582    13.300612    27.678725    5654.0292 
  125500      125.488    367.15815    15.091935   -443.43167   -428.33974   -10336.081   -3135.2878   -3942.1343   -23930.821    15.358202    13.300615    27.678708    5654.0273 
  126000      125.988    379.54115    15.600935    -443.9179   -428.31697   -9438.4083   -1128.8891   -6227.9297   -20958.406    15.358205    13.300617     27.67869    5654.0255 
  126500      126.488    359.97628    14.796727   -443.09013   -428.29341   -9527.5138   -1120.3356   -2453.1193   -25009.087    15.358207    13.300619    27.678673    5654.0237 
  127000      126.988    344.35288    14.154531   -442.42531   -428.27078     -9622.38   -1544.8042   -4871.9865   -22450.349     15.35821    13.300621    27.678655    5654.0219 
  127500      127.488    361.58421     14.86282    -443.1108   -428.24798   -9010.7757    320.89408   -2414.1893   -24939.032    15.358212    13.300623    27.678638    5654.0201 
  128000      127.988    374.61255    15.398346   -443.62301   -428.22466   -10231.778   -2600.2569   -3217.2142   -24877.864    15.358214    13.300625     27.67862    5654.0182 
  128500      128.488    360.84618    14.832484   -443.03394   -428.20145    -8611.531   -1146.6385   -360.15444     -24327.8    15.358217    13.300627    27.678603    5654.0164 
  129000      128.988    348.61514     14.32973   -442.50753    -428.1778   -9106.5016   -841.14267    -689.8055   -25788.557    15.358219    13.300629    27.678585    5654.0146 
  129500      129.488     376.4748    15.474893   -443.62999    -428.1551   -9802.6008   -1427.9202   -2513.7381   -25466.144    15.358222    13.300631    27.678568    5654.0128 
  130000      129.988    369.30747    15.180282   -443.31229   -428.13201    -10520.07   -1910.9001   -4145.3887   -25503.921    15.358224    13.300633     27.67855     5654.011 
  130500      130.488    377.26573    15.507405   -443.61583   -428.10842   -8961.2417   -1532.5843   -4572.2671   -20778.874    15.358226    13.300635    27.678533    5654.0091 
  131000      130.988    373.77527     15.36393    -443.4492   -428.08527   -9022.7999    2.4660742   -4245.1082   -22825.758    15.358229    13.300637    27.678515    5654.0073 
  131500      131.488     364.9995    15.003204   -443.06508   -428.06187   -9714.3146   -1327.5047   -4966.2369   -22849.202    15.358231    13.300639    27.678498    5654.0055 
  132000      131.988    383.99892    15.784171   -443.82309   -428.03892   -9260.4249   -1451.0488   -632.20893   -25698.017    15.358234    13.300641     27.67848    5654.0037 
  132500      132.488    352.57246    14.492395   -442.50712   -428.01473   -9170.1028   -2805.9476   -1881.7118   -22822.649    15.358236    13.300643    27.678463    5654.0019 
  133000      132.988    371.84823     15.28472   -443.27656   -427.99184   -9992.2405   -2412.5697   -1742.8825   -25821.269    15.358238    13.300645    27.678445         5654 
  133500      133.488    370.50083    15.229335   -443.19719   -427.96785   -8399.5714   -146.86975   -5266.7032   -19785.141    15.358241    13.300647    27.678428    5653.9982 
  134000      133.988    354.98975    14.591756   -442.53581   -427.94405   -8565.8428    -1911.629   -3130.7403   -20655.159    15.358243    13.300649     27.67841    5653.9964 
  134500      134.488    366.94577    15.083206   -443.00423   -427.92102   -8414.3127   -1885.5569   -1036.7736   -22320.608    15.358246    13.300651    27.678393    5653.9946 
  135000      134.988    354.04655    14.552986   -442.45012   -427.89713   -9815.9791   -414.59996   -1287.9597   -27745.378    15.358248    13.300653    27.678375    5653.9928 
  135500      135.488    376.06931    15.458226   -443.33215   -427.87393   -9581.8434   -1464.7556   -4283.8886   -22996.886     15.35825    13.300656    27.678358    5653.9909 
  136000      135.988    357.23351    14.683985   -442.53409   -427.85011   -8015.5452    1143.7334   -4052.2598   -21138.109    15.358253    13.300658     27.67834    5653.9891 
  136500      136.488    386.81834    15.900062   -443.72689   -427.82683   -8872.8124    108.15827   -3212.8851    -23513.71    15.358255     13.30066    27.678323    5653.9873 
  137000      136.988    363.16821     14.92793    -442.7307   -427.80277   -8902.4313   -425.27253   -3111.0014    -23171.02    15.358258    13.300662    27.678305    5653.9855 
  137500      137.488    367.39687    15.101748   -442.88106   -427.77931   -10349.785   -2350.4002   -2669.8393   -26029.116     15.35826    13.300664    27.678288    5653.9837 
  138000      137.988    371.39655    15.266154   -443.02202   -427.75587   -9261.6193   -421.87749   -3626.2354   -23736.745    15.358262    13.300666     27.67827    5653.9818 
  138500      138.488    381.91619     15.69856   -443.43106    -427.7325   -9334.7498    27.050457   -3220.6037   -24810.696    15.358265    13.300668    27.678253      5653.98 
  139000      138.988    389.77938    16.021775   -443.73037   -427.70859   -9207.6983    79.947965   -3797.5959   -23905.447    15.358267     13.30067    27.678235    5653.9782 
  139500      139.488    396.61522     16.30276   -443.98762   -427.68486    -10117.18   -2005.1559   -3896.3846       -24450     15.35827    13.300672    27.678218    5653.9764 
  140000      139.988    382.77069    15.733685   -443.39434   -427.66066    -9360.568     1580.041   -6213.8959   -23447.849    15.358272    13.300674      27.6782    5653.9746 
  140500      140.488    383.29694    15.755316   -443.39286   -427.63754   -10022.194    -1892.858   -1889.5193   -26284.203    15.358274    13.300676    27.678183    5653.9727 
  141000      140.988    360.71877    14.827246   -442.44015    -427.6129   -9136.0412    1213.8378   -5436.2512    -23185.71    15.358277    13.300678    27.678165    5653.9709 
  141500      141.488    375.52435    15.435825   -443.02494   -427.58912   -9301.1797    407.16359   -4937.3265   -23373.376    15.358279     13.30068    27.678148    5653.9691 
  142000      141.988     388.7803    15.980708   -443.54642   -427.56572    -10118.47   -1863.5571    -2479.776   -26012.078    15.358282    13.300682     27.67813    5653.9673 
  142500      142.488    395.36314    16.251293   -443.79317   -427.54188   -9496.0463   -2237.5908   -1107.2563   -25143.292    15.358284    13.300684    27.678113    5653.9655 
  143000      142.988    383.55649    15.765984   -443.28335   -427.51736   -8890.2556    2550.3025   -2309.9028   -26911.167    15.358286    13.300686    27.678095    5653.9636 
  143500      143.488    383.62348    15.768738   -443.26233   -427.49359   -8968.5049    871.50447   -4349.4145   -23427.605    15.358289    13.300688    27.678078    5653.9618 
  144000      143.988    369.01743    15.168361   -442.63769   -427.46933    -8563.701     33.10251   -2620.7758    -23103.43    15.358291     13.30069     27.67806      5653.96 
  144500      144.488    363.33463     14.93477   -442.38008   -427.44531   -9342.8523   -1136.0233   -1497.0381   -25395.496    15.358294    13.300692    27.678043    5653.9582 
  145000      144.988    389.46793    16.008973   -443.43046   -427.42148    -9172.343   -661.12633    -1260.749   -25595.154    15.358296    13.300694    27.678025    5653.9564 
  145500      145.488    396.25205    16.287832    -443.6852   -427.39736   -9538.0011    534.36991   -2770.6258   -26377.747    15.358298    13.300697    27.678008    5653.9545 
  146000      145.988    383.08862    15.746753   -443.11941   -427.37266   -9149.1248   -411.20565   -449.22604   -26586.943    15.358301    13.300699     27.67799    5653.9527 
  146500      146.488    384.86849    15.819914    -443.1683   -427.34839   -9941.4928    -4672.437   -2732.6387   -22419.403    15.358303    13.300701    27.677973    5653.9509 
  147000      146.988    389.57409    16.013336   -443.33758   -427.32425   -8512.5949   -88.599481   -1305.4115   -24143.774    15.358306    13.300703    27.677955    5653.9491 
  147500      147.488    387.56241    15.930647    -443.2304   -427.29975   -9492.4435   -2419.7729   -2318.8724   -23738.685    15.358308    13.300705    27.677938    5653.9473 
  148000      147.988    411.94049    16.932701   -444.20845   -427.27575   -10991.584   -3096.5519   -5671.6997   -24206.502     15.35831    13.300707     27.67792    5653.9454 
  148500      148.488    375.61824    15.439685   -442.69065   -427.25097   -10100.717   -2407.6406   -3744.2857   -24150.225    15.358313    13.300709    27.677903    5653.9436 
  149000      148.988     370.7127    15.238044   -442.46511   -427.22706   -9268.0598   -2562.8423   -2284.1843   -22957.153    15.358315    13.300711    27.677885    5653.9418 
  149500      149.488    370.51767    15.230027   -442.43215   -427.20212   -9822.6041    971.41563   -4054.5671   -26384.661    15.358318    13.300713    27.677868      5653.94 
  150000      149.988    387.24805    15.917725   -443.09608   -427.17836   -8680.9302   -1560.8796   -2011.1358   -22470.775     15.35832    13.300715     27.67785    5653.9382 
  150500      150.488    378.89646    15.574435   -442.72787   -427.15343   -8609.2744    801.81868   -200.31556   -26429.326    15.358322    13.300717    27.677833    5653.9363 
  151000      150.988    376.07396    15.458417   -442.58751    -427.1291   -9289.9917   -634.53129   -2920.5193   -24314.924    15.358325    13.300719    27.677815    5653.9345 
  151500      151.488    378.39368    15.553769   -442.65823   -427.10447   -9872.2481   -318.08855   -1427.7249   -27870.931    15.358327    13.300721    27.677798    5653.9327 
  152000      151.988    388.21256    15.957371   -443.03764   -427.08027     -9389.85   -623.70969   -4016.3242   -23529.516     15.35833    13.300723     27.67778    5653.9309 
  152500      152.488    388.10928    15.953126   -443.00892    -427.0558    -9967.624   -1666.5196   -3014.3086   -25222.044    15.358332    13.300725    27.677763    5653.9291 
  153000      152.988    378.97248     15.57756   -442.60919   -427.03163   -9485.9577   -3461.5999   -3446.3041   -21549.969    15.358334    13.300727    27.677745    5653.9272 
  153500      153.488    391.99635    16.112903   -443.11961    -427.0067   -8991.8005     679.4172    -1094.846   -26559.973    15.358337    13.300729    27.677728    5653.9254 
  154000      153.988    371.35338    15.264379   -442.24676   -426.98238   -9281.0589   -3112.5339   -2097.5741   -22633.069    15.358339    13.300731     27.67771    5653.9236 
  154500      154.488    388.99618    15.989581   -442.94751   -426.95793   -9261.3436   -721.69764   -3317.5529    -23744.78    15.358342    13.300733    27.677693    5653.9218 
  155000      154.988    382.12895    15.707306   -442.64073   -426.93342   -9158.4417   -2866.0784   -1988.6048   -22620.642    15.358344    13.300735    27.677675      5653.92 
  155500      155.488    383.99463    15.783994   -442.69302   -426.90902   -9025.6653   -1150.8428   -4110.5633    -21815.59    15.358346    13.300738    27.677658    5653.9181 
  156000      155.988    408.80008    16.803615   -443.68814   -426.88452   -9092.5706    502.37362   -1304.9741   -26475.111    15.358349     13.30074     27.67764    5653.9163 
  156500      156.488    391.19238    16.079856      -442.94   -426.86014   -8496.0464   -1043.3189   -3556.5534   -20888.267    15.358351    13.300742    27.677623    5653.9145 
  157000      156.988    389.76119    16.021027   -442.85617   -426.83514    -7809.744   -1824.9217   -1020.0639   -20584.246    15.358354    13.300744    27.677605    5653.9127 
  157500      157.488    393.12242     16.15919   -442.96999    -426.8108   -9678.2161   -2108.8607   -1766.7648   -25159.023    15.358356    13.300746    27.677588    5653.9109 
  158000      157.988    393.25692    16.164718    -442.9506   -426.78589   -10202.312   -278.18283   -5826.4352   -24502.319    15.358358    13.300748     27.67757     5653.909 
  158500      158.488    370.85567    15.243921   -442.00496   -426.76104   -9042.2697   -582.55317   -3693.9951   -22850.261    15.358361     13.30075    27.677553    5653.9072 
  159000      158.988     409.2139    16.820625   -443.55685   -426.73622   -9496.7418   -2165.3656   -982.52021   -25342.339    15.358363    13.300752    27.677535    5653.9054 
  159500      159.488    409.96431    16.851471   -443.56261   -426.71114   -8957.1616   -1804.3288   -3300.9688   -21766.187    15.358366    13.300754    27.677518    5653.9036 
  160000      159.988    403.36731    16.580303    -443.2662    -426.6859   -8987.6512   -842.51206   -4019.4059   -22101.036    15.358368    13.300756      27.6775    5653.9018 
  160500      160.488    379.34156    15.592731   -442.25334   -426.66061   -8797.0568    1778.0751    -2511.346     -25657.9     15.35837    13.300758    27.677483    5653.8999 
  161000      160.988    396.11242    16.282092   -442.91754   -426.63544   -8699.0826    905.50328   -2277.2285   -24725.522    15.358373     13.30076    27.677465    5653.8981 
  161500      161.488    378.83954    15.572096   -442.18339   -426.61129    -8140.093   -665.88224    -1930.408   -21823.989    15.358375    13.300762    27.677448    5653.8963 
  162000      161.988    386.20415    15.874816   -442.46094   -426.58612   -7908.6689    134.75807   -63.456341   -23797.308    15.358378    13.300764     27.67743    5653.8945 
  162500      162.488    401.41316    16.499978   -443.06055   -426.56057   -9211.6786   -2592.7868   -2085.1472   -22957.102     15.35838    13.300766    27.677413    5653.8927 
  163000      162.988    386.24491    15.876491   -442.41164   -426.53515    -8746.464    795.39326    -1263.181   -25771.604    15.358382    13.300768    27.677395    5653.8908 
  163500      163.488    371.17626    15.257098   -441.76747   -426.51038   -8050.9173   -997.49014   -4101.9622   -19053.299    15.358385     13.30077    27.677378     5653.889 
  164000      163.988    417.43372    17.158499   -443.64416   -426.48566   -9365.3523    -1599.638   -3106.7327   -23389.686    15.358387    13.300772     27.67736    5653.8872 
  164500      164.488    391.62954    16.097825   -442.55752   -426.45969   -9316.9285   -2031.5719   -5706.3071   -20212.907     15.35839    13.300774    27.677343    5653.8854 
  165000      164.988    373.86465    15.367604    -441.8022   -426.43459   -8519.4445   -1046.0844   -519.64057   -23992.608    15.358392    13.300776    27.677325    5653.8836 
  165500      165.488    373.92591    15.370122    -441.7797   -426.40958   -9004.9481   -1258.8855   -1621.0209   -24134.938    15.358394    13.300779    27.677308    5653.8817 
  166000      165.988    374.43762    15.391156   -441.77572   -426.38457   -8205.0002    682.42155   -2717.4256   -22579.996    15.358397    13.300781     27.67729    5653.8799 
  166500      166.488    368.76036    15.157794    -441.5169   -426.35911   -7164.4475    36.560711   -2507.7704   -19022.133    15.358399    13.300783    27.677273    5653.8781 
  167000      166.988     403.5758    16.588873   -442.92339   -426.33452   -8882.1792     -52.8837   -3045.0843    -23548.57    15.358402    13.300785    27.677255    5653.8763 
  167500      167.488    388.99374    15.989481    -442.2985   -426.30902    -8749.976   -694.67638   -3607.7542   -21947.497    15.358404    13.300787    27.677238    5653.8745 
  168000      167.988    391.49354    16.092235   -442.37601   -426.28378   -7405.9752    840.13444   -1705.0402    -21353.02    15.358406    13.300789     27.67722    5653.8726 
  168500      168.488    391.44161      16.0901   -442.34884   -426.25874   -8439.9056   -39.755692   -1521.6137   -23758.347    15.358409    13.300791    27.677203    5653.8708 
  169000      168.988    401.06062    16.485487   -442.71873   -426.23325   -9836.1806   -1838.4895   -2658.8739   -25011.178    15.358411    13.300793    27.677185     5653.869 
  169500      169.488    382.70358    15.730926   -441.93854   -426.20761   -8548.4194   -2412.8832   -405.31015   -22827.065    15.358414    13.300795    27.677168    5653.8672 
  170000      169.988    380.56274    15.642927   -441.82522   -426.18229   -8921.9386   -896.74971   -5924.4885   -19944.578    15.358416    13.300797     27.67715    5653.8654 
  170500      170.488     367.3711    15.100689   -441.25682   -426.15613   -6978.3938   -285.17116   -1443.8129   -19206.197    15.358418    13.300799    27.677133    5653.8635 
  171000      170.988    400.79901    16.474734   -442.60616   -426.13143   -8665.0855   -1048.5168   -862.16998    -24084.57    15.358421    13.300801    27.677115    5653.8617 
  171500      171.488    403.12959    16.570531   -442.67644   -426.10591   -9399.5412   -577.63783   -4664.4851   -22956.501    15.358423    13.300803    27.677098    5653.8599 
  172000      171.988    400.84471    16.476612   -442.55766   -426.08105   -9668.4967    363.44959   -4919.1875   -24449.752    15.358426    13.300805     27.67708    5653.8581 
  172500      172.488    394.70012     16.22404   -442.27895   -426.05491   -8480.8998    1052.8326   -4794.3924   -21701.139    15.358428    13.300807    27.677063    5653.8563 
  173000      172.988    412.92348    16.973106   -443.00283   -426.02973   -8588.2281    574.32375   -1227.1344   -25111.874     15.35843    13.300809    27.677045    5653.8544 
  173500      173.488    409.71894    16.841385   -442.84551   -426.00412   -9667.3125   -1997.2413   -2953.0861    -24051.61    15.358433    13.300811    27.677028    5653.8526 
  174000      173.988    386.20381    15.874802    -441.8537    -425.9789   -8113.9254    132.42727   -577.52379    -23896.68    15.358435    13.300813     27.67701    5653.8508 
  174500      174.488    403.43946    16.583268   -442.53641   -425.95314   -8308.5906   -732.61947   -2337.4305   -21855.722    15.358438    13.300815    27.676993     5653.849 
  175000      174.988    385.35704    15.839996   -441.76726   -425.92727   -9657.7792   -363.99743   -4939.4735   -23669.867     15.35844    13.300817    27.676975    5653.8472 
  175500      175.488    368.93195    15.164847   -441.06608   -425.90123   -8749.6358    954.90253   -1162.8051   -26041.005    15.358442     13.30082    27.676958    5653.8453 
  176000      175.988    403.43883    16.583243   -442.46006   -425.87682   -9234.9649   -3805.1203   -2543.8884   -21355.886    15.358445    13.300822     27.67694    5653.8435 
  176500      176.488      398.183    16.367203   -442.21835   -425.85115   -7875.6088    128.69964   -2810.6586   -20944.868    15.358447    13.300824    27.676923    5653.8417 
  177000      176.988    396.70126    16.306297   -442.13128   -425.82498   -7331.7759    690.82101    -3219.859    -19466.29     15.35845    13.300826    27.676905    5653.8399 
  177500      177.488    365.74333     15.03378   -440.83294   -425.79916   -8168.2464    57.723812   -1638.3167   -22924.146    15.358452    13.300828    27.676888    5653.8381 
  178000      177.988    387.16222    15.914197   -441.68808   -425.77388   -7827.3631    63.043771   -3176.6325   -20368.501    15.358454     13.30083     27.67687    5653.8362 
  178500      178.488    388.68419    15.976757   -441.72465   -425.74789   -8186.8873    1801.9239   -2775.7471   -23586.839    15.358457    13.300832    27.676853    5653.8344 
  179000      178.988    417.18736    17.148372   -442.87178    -425.7234   -8841.8388   -1145.4959   -2674.4338   -22705.587    15.358459    13.300834    27.676835    5653.8326 
  179500      179.488    385.85159    15.860324   -441.55666   -425.69634   -7172.1838   -936.36409   -4780.7901   -15799.397    15.358462    13.300836    27.676818    5653.8308 
  180000      179.988    416.88408    17.135906   -442.80708   -425.67117   -8859.1751    -402.2129   -2086.1364   -24089.176    15.358464    13.300838      27.6768     5653.829 
  180500      180.488    415.21477    17.067289   -442.71202   -425.64473   -9728.1177    953.87832   -4243.6785   -25894.553    15.358466     13.30084    27.676783    5653.8271 
  181000      180.988    382.93656    15.740503   -441.35945   -425.61895   -7565.4929    2048.7816   -2528.3574   -22216.903    15.358469    13.300842    27.676765    5653.8253 
  181500      181.488    371.17881    15.257203    -440.8489    -425.5917   -8158.9254   -1036.6469   -2651.3164   -20788.813    15.358471    13.300844    27.676748    5653.8235 
  182000      181.988    406.32304    16.701797   -442.26876   -425.56696   -7921.8696     590.3937   -2321.4188   -22034.584    15.358474    13.300846     27.67673    5653.8217 
  182500      182.488    381.60633    15.685824   -441.22615   -425.54033   -7267.7881    55.612881   -4497.3528   -17361.624    15.358476    13.300848    27.676713    5653.8199 
  183000      182.988    412.65889    16.962231   -442.47725   -425.51502   -9006.2739    1950.3609   -3191.0608   -25778.122    15.358478     13.30085    27.676695     5653.818 
  183500      183.488     395.1689    16.243309   -441.73152   -425.48821   -7782.5145    173.31585   -1692.9135   -21827.946    15.358481    13.300852    27.676678    5653.8162 
  184000      183.988    411.93646    16.932535   -442.39534    -425.4628   -9557.1127    851.33428   -3459.0156   -26063.657    15.358483    13.300854     27.67666    5653.8144 
  184500      184.488    402.14073    16.529884   -441.96648   -425.43659   -8087.0837    1649.3989   -843.31513   -25067.335    15.358486    13.300856    27.676643    5653.8126 
  185000      184.988    424.06649    17.431137   -442.84182   -425.41068   -8429.4682   -593.80101    -1919.297   -22775.307    15.358488    13.300858    27.676625    5653.8108 
  185500      185.488    399.65181    16.427578    -441.8118   -425.38422   -8517.5817   -1902.2465      -1623.2   -22027.299     15.35849    13.300861    27.676608    5653.8089 
  186000      185.988    418.37378     17.19714   -442.55543   -425.35829   -9022.8077   -1445.0819   -3081.6898   -22541.651    15.358493    13.300863     27.67659    5653.8071 
  186500      186.488    394.43099    16.212978    -441.5446   -425.33163   -7329.7367    -360.8405    832.41434   -22460.784    15.358495    13.300865    27.676573    5653.8053 
  187000      186.988    417.24198    17.150617   -442.45664   -425.30602   -8695.6798   -276.30141   -4023.5842   -21787.154    15.358498    13.300867    27.676555    5653.8035 
  187500      187.488    386.30443    15.878938   -441.15791   -425.27897    -7677.358   -1527.7668   -671.16596   -20833.141      15.3585    13.300869    27.676538    5653.8017 
  188000      187.988    417.24905    17.150908   -442.40444   -425.25353   -8072.1106    637.78086   -2462.3917   -22391.721    15.358502    13.300871     27.67652    5653.7998 
  188500      188.488    402.69096    16.552502   -441.77974   -425.22724   -8231.5353   -2626.9654   -1099.6444   -20967.996    15.358505    13.300873    27.676503     5653.798 
  189000      188.988     403.8208    16.598944   -441.79982   -425.20088   -8333.7425     -480.821   -1223.6419   -23296.765    15.358507    13.300875    27.676485    5653.7962 
  189500      189.488    410.83096    16.887094   -442.06248   -425.17539   -7718.7966    336.80643    -965.9804   -22527.216     15.35851    13.300877    27.676468    5653.7944 
  190000      189.988    409.39448    16.828048   -441.97702   -425.14897   -8170.2398    1708.9332   -2793.4809   -23426.172    15.358512    13.300879     27.67645    5653.7926 
  190500      190.488    396.78583    16.309773   -441.43216   -425.12238   -8050.0297    643.02293   -6357.2307   -18435.881    15.358514    13.300881    27.676433    5653.7907 
  191000      190.988    401.84006    16.517526   -441.61332   -425.09579   -8005.4506   -1089.5919    1254.4588   -24181.219    15.358517    13.300883    27.676415    5653.7889 
  191500      191.488    396.66398    16.304764   -441.37405   -425.06928   -7743.5268    1466.6824   -128.20529   -24569.058    15.358519    13.300885    27.676398    5653.7871 
  192000      191.988    416.25677    17.110121   -442.15306   -425.04294   -8986.2124   -2685.4012   -1837.4231   -22435.813    15.358522    13.300887     27.67638    5653.7853 
  192500      192.488    413.04288    16.978014   -441.99438   -425.01637   -8089.2289   -898.54798   -2435.0393     -20934.1    15.358524    13.300889    27.676363    5653.7835 
  193000      192.988     427.0716    17.554661   -442.54448   -424.98982   -8499.8663    463.61684   -2899.6221   -23063.594    15.358526    13.300891    27.676345    5653.7816 
  193500      193.488     392.3884    16.129018    -441.0918   -424.96278   -7044.5775   -767.28906    1040.4901   -21406.934    15.358529    13.300893    27.676328    5653.7798 
  194000      193.988    393.71823     16.18368   -441.12053   -424.93685   -7106.6156    2001.2839   -2117.2644   -21203.866    15.358531    13.300895     27.67631     5653.778 
  194500      194.488    415.10217    17.062661   -441.97346    -424.9108   -8142.4992    74.378649   -1741.7626   -22760.114    15.358534    13.300897    27.676293    5653.7762 
  195000      194.988    410.60128    16.877653   -441.76154   -424.88388   -7512.6642    335.28581      -1041.7   -21831.578    15.358536    13.300899    27.676275    5653.7744 
  195500      195.488    414.07488    17.020435   -441.87787   -424.85743   -8207.4262    255.51245   -4254.3958   -20623.395    15.358538    13.300902    27.676258    5653.7725 
  196000      195.988    414.21118    17.026037   -441.85692   -424.83089    -8903.107    1398.4796   -5097.0342   -23010.766    15.358541    13.300904     27.67624    5653.7707 
  196500      196.488    381.82236    15.694703   -440.49829   -424.80358   -6281.0935    2333.3395   -2.7955302   -21173.824    15.358543    13.300906    27.676223    5653.7689 
  197000      196.988    416.26944    17.110641    -441.8884   -424.77776    -8695.471   -729.15894     -2124.36   -23232.894    15.358546    13.300908    27.676205    5653.7671 
  197500      197.488    423.08881     17.39095   -442.14228   -424.75133   -8300.3263   -136.59933   -2380.5797     -22383.8    15.358548     13.30091    27.676188    5653.7653 
  198000      197.988     403.4729    16.584643   -441.30842   -424.72377   -8862.5078   -201.25034    -3176.296   -23209.977     15.35855    13.300912     27.67617    5653.7634 
  198500      198.488    405.07545    16.650515   -441.34797   -424.69745    -6911.416   -1307.1184   -12.452757   -19414.677    15.358553    13.300914    27.676153    5653.7616 
  199000      198.988    403.34963    16.579576    -441.2503   -424.67072   -7376.9482    3567.1586   -2711.6509   -22986.352    15.358555    13.300916    27.676135    5653.7598 
  199500      199.488    408.46462    16.789826   -441.43393    -424.6441    -6143.879    3606.5672    -722.2268   -21315.978    15.358558    13.300918    27.676118     5653.758 
  200000      199.988    396.02001    16.278294   -440.89531   -424.61702   -5932.0406    3477.8401   -976.90667   -20297.055     15.35856     13.30092      27.6761    5653.7562 
  200500      200.488    398.24006    16.369548   -440.95938   -424.58983   -7305.0153    534.93828    -1997.224    -20452.76    15.358562    13.300922    27.676083    5653.7543 
  201000      200.988    393.04756    16.156112   -440.71999   -424.56388   -8473.4823    413.61409   -1605.6639   -24228.397    15.358565    13.300924    27.676065    5653.7525 
  201500      201.488    399.29291    16.412826   -440.94927   -424.53644   -8519.5582     925.7572   -103.16048   -26381.271    15.358567    13.300926    27.676048    5653.7507 
  202000      201.988     421.2568    17.315645   -441.82583   -424.51019   -7046.2889    1644.2634   -4170.1868   -18612.943     15.35857    13.300928     27.67603    5653.7489 
  202500      202.488    423.24351    17.397308   -441.88052   -424.48322   -6203.4755    3039.0376   -48.162615   -21601.302    15.358572     13.30093    27.676013    5653.7471 
  203000      202.988    423.58226    17.411233   -441.86767   -424.45644   -8882.6299    1021.0735   -4359.3318   -23309.632    15.358574    13.300932    27.675995    5653.7452 
  203500      203.488    413.50358    16.996951   -441.42662   -424.42967   -7480.9905    2028.5056   -3433.4067    -21038.07    15.358577    13.300934    27.675978    5653.7434 
  204000      203.988    405.24581    16.657518    -441.0605   -424.40298   -7303.4731    1565.4948   -4279.2263   -19196.688    15.358579    13.300936     27.67596    5653.7416 
  204500      204.488    420.13427    17.269504   -441.64556   -424.37605   -8291.6174    2075.1085    -228.6084   -26721.352    15.358582    13.300938    27.675943    5653.7398 
  205000      204.988    409.38624    16.827709   -441.17637   -424.34866   -6837.6255    1802.4539    -1141.125   -21174.205    15.358584     13.30094    27.675925     5653.738 
  205500      205.488    423.50972    17.408251   -441.73026   -424.32201   -8580.0028   -1141.7128   -1810.2977   -22787.998    15.358586    13.300943    27.675908    5653.7361 
  206000      205.988      446.426    18.350219   -442.64624   -424.29603   -8330.2781   -442.45025   -1652.5146    -22895.87    15.358589    13.300945     27.67589    5653.7343 
  206500      206.488    445.34493    18.305781   -442.57401   -424.26823   -8755.0976   -411.47594    -3120.249   -22733.568    15.358591    13.300947    27.675873    5653.7325 
  207000      206.988     426.0869    17.514185   -441.75512   -424.24093   -7898.3883     1351.795   -2568.9215   -22478.039    15.358594    13.300949    27.675855    5653.7307 
  207500      207.488    426.63025     17.53652   -441.75027   -424.21375   -8600.5529    996.03061   -4627.9919   -22169.697    15.358596    13.300951    27.675838    5653.7289 
  208000      207.988    451.28375    18.549895   -442.73663   -424.18673   -9787.1155    1237.1614   -4186.0554   -26412.453    15.358598    13.300953     27.67582     5653.727 
  208500      208.488    405.70605    16.676436   -440.83566   -424.15922   -8452.0106   -1489.0693   -1079.6814   -22787.281    15.358601    13.300955    27.675803    5653.7252 
  209000      208.988    432.72185    17.786913   -441.91964   -424.13273   -8544.2282    2243.0854   -5258.9244   -22616.846    15.358603    13.300957    27.675785    5653.7234 
  209500      209.488    420.76322    17.295357   -441.40028   -424.10493   -7429.1888   -324.00804   -942.98533   -21020.573    15.358606    13.300959    27.675768    5653.7216 
  210000      209.988    442.97035    18.208175   -442.28582   -424.07765   -7585.8573    256.20408   -3115.7399   -19898.036    15.358608    13.300961     27.67575    5653.7198 
  210500      210.488    445.54647    18.314066   -442.36469   -424.05062    -8212.416    565.20504    -2883.636   -22318.817     15.35861    13.300963    27.675733    5653.7179 
  211000      210.988    425.52337    17.491022   -441.51489   -424.02387   -6837.5011    2139.8938   -1986.8048   -20665.592    15.358613    13.300965    27.675715    5653.7161 
  211500      211.488    406.10919    16.693007   -440.68888   -423.99587   -7552.0426    392.63054   -2978.4781    -20070.28    15.358615    13.300967    27.675698    5653.7143 
  212000      211.988    430.70078    17.703838   -441.67227   -423.96843   -7857.3818    1387.4754   -3912.7114   -21046.909    15.358618    13.300969     27.67568    5653.7125 
[...]
  948500      948.488    589.55474    24.233486   -437.00841   -412.77492   -931.48618    4752.6276    4508.8955   -12055.982    15.362153    13.303989    27.649903    5651.0293 
  949000      948.988    538.89848    22.151274   -434.92121   -412.76993   -1493.2614    5918.3575    7049.8491   -17447.991    15.362155    13.303991    27.649885    5651.0275 
  949500      949.488    590.47798    24.271436   -437.03775   -412.76631    -2140.189    6030.3593     3787.337   -16238.263    15.362158    13.303993    27.649868    5651.0257 
  950000      949.988    543.54737    22.342366   -435.10412   -412.76176   -1654.0751    4967.3796    5324.4269   -15254.032     15.36216    13.303995     27.64985    5651.0238 
  950500      950.488    570.13622    23.435293   -436.19306   -412.75777   -3615.9654    1386.9303    2953.4145   -15188.241    15.362162    13.303997    27.649833     5651.022 
  951000      950.988    545.00661    22.402347   -435.15703   -412.75468    -2119.332    4622.2192    4209.9146    -15190.13    15.362165    13.303999    27.649815    5651.0202 
  951500      951.488    578.32598    23.771931   -436.52319   -412.75126   -3946.7669    3681.9359    3656.2095   -19178.446    15.362167    13.304001    27.649798    5651.0184 
  952000      951.988    582.21965    23.931979   -436.67829   -412.74631   -4001.4699    1058.9756    8734.1238   -21797.509     15.36217    13.304003     27.64978    5651.0166 
  952500      952.488    559.35147    22.991989   -435.73402   -412.74203    146.95957    4918.7803    5481.0466   -9958.9482    15.362172    13.304005    27.649763    5651.0147 
  953000      952.988    558.65947    22.963544   -435.70147   -412.73793   -2549.8648    4981.8015    483.51038   -13114.906    15.362174    13.304007    27.649745    5651.0129 
  953500      953.488    584.96943    24.045008   -436.77862   -412.73361   -2381.2238    4863.9767    4357.7586   -16365.407    15.362177    13.304009    27.649728    5651.0111 
  954000      953.988    563.45282    23.160574   -435.88979   -412.72921   -2930.3222     5679.325    2281.2194   -16751.511    15.362179    13.304011     27.64971    5651.0093 
  954500      954.488    579.74042    23.830071   -436.55418   -412.72411   -2867.0819    6459.7953   -1293.4979   -13767.543    15.362182    13.304013    27.649693    5651.0074 
  955000      954.988    543.45635    22.338624   -435.05794   -412.71932     -2330.71    4775.1423    1424.4271   -13191.699    15.362184    13.304015    27.649675    5651.0056 
  955500      955.488    575.51657    23.656451   -436.37245     -412.716   -932.03935    8355.7836    2161.0698   -13312.971    15.362186    13.304018    27.649658    5651.0038 
  956000      955.988    607.75789    24.981722     -437.692   -412.71028   -4664.1106    3515.5446    51.423349     -17559.3    15.362189     13.30402     27.64964     5651.002 
  956500      956.488    571.19599    23.478855   -436.18483   -412.70597   -3483.1145    5345.8439    625.98912   -16421.176    15.362191    13.304022    27.649623    5651.0001 
  957000      956.988    606.57905    24.933266   -437.63393   -412.70066   -3440.6579    2882.3687   -668.12264    -12536.22    15.362194    13.304024    27.649605    5650.9983 
  957500      957.488    587.43623    24.146405    -436.8419    -412.6955   -3705.4751    3566.6394    2471.0353     -17154.1    15.362196    13.304026    27.649588    5650.9965 
  958000      957.988    582.43377    23.940781    -436.6321   -412.69132    -3699.613    5622.4998   -675.21545   -16046.123    15.362198    13.304028     27.64957    5650.9947 
  958500      958.488    548.81129    22.558738   -435.24439   -412.68566   -2974.0457    6275.1956    412.03587   -15609.369    15.362201     13.30403    27.649553    5650.9929 
  959000      958.988    575.59655    23.659738   -436.34001   -412.68027   -1286.2894    7110.7519    4829.0233   -15798.643    15.362203    13.304032    27.649535     5650.991 
  959500      959.488    587.85715    24.163707   -436.83826   -412.67456   -2506.5541    6833.9986    2759.9573   -17113.618    15.362206    13.304034    27.649518    5650.9892 
  960000      959.988    551.99232    22.689493   -435.35782   -412.66832   -3312.2876    5314.3393     1643.841   -16895.043    15.362208    13.304036      27.6495    5650.9874 
  960500      960.488    594.36192    24.431084   -437.09566   -412.66457   -3335.5216    6330.6982   -1320.4163   -15016.847     15.36221    13.304038    27.649483    5650.9856 
  961000      960.988    554.17001    22.779006   -435.43651   -412.65751   -2451.3469    5212.4261    2381.1957   -14947.662    15.362213     13.30404    27.649465    5650.9837 
  961500      961.488    575.13061    23.640586   -436.29267   -412.65209   -2619.6894     6265.261    1318.6638   -15442.993    15.362215    13.304042    27.649448    5650.9819 
  962000      961.988    548.46585    22.544539   -435.18961   -412.64507   -2252.7182    6055.6586   -1368.7576   -11445.056    15.362218    13.304044     27.64943    5650.9801 
  962500      962.488    574.82796    23.628146   -436.26885    -412.6407   -921.89659    7349.5024     2752.063   -12867.255     15.36222    13.304046    27.649413    5650.9783 
  963000      962.988    588.60466    24.194434    -436.8297   -412.63527   -3464.1724     4295.656    755.56444   -15443.738    15.362222    13.304048    27.649395    5650.9764 
  963500      963.488    562.98722    23.141435   -435.77116   -412.62972   -4228.7098    3805.9513    1477.1692    -17969.25    15.362225     13.30405    27.649378    5650.9746 
  964000      963.988    589.12813     24.21595    -436.8395   -412.62355   -3806.3549    4145.0432    1727.8641   -17291.972    15.362227    13.304052     27.64936    5650.9728 
  964500      964.488    571.79028    23.503283   -436.12063   -412.61735   -2907.0795    8131.6559    1251.6749   -18104.569     15.36223    13.304054    27.649343     5650.971 
  965000      964.988    560.68949    23.046988   -435.65878   -412.61179   -3810.8096    3073.9102    1181.7506    -15688.09    15.362232    13.304056    27.649325    5650.9692 
  965500      965.488    574.12091    23.599083   -436.20577   -412.60669    -2397.309    7890.1321   -2152.8739   -12929.185    15.362234    13.304059    27.649308    5650.9673 
  966000      965.988    593.20944    24.383712   -436.98533   -412.60162   -2252.5672    5628.4341     571.1589   -12957.295    15.362237    13.304061     27.64929    5650.9655 
  966500      966.488    564.12897    23.188367   -435.78402   -412.59565   -1829.4144    5363.6293    1234.1676    -12086.04    15.362239    13.304063    27.649273    5650.9637 
  967000      966.988    587.72298    24.158192   -436.74802   -412.58983    -2991.403    1385.7653    6401.4898   -16761.464    15.362242    13.304065    27.649255    5650.9619 
  967500      967.488    584.14085    24.010949   -436.59477   -412.58382   -2385.9951     4542.661     5693.262   -17393.908    15.362244    13.304067    27.649238      5650.96 
  968000      967.988    593.72658    24.404968   -436.98197     -412.577   -3983.0904    5437.8801    3254.5286    -20641.68    15.362246    13.304069     27.64922    5650.9582 
  968500      968.488    581.16198    23.888504   -436.46019   -412.57169   -2670.6021    1925.0909    5434.2854   -15371.183    15.362249    13.304071    27.649203    5650.9564 
  969000      968.988    559.96072    23.017032   -435.58089   -412.56386    -2788.261    5227.9772    3364.2225   -16956.983    15.362251    13.304073    27.649185    5650.9546 
  969500      969.488    575.40841    23.652005   -436.21054   -412.55853   -2268.0396    5638.9284    1480.9188   -13923.966    15.362254    13.304075    27.649168    5650.9527 
  970000      969.988    583.06698    23.966808   -436.51753   -412.55072   -2783.3897    1974.1668    7032.8585   -17357.194    15.362256    13.304077     27.64915    5650.9509 
  970500      970.488    570.82498    23.463605    -436.0075    -412.5439   -2725.0029    5455.5574    1312.7614   -14943.328    15.362258    13.304079    27.649133    5650.9491 
  971000      970.988     596.3706     24.51365   -437.05109   -412.53744     -2347.58    2607.2553    7082.8552    -16732.85    15.362261    13.304081    27.649115    5650.9473 
  971500      971.488    583.97993    24.004335    -436.5355   -412.53117   -2970.6371     5426.826     186.9285   -14525.666    15.362263    13.304083    27.649098    5650.9455 
  972000      971.988    564.21362    23.191846   -435.71524   -412.52339   -2606.3629    2846.1653    4596.3813   -15261.635    15.362266    13.304085     27.64908    5650.9436 
  972500      972.488    582.69631    23.951572   -436.46808   -412.51651    -3041.672     4740.605     4742.286   -18607.907    15.362268    13.304087    27.649063    5650.9418 
  973000      972.988    586.70272    24.116254   -436.62654   -412.51029   -2935.1475     3508.493    3936.2731   -16250.209     15.36227    13.304089    27.649045      5650.94 
  973500      973.488    571.69215    23.499249   -436.00215    -412.5029   -2517.5452    3999.8722     9538.015   -21090.523    15.362273    13.304091    27.649028    5650.9382 
  974000      973.988    563.68084    23.169947   -435.66641   -412.49647    -142.2803     5612.307    4899.3575   -10938.505    15.362275    13.304093     27.64901    5650.9363 
  974500      974.488    551.82081    22.682443   -435.17019   -412.48775   -885.02383     7023.718     6912.097   -16590.886    15.362278    13.304095    27.648993    5650.9345 
  975000      974.988    553.80039    22.763813   -435.24312    -412.4793   -756.17052     6652.623     3135.055    -12056.19     15.36228    13.304097    27.648975    5650.9327 
  975500      975.488    572.44977    23.530391   -436.00317   -412.47278   -2634.3014    4538.6635    1503.3773   -13944.945    15.362282      13.3041    27.648958    5650.9309 
  976000      975.988    578.32814     23.77202   -436.23839   -412.46637   -2842.4186    1409.6518    6406.0927       -16343    15.362285    13.304102     27.64894     5650.929 
  976500      976.488    574.47646    23.613697   -436.07273   -412.45904   -2313.1514    5771.8824    2467.8009   -15179.137    15.362287    13.304104    27.648923    5650.9272 
  977000      976.988    545.18285    22.409592   -434.86163   -412.45204   -2877.5806    4288.4514    3036.9927   -15958.186     15.36229    13.304106    27.648905    5650.9254 
  977500      977.488    566.11898    23.270166   -435.71423   -412.44406    -2225.758    4076.2283    3733.5411   -14487.043    15.362292    13.304108    27.648888    5650.9236 
  978000      977.988    589.33015    24.224254   -436.66097   -412.43671   -2771.4588    2822.7032     1798.202   -12935.282    15.362294     13.30411     27.64887    5650.9218 
  978500      978.488    602.85621    24.780239   -437.21082   -412.43058    -2960.477    1842.2237    6205.9796   -16929.634    15.362297    13.304112    27.648853    5650.9199 
  979000      978.988    605.49358    24.888648   -437.30987   -412.42122   -2632.7063    3480.5927    3191.7851   -14570.497    15.362299    13.304114    27.648835    5650.9181 
  979500      979.488    553.13422    22.736431   -435.14829   -412.41186    -1611.698    2773.2133     3892.278   -11500.585    15.362302    13.304116    27.648818    5650.9163 
  980000      979.988    548.92764     22.56352   -434.96711   -412.40359   -1421.4275     8230.714    1097.1349   -13592.131    15.362304    13.304118      27.6488    5650.9145 
  980500      980.488       594.68    24.444159   -436.84096    -412.3968   -2009.7063    7302.6885    3518.4698   -16850.277    15.362306     13.30412    27.648783    5650.9126 
  981000      980.988    554.08492    22.775509   -435.16421    -412.3887   -2375.1129     4117.442    4331.2739   -15574.055    15.362309    13.304122    27.648765    5650.9108 
  981500      981.488    598.72216     24.61031   -436.99119   -412.38088   -3692.8093    2212.3637    4950.8784    -18241.67    15.362311    13.304124    27.648748     5650.909 
  982000      981.988    546.68247    22.471233   -434.84421   -412.37298   -3335.9991    1625.3355    6526.2584   -18159.591    15.362314    13.304126     27.64873    5650.9072 
  982500      982.488    581.58561    23.905917   -436.27208   -412.36616   -2603.1896    2403.7958    683.27736   -10896.642    15.362316    13.304128    27.648713    5650.9053 
  983000      982.988    602.22304    24.754213   -437.11239   -412.35817   -3517.3109    2346.1478     2665.152   -15563.232    15.362318     13.30413    27.648695    5650.9035 
  983500      983.488    624.71637    25.678795   -438.02934   -412.35054   -4508.7827    2848.1013     3016.843   -19391.292    15.362321    13.304132    27.648678    5650.9017 
  984000      983.988    519.76873    21.364951   -433.70514   -412.34019   -2775.4246    1796.8141     3850.537   -13973.625    15.362323    13.304134     27.64866    5650.8999 
  984500      984.488    586.18345     24.09491   -436.42789   -412.33298    -2038.513    795.08395    6523.7238   -13434.347    15.362326    13.304136    27.648643    5650.8981 
  985000      984.988    605.60483    24.893221   -437.21853   -412.32531   -2255.7506    6941.2425    5181.9665   -18890.461    15.362328    13.304138    27.648625    5650.8962 
  985500      985.488    561.87474    23.095707   -435.41178   -412.31607   -1693.8176    3244.4934     5671.305   -13997.251     15.36233    13.304141    27.648608    5650.8944 
  986000      985.988     564.9933    23.223895   -435.53126   -412.30737   -2295.0781    3003.3705    5466.7012   -15355.306    15.362333    13.304143     27.64859    5650.8926 
  986500      986.488    573.58184    23.576924   -435.87631   -412.29939   -1020.8466    7462.2567    57.226444   -10582.023    15.362335    13.304145    27.648573    5650.8908 
  987000      986.988    581.67307    23.909512    -436.2014   -412.29189    -2283.556    5505.3304    3345.8554   -15701.854    15.362338    13.304147    27.648555    5650.8889 
  987500      987.488    578.44758    23.776929   -436.06025   -412.28333   -1894.2329    4602.7248    2304.9954   -12590.419     15.36234    13.304149    27.648538    5650.8871 
  988000      987.988    591.87659    24.328925   -436.60396   -412.27503   -2496.6196    6036.6517    3433.6866   -16960.197    15.362342    13.304151     27.64852    5650.8853 
  988500      988.488    569.10068    23.392727   -435.65782    -412.2651   -1835.6718    5644.2341    2842.8116   -13994.061    15.362345    13.304153    27.648503    5650.8835 
  989000      988.988     559.0119    22.978031   -435.23404   -412.25601    -2229.616    5510.7664    2718.9225   -14918.537    15.362347    13.304155    27.648485    5650.8816 
  989500      989.488    563.05594     23.14426   -435.39148   -412.24722     -2279.83    6162.6654    4935.7626   -17937.918     15.36235    13.304157    27.648468    5650.8798 
  990000      989.988    578.76118     23.78982   -436.03009   -412.24027   -2498.2272    5832.5401    1855.2691   -15182.491    15.362352    13.304159     27.64845     5650.878 
  990500      990.488    620.48408    25.504828   -437.73742   -412.23259   -4074.3326    1913.7149    5596.7279   -19733.441    15.362354    13.304161    27.648433    5650.8762 
  991000      990.988    582.25244    23.933327   -436.15726   -412.22393   -2856.5509    4387.0757    5536.2075   -18492.936    15.362357    13.304163    27.648415    5650.8744 
  991500      991.488    561.40378    23.076349   -435.29223   -412.21588   -603.57836    3855.2796    5211.9772   -10877.992    15.362359    13.304165    27.648398    5650.8725 
  992000      991.988    590.23702    24.261531   -436.46828   -412.20675   -3156.6967    3673.4229    1550.0702   -14693.583    15.362362    13.304167     27.64838    5650.8707 
  992500      992.488     579.5945    23.824073   -436.02113   -412.19705   -1689.9414    2860.6657    7668.6749   -15599.165    15.362364    13.304169    27.648363    5650.8689 
  993000      992.988    567.47451    23.325884   -435.51434   -412.18846   -1982.7101    3242.5338    5078.0362     -14268.7    15.362366    13.304171    27.648345    5650.8671 
  993500      993.488    582.21406    23.931749    -436.1111   -412.17935   -2192.6646    1950.2974    7779.6208   -16307.912    15.362369    13.304173    27.648328    5650.8652 
  994000      993.988    572.23337    23.521496   -435.69094   -412.16945   -3083.7736    2430.0642    1242.2103   -12923.595    15.362371    13.304175     27.64831    5650.8634 
  994500      994.488    594.76976    24.447848    -436.6093   -412.16145   -703.32605    5052.9788    5331.7787   -12494.736    15.362374    13.304177    27.648293    5650.8616 
  995000      994.988    571.91818     23.50854   -435.66045   -412.15191   -1680.1625     3128.352    5390.2639   -13559.103    15.362376    13.304179    27.648275    5650.8598 
  995500      995.488    591.54632    24.315349    -436.4585   -412.14315    -2722.835     3548.129     2753.246    -14469.88    15.362378    13.304182    27.648258    5650.8579 
  996000      995.988    598.06987    24.583498   -436.71667   -412.13317   -3419.9594    2483.4603    7170.2757   -19913.614    15.362381    13.304184     27.64824    5650.8561 
  996500      996.488    570.31577    23.442674   -435.56572   -412.12305   -2122.0927    4041.9253    8520.9985   -18929.202    15.362383    13.304186    27.648223    5650.8543 
  997000      996.988     561.9207    23.097597    -435.2117    -412.1141   -2524.2056    5682.9629    1715.9145   -14971.494    15.362386    13.304188    27.648205    5650.8525 
  997500      997.488    590.42535    24.269272   -436.37432   -412.10505   -2496.4066    2144.2948    4583.3801   -14216.895    15.362388     13.30419    27.648188    5650.8507 
  998000      997.988    543.22176    22.328982   -434.42394   -412.09495   -1782.7616    4154.0573    5088.4986   -14590.841     15.36239    13.304192     27.64817    5650.8488 
  998500      998.488    616.77745    25.352468   -437.43992   -412.08745   -1052.8579    7636.2953     4266.048   -15060.917    15.362393    13.304194    27.648153     5650.847 
  999000      998.988    570.84952    23.464613   -435.54195   -412.07734   -2311.6805    4762.1741    6526.6015   -18223.817    15.362395    13.304196    27.648135    5650.8452 
  999500      999.488    569.89878    23.425533   -435.49321   -412.06768   -2281.3506    4186.2242    4385.8488   -15416.125    15.362398    13.304198    27.648118    5650.8434 
 1000000      999.988    586.47096    24.106728   -436.16442   -412.05769   -4144.5738    5237.7685    3214.0191   -20885.509      15.3624      13.3042      27.6481    5650.8415 
 1000012         1000    589.36636    24.225743   -436.28337   -412.05763   -3984.7602    3552.2135    2858.1428   -18364.637      15.3624      13.3042      27.6481    5650.8415 
Loop time of 898.932 on 28 procs for 1000000 steps with 319 atoms

Performance: 96.114 ns/day, 0.250 hours/ns, 1112.432 timesteps/s
87.4% CPU use with 28 MPI tasks x no OpenMP threads

MPI task timing breakdown:
Section |  min time  |  avg time  |  max time  |%varavg| %total
---------------------------------------------------------------
Pair    | 748.79     | 783.96     | 810.39     |  60.7 | 87.21
Neigh   | 0.021496   | 0.031181   | 0.040223   |   3.0 |  0.00
Comm    | 78.27      | 101.68     | 136.57     | 160.7 | 11.31
Output  | 0.099874   | 0.10193    | 0.12594    |   1.5 |  0.01
Modify  | 4.7103     | 8.0041     | 13.054     |  92.0 |  0.89
Other   |            | 5.147      |            |       |  0.57

Nlocal:    11.3929 ave 17 max 6 min
Histogram: 2 1 6 1 5 3 3 3 2 2
Nghost:    642.5 ave 684 max 589 min
Histogram: 6 2 0 0 4 2 2 0 7 5
Neighs:    702.714 ave 1037 max 355 min
Histogram: 2 0 6 1 3 6 3 4 1 2
FullNghs:  1405.43 ave 2139 max 732 min
Histogram: 2 1 6 1 6 2 3 4 2 1

Total # of neighbors = 39352
Ave neighs/atom = 123.361
Neighbor list builds = 467
Dangerous builds = 0

write_restart   POSCAR_1x1x1.rest

#unfix    1
#undump   1
Total wall time: 0:14:59
