LAMMPS (7 Dec 2015)
#----------- Initialize Simulation ------------ restart01
#processors	2 2 2
units		metal
boundary	p p p     ## periodic boundary condition  on x y z axis ##
atom_style atomic
#atom_modify map array sort 0 0.0

read_data	POSCAR_1x1x1.lammps
  triclinic box = (0 0 0) to (15.5526 13.469 26.2486) with tilt (-7.7762 0 0)
  2 by 2 by 7 MPI processor grid
  reading atoms ...
  319 atoms

#----------- Define Potential -----------------
pair_style meam
pair_coeff * * MgAlZn.library.meam Mg Al Zn MgAlZn.parameter.meam Mg Al Zn 	#1=Mg 2=Al 3=Zn	#atoms/mass

#----------- Neighbor List --------------------
neighbor 2.0 bin
neigh_modify delay 10 check yes

#--------------  Run a simulation (minimization) ---------------------------------------
minimize       1.0e-4   1.0e-6   100   1000          #結構優化的條件
WARNING: Resetting reneighboring criteria during minimization (../min.cpp:168)
Neighbor list info ...
  2 neighbor list requests
  update every 1 steps, delay 0 steps, check yes
  max neighbors/atom: 2000, page size: 100000
  master list distance cutoff = 8
  ghost atom cutoff = 8
  binsize = 4 -> bins = 6 4 7
Memory usage per processor = 8.65181 Mbytes
Step Temp E_pair E_mol TotEng Press 
       0            0   -435.40461            0   -435.40461    4123.3232 
      13            0   -459.23221            0   -459.23221   -13098.213 
Loop time of 0.0204671 on 28 procs for 13 steps with 319 atoms

83.1% CPU use with 28 MPI tasks x no OpenMP threads

Minimization stats:
  Stopping criterion = energy tolerance
  Energy initial, next-to-last, final = 
        -435.404606812     -459.200851711     -459.232205677
  Force two-norm initial, final = 24.3355 0.807657
  Force max component initial, final = 7.09679 0.188847
  Final line search alpha, max atom move = 0.278067 0.0525121
  Iterations, force evaluations = 13 21

MPI task timing breakdown:
Section |  min time  |  avg time  |  max time  |%varavg| %total
---------------------------------------------------------------
Pair    | 0.016236   | 0.017368   | 0.018304   |   0.4 | 84.86
Neigh   | 0          | 0          | 0          |   0.0 |  0.00
Comm    | 0.0012882  | 0.0021892  | 0.00329    |   1.0 | 10.70
Output  | 0          | 0          | 0          |   0.0 |  0.00
Modify  | 0          | 0          | 0          |   0.0 |  0.00
Other   |            | 0.0009097  |            |       |  4.44

Nlocal:    11.3929 ave 16 max 6 min
Histogram: 1 0 3 4 2 5 4 2 3 4
Nghost:    656.893 ave 673 max 630 min
Histogram: 2 1 1 0 3 3 6 4 6 2
Neighs:    721.357 ave 1028 max 383 min
Histogram: 1 2 4 3 2 6 2 3 2 3
FullNghs:  1442.71 ave 2058 max 751 min
Histogram: 1 1 6 2 5 3 3 3 2 2

Total # of neighbors = 40396
Ave neighs/atom = 126.633
Neighbor list builds = 0
Dangerous builds = 0
velocity all  create 600.0 4928459 #rot yes dist gaussian

#--------------  Run a simulation (Relaxation)  ----------------------------------------
fix  1  all  nvt   temp  600.0  600.0  100				#damping constant
#fix  2  all  npt   temp  393.0  393.0  50 iso 0.0 0.0 1000.0
fix  2  all deform 1 x final 0 15.5574 y final 0 13.4731 z final 0 26.2136 xy final -7.7786 units lattice
#fix  3  all  npt   temp  393.0  393.0  50 z 0.0 0.0 1000.0

#variable b equal 1
#fix 2 all efield  0.0  0.0  v_b
#compute pot all pe/atom


#----------- Output --------------------------
thermo	 500
timestep  0.001		#1.0 fs
thermo_style	custom step time temp ke pe etotal press pxx pyy pzz lx ly lz vol

dump 1 all custom 10000 dump.eq id type x y z
dump_modify 1 sort  id

run        1000000	#1000 ps
Neighbor list info ...
  2 neighbor list requests
  update every 1 steps, delay 10 steps, check yes
  max neighbors/atom: 2000, page size: 100000
  master list distance cutoff = 8
  ghost atom cutoff = 8
  binsize = 4 -> bins = 6 4 7
Memory usage per processor = 7.55904 Mbytes
Step Time Temp KinEng PotEng TotEng Press Pxx Pyy Pzz Lx Ly Lz Volume 
      13            0          600    24.662836   -459.23221   -434.56937   -8307.3076   -14003.332   -11119.404    200.81289      15.5526       13.469      26.2486    5498.5034 
     500        0.487    317.46728    13.049405   -447.61496   -434.56556   -2020.0072   -12899.301   -6253.1778    13092.457    15.552602    13.469002    26.248583    5498.5015 
    1000        0.987    320.67521    13.181267   -447.74668   -434.56542   -977.71248   -10710.411   -4114.6449    11891.918    15.552605    13.469004    26.248565    5498.4995 
    1500        1.487    307.28998     12.63107    -447.1949   -434.56383   -1255.6418   -9328.4603   -4087.1017    9648.6367    15.552607    13.469006    26.248548    5498.4975 
    2000        1.987    303.98015    12.495021   -447.05797   -434.56295   -66.029804   -8484.2674   -5364.5021     13650.68     15.55261    13.469008     26.24853    5498.4956 
    2500        2.487    306.86281    12.613512   -447.17492   -434.56141   -1498.0945   -10779.039   -7001.2839    13286.039    15.552612     13.46901    26.248513    5498.4936 
    3000        2.987    308.58247    12.684198   -447.24389   -434.55969   -316.28295    -9037.789   -4804.8217    12893.762    15.552614    13.469012    26.248495    5498.4916 
    3500        3.487    303.54947    12.477318   -447.03514   -434.55783   -622.02332   -9368.1077   -4691.8094    12193.847    15.552617    13.469014    26.248478    5498.4896 
    4000        3.987    313.96899    12.905609   -447.46106   -434.55545   -1306.0258   -8765.5901   -6981.5335    11829.046    15.552619    13.469016     26.24846    5498.4876 
    4500        4.487    314.68179    12.934909   -447.48766   -434.55275   -2155.9501   -9110.9016   -6505.3538    9148.4051    15.552622    13.469018    26.248443    5498.4857 
    5000        4.987    308.63504    12.686359   -447.23613   -434.54977   -2230.3851   -9942.3831   -5829.7898    9081.0176    15.552624     13.46902    26.248425    5498.4837 
    5500        5.487    327.87653    13.477275   -448.02427     -434.547   -1169.7909   -8931.1506   -5047.9545    10469.732    15.552626    13.469022    26.248408    5498.4817 
    6000        5.987    318.24173    13.081239   -447.62396   -434.54272   -1198.5371   -10124.835    -3341.146    9870.3691    15.552629    13.469025     26.24839    5498.4797 
    6500        6.487    305.17751    12.544238   -447.08305   -434.53881   -702.65216   -9670.5028   -1489.7703    9052.3167    15.552631    13.469027    26.248373    5498.4777 
    7000        6.987    326.99697    13.441121   -447.97616   -434.53504   -2268.4367   -10353.553   -6781.2532    10329.497    15.552634    13.469029    26.248355    5498.4758 
    7500        7.487    309.91511    12.738976    -447.2689   -434.52992   -1263.5011   -9846.2778   -2940.1849    8995.9594    15.552636    13.469031    26.248338    5498.4738 
    8000        7.987    325.31123    13.371829   -447.89724   -434.52541   -1969.7937   -11597.713   -5841.5885     11529.92    15.552638    13.469033     26.24832    5498.4718 
    8500        8.487    305.06173    12.539479   -447.05906   -434.51958   -2427.2787   -10798.446    -6411.657    9928.2674    15.552641    13.469035    26.248303    5498.4698 
    9000        8.987    304.95145    12.534946   -447.04944    -434.5145   -797.31106   -8920.8925   -5224.2071    11753.166    15.552643    13.469037    26.248285    5498.4678 
    9500        9.487    322.72664     13.26559   -447.77455   -434.50896   -2646.2923   -7820.7633   -7338.7117    7220.5982    15.552646    13.469039    26.248268    5498.4658 
   10000        9.987    315.94667    12.986901   -447.48945   -434.50254    -1262.085   -10610.043   -6771.8547    13595.643    15.552648    13.469041     26.24825    5498.4639 
   10500       10.487    320.78903    13.185945   -447.68289   -434.49695   -763.31183   -10820.606   -5516.9403    14047.611     15.55265    13.469043    26.248233    5498.4619 
   11000       10.987    303.32718    12.468181   -446.95799   -434.48981   -584.84217   -9095.2454   -4481.4034    11822.122    15.552653    13.469045    26.248215    5498.4599 
   11500       11.487    324.85822    13.353208   -447.83659   -434.48338   -2290.5509   -10406.902    -6509.417    10044.666    15.552655    13.469047    26.248198    5498.4579 
   12000       11.987    319.05734    13.114765    -447.5907   -434.47593   -2535.3662   -10333.689   -5715.7367    8443.3271    15.552658    13.469049     26.24818    5498.4559 
   12500       12.487    303.12924    12.460044   -446.92837   -434.46832   -929.03203   -9335.3832   -4737.8838    11286.171     15.55266    13.469051    26.248163     5498.454 
   13000       12.987    298.87337    12.285108   -446.74502   -434.45991   -323.70473   -9444.3033   -4523.3227    12996.512    15.552662    13.469053    26.248145     5498.452 
   13500       13.487    313.87644    12.901805   -447.35413   -434.45232   -2512.1026   -11904.024   -3483.8125    7851.5292    15.552665    13.469055    26.248128      5498.45 
   14000       13.987    325.49516     13.37939   -447.82318   -434.44379   -761.09267   -11278.914   -3864.8817    12860.517    15.552667    13.469057     26.24811     5498.448 
   14500       14.487     324.1004    13.322058   -447.75684   -434.43478   -2154.8548   -8491.2804   -6106.6206    8133.3366     15.55267    13.469059    26.248093     5498.446 
   15000       14.987    301.05357    12.374725   -446.80011   -434.42539   -1790.2483    -10462.63   -4569.6355    9661.5209    15.552672    13.469061    26.248075    5498.4441 
   15500       15.487    313.40141    12.882279   -447.29829   -434.41602   -2166.1104   -12640.338    77.695514    6064.3109    15.552674    13.469063    26.248058    5498.4421 
   16000       15.987     321.8737     13.23053   -447.63678   -434.40625   -1419.8574   -9781.3302   -4356.4403    9878.1983    15.552677    13.469066     26.24804    5498.4401 
   16500       16.487    330.61064     13.58966   -447.98584   -434.39618    -2178.412   -11942.242   -2415.5157    7822.5218    15.552679    13.469068    26.248023    5498.4381 
   17000       16.987    304.75008    12.526669   -446.91173   -434.38506   -1646.0924   -11549.211   -8439.6216    15050.555    15.552682     13.46907    26.248005    5498.4361 
   17500       17.487    301.15293    12.378809   -446.75313   -434.37432   -217.28967   -10513.167   -3567.6654    13428.963    15.552684    13.469072    26.247988    5498.4342 
   18000       17.987     298.5745    12.272823   -446.63619   -434.36337   -420.73983   -9947.5317   -1899.6807    10584.993    15.552686    13.469074     26.24797    5498.4322 
   18500       18.487    316.85489    13.024233    -447.3766   -434.35236   -1668.5778   -10201.546   -5464.0045    10659.817    15.552689    13.469076    26.247953    5498.4302 
   19000       18.987    311.95451    12.822805   -447.16387   -434.34106   -1194.5866   -11981.362   -3341.3112    11738.914    15.552691    13.469078    26.247935    5498.4282 
   19500       19.487     316.1765    12.996348   -447.32567   -434.32932   -2285.6989   -11240.801   -5406.0668    9789.7716    15.552694     13.46908    26.247918    5498.4262 
   20000       19.987    314.02828    12.908047   -447.22495   -434.31691   -1110.1571    -9348.765   -5215.5109    11233.805    15.552696    13.469082      26.2479    5498.4243 
   20500       20.487    307.89976    12.656135   -446.96095   -434.30481   -2213.1503   -11379.171   -8704.7223    13444.443    15.552698    13.469084    26.247883    5498.4223 
   21000       20.987    309.48178    12.721164   -447.01312   -434.29196    -1227.536   -8876.0059   -2054.1517    7247.5496    15.552701    13.469086    26.247865    5498.4203 
   21500       21.487    315.79288     12.98058   -447.25915   -434.27857   -1716.8781   -9688.7808   -3318.8562    7857.0027    15.552703    13.469088    26.247848    5498.4183 
   22000       21.987     311.5493    12.806149   -447.07219   -434.26604   -739.74952   -7443.3597   -6864.9543    12089.065    15.552706     13.46909     26.24783    5498.4163 
   22500       22.487    322.63116    13.261665   -447.51392   -434.25225   -1299.3255   -8795.6942   -5232.0054    10129.723    15.552708    13.469092    26.247813    5498.4144 
   23000       22.987    295.25861    12.136524   -446.37435   -434.23782    -152.4493   -10457.689    -3113.102    13113.443     15.55271    13.469094    26.247795    5498.4124 
   23500       23.487    308.69498    12.688823   -446.91279   -434.22397    78.670296   -8159.5005   -4108.1393    12503.651    15.552713    13.469096    26.247778    5498.4104 
   24000       23.987    323.13497    13.282374   -447.49274   -434.21036   -1152.2365   -8839.9295   -5682.7404     11065.96    15.552715    13.469098     26.24776    5498.4084 
   24500       24.487    319.82769     13.14643   -447.34195   -434.19552   -906.42606   -8306.3881   -4342.8327    9929.9426    15.552718      13.4691    26.247743    5498.4064 
   25000       24.987    325.38444    13.374838    -447.5554   -434.18057   -1275.6986   -10857.633   -6915.0706    13945.607     15.55272    13.469102    26.247725    5498.4045 
   25500       25.487    321.41625    13.211727   -447.37689   -434.16516   -926.92376   -9904.2778   -2161.4464    9284.9529    15.552722    13.469104    26.247708    5498.4025 
   26000       25.987    302.73034    12.443648   -446.59349   -434.14984   -227.03963   -9702.5939   -3905.2831    12926.758    15.552725    13.469107     26.24769    5498.4005 
   26500       26.487    323.56842    13.300191   -447.43486   -434.13467   -1303.3928   -10710.014   -5425.4432    12225.279    15.552727    13.469109    26.247673    5498.3985 
   27000       26.987    332.31114    13.659558    -447.7784   -434.11885   -1288.1824   -10551.166   -8625.8734    15312.492     15.55273    13.469111    26.247655    5498.3965 
   27500       27.487    331.89029    13.642259   -447.74526     -434.103    121.49197   -8705.2441    -2652.616    11722.336    15.552732    13.469113    26.247638    5498.3945 
   28000       27.987    297.27983    12.219606   -446.30569   -434.08608   -1448.4307   -10055.139   -9319.7819    15029.629    15.552734    13.469115     26.24762    5498.3926 
   28500       28.487    309.32834    12.714857   -446.78425   -434.06939    -141.7484   -10736.028   -4357.6981    14668.481    15.552737    13.469117    26.247603    5498.3906 
   29000       28.987    320.85153    13.188514   -447.24117   -434.05265   -1672.3993   -12121.871   -3292.9107    10397.584    15.552739    13.469119    26.247585    5498.3886 
   29500       29.487     315.6913    12.976405   -447.01228   -434.03588   -1471.5774   -10760.521   -5750.5662    12096.355    15.552742    13.469121    26.247568    5498.3866 
   30000       29.987    331.93049    13.643912   -447.66289   -434.01898   -486.74909    -12228.41   -2584.6775    13352.841    15.552744    13.469123     26.24755    5498.3846 
   30500       30.487    321.21711    13.203541   -447.20465   -434.00111   -892.83153   -9336.1408   -4952.6477    11610.294    15.552746    13.469125    26.247533    5498.3827 
   31000       30.987     315.3183    12.961072    -446.9445   -433.98343   -994.46798   -8432.0738   -3726.5672     9175.237    15.552749    13.469127    26.247515    5498.3807 
   31500       31.487    321.24274    13.204595   -447.17007   -433.96547   -1043.5773   -11223.021   -4232.1177    12324.407    15.552751    13.469129    26.247498    5498.3787 
   32000       31.987    333.46724    13.707079   -447.65455   -433.94747   -2829.1498   -11353.539   -6217.0973    9083.1864    15.552754    13.469131     26.24748    5498.3767 
   32500       32.487     327.1593    13.447793   -447.37763   -433.92984   -1159.5304   -9523.0562   -3196.3799    9240.8451    15.552756    13.469133    26.247463    5498.3747 
   33000       32.987    310.92898    12.780651   -446.69215    -433.9115   -1386.1524   -12754.017   -2873.4471    11469.007    15.552758    13.469135    26.247445    5498.3728 
   33500       33.487    302.70413     12.44257   -446.33533   -433.89276   -2086.1631   -11986.739   -4410.2981    10138.547    15.552761    13.469137    26.247428    5498.3708 
   34000       33.987    321.01336    13.195166   -447.06987    -433.8747    431.76681    -6757.349   -5017.6236    13070.273    15.552763    13.469139     26.24741    5498.3688 
   34500       34.487    326.29836    13.412405   -447.26865   -433.85625   -1207.3507   -9307.7472   -4694.2619    10379.957    15.552766    13.469141    26.247393    5498.3668 
   35000       34.987    316.00062    12.989119   -446.82652    -433.8374   -1545.0878   -9630.8477   -6179.2966    11174.881    15.552768    13.469143    26.247375    5498.3648 
   35500       35.487    331.56325    13.628817   -447.44762    -433.8188   -1666.8077   -10069.726   -8293.6615    13362.965     15.55277    13.469145    26.247358    5498.3629 
   36000       35.987    330.50294    13.585233   -447.38551   -433.80028   -1776.6882   -9493.8427   -6103.9551    10267.733    15.552773    13.469148     26.24734    5498.3609 
   36500       36.487    337.48262    13.872131   -447.65292   -433.78079   -83.349246   -4976.0165    -5299.945    10025.914    15.552775     13.46915    26.247323    5498.3589 
   37000       36.987    322.85242     13.27076   -447.03274   -433.76198   -710.37361   -9529.2549   -5186.2222    12584.356    15.552778    13.469152    26.247305    5498.3569 
   37500       37.487    307.16215    12.625816   -446.36813   -433.74231   -932.17911   -10904.237   -2858.8137    10966.513     15.55278    13.469154    26.247288    5498.3549 
   38000       37.987    330.44707    13.582936   -447.30681   -433.72387    72.155724   -6586.4095   -6242.0731     13044.95    15.552782    13.469156     26.24727     5498.353 
   38500       38.487     335.7448    13.800698   -447.50545   -433.70476   -1739.0261   -11581.964   -5799.4801    12164.366    15.552785    13.469158    26.247253     5498.351 
   39000       38.987    312.95816     12.86406   -446.54952   -433.68546    -705.8276    -8957.266   -6254.6321    13094.415    15.552787     13.46916    26.247235     5498.349 
   39500       39.487    324.86139    13.353339   -447.01962   -433.66628    79.666605   -9215.2069    -1979.079    11433.286     15.55279    13.469162    26.247218     5498.347 
   40000       39.987    304.29296    12.507879   -446.15483   -433.64695     -255.657   -11678.472   -2730.5339    13642.035    15.552792    13.469164      26.2472     5498.345 
   40500       40.487    342.60631    14.082738   -447.71073   -433.62799   -1779.2624   -9697.9802   -5227.1152    9587.3082    15.552794    13.469166    26.247183    5498.3431 
   41000       40.987    333.48962       13.708   -447.31685   -433.60885   -169.18639   -10013.779   -6071.3838    15577.603    15.552797    13.469168    26.247165    5498.3411 
   41500       41.487    334.44407    13.747232     -447.337   -433.58977    -803.4831    -9971.351   -3192.5076    10753.409    15.552799     13.46917    26.247148    5498.3391 
   42000       41.987    348.68525    14.332612   -447.90306   -433.57045   -1543.9623   -11383.242   -4742.3616    11493.717    15.552802    13.469172     26.24713    5498.3371 
   42500       42.487    319.90282    13.149518   -446.70002    -433.5505   -712.86625   -9554.3799   -4379.1499    11794.931    15.552804    13.469174    26.247113    5498.3351 
   43000       42.987    312.25067    12.834978   -446.36645   -433.53147    -644.2668   -8077.3086   -5374.3963    11518.904    15.552806    13.469176    26.247095    5498.3332 
   43500       43.487    323.67088    13.304403   -446.81699   -433.51258   -178.89123   -8451.9411   -3695.3749    11610.642    15.552809    13.469178    26.247078    5498.3312 
   44000       43.987    331.58215    13.629593   -447.12299   -433.49339    -864.1808   -8726.9065   -7290.1392    13424.503    15.552811     13.46918     26.24706    5498.3292 
   44500       44.487     312.4398    12.842752    -446.3171   -433.47434    398.38267   -6902.4328   -4129.6281    12227.209    15.552814    13.469182    26.247043    5498.3272 
   45000       44.987    320.54181    13.175783   -446.63137   -433.45559   -432.25562   -10312.089   -4351.1707    13366.493    15.552816    13.469184    26.247025    5498.3252 
   45500       45.487    329.29784    13.535697   -446.97281   -433.43711   -1585.0505   -10327.888   -2783.5313    8356.2673    15.552818    13.469186    26.247008    5498.3232 
   46000       45.987    323.20793    13.285373   -446.70333   -433.41796   -658.51159   -9518.9643   -4507.0007     12050.43    15.552821    13.469189     26.24699    5498.3213 
   46500       46.487    324.78268    13.350103   -446.74931   -433.39921    641.52689   -8704.0097   -4896.2631    15524.853    15.552823    13.469191    26.246973    5498.3193 
   47000       46.987    305.25721    12.547514   -445.92804   -433.38053   -1084.6506   -11514.338   -5005.4764    13265.863    15.552826    13.469193    26.246955    5498.3173 
   47500       47.487    320.43033    13.171201   -446.53299   -433.36178   -844.91977   -9144.8649   -5507.3617    12117.467    15.552828    13.469195    26.246938    5498.3153 
   48000       47.987    311.05464    12.785816   -446.12889   -433.34307    107.41101   -10705.714   -3337.5276    14365.474     15.55283    13.469197     26.24692    5498.3133 
   48500       48.487    340.51067    13.996598   -447.32221   -433.32561   -771.17091   -8789.9971   -5405.9185    11882.403    15.552833    13.469199    26.246903    5498.3114 
   49000       48.987    344.02368    14.140999   -447.44778   -433.30678    -865.3114   -9813.3467   -4927.6581    12145.071    15.552835    13.469201    26.246885    5498.3094 
   49500       49.487    319.26693     13.12338    -446.4117   -433.28832   -1314.2515   -9597.3687   -6307.1709    11961.785    15.552838    13.469203    26.246868    5498.3074 
   50000       49.987    318.21516    13.080147   -446.35026   -433.27011   -501.81831   -11716.109    -2428.146      12638.8     15.55284    13.469205     26.24685    5498.3054 
   50500       50.487    325.20708    13.367548   -446.61984   -433.25229   -445.18009   -9764.7464   -4651.7551    13080.961    15.552842    13.469207    26.246833    5498.3034 
   51000       50.987     346.8279    14.256266   -447.49144   -433.23517   -159.67867    -9919.118   -3168.1551    12608.237    15.552845    13.469209    26.246815    5498.3015 
   51500       51.487    338.09421     13.89727   -447.11477    -433.2175   -632.01236     -10220.7   -4982.3894    13307.053    15.552847    13.469211    26.246798    5498.2995 
   52000       51.987    328.57846    13.506128   -446.70561   -433.19948     565.3333   -10117.492   -6028.8617    17842.353     15.55285    13.469213     26.24678    5498.2975 
   52500       52.487    326.28723    13.411947   -446.59352   -433.18158     291.4741   -11658.405   -492.59917    13025.426    15.552852    13.469215    26.246763    5498.2955 
   53000       52.987     344.5656    14.163275   -447.32773   -433.16445   -1100.0202   -8427.9311   -4706.0178    9833.8882    15.552854    13.469217    26.246745    5498.2935 
   53500       53.487    340.62299    14.001215    -447.1484   -433.14719   -597.35594   -10253.746   -4304.8102    12766.488    15.552857    13.469219    26.246728    5498.2916 
   54000       53.987     320.6193    13.178969   -446.30837    -433.1294    99.036315   -6568.5266   -8982.9791    15848.615    15.552859    13.469221     26.24671    5498.2896 
   54500       54.487    339.70559    13.963505   -447.07631    -433.1128   -362.04057   -7775.6571   -3839.5719    10529.107    15.552862    13.469223    26.246693    5498.2876 
   55000       54.987    336.40248    13.827732   -446.92288   -433.09515   -156.75645   -9369.1211   -4089.9823    12988.834    15.552864    13.469225    26.246675    5498.2856 
   55500       55.487    339.47439    13.954002   -447.03293   -433.07893   -1685.8873   -10021.318   -6936.4216    11900.078    15.552866    13.469227    26.246658    5498.2836 
   56000       55.987    331.64603    13.632219   -446.69439   -433.06217    257.03191   -9505.7904   -6114.0085    16390.895    15.552869     13.46923     26.24664    5498.2817 
   56500       56.487    329.07241    13.526431   -446.57042   -433.04399    -445.6681   -8624.3977   -5361.4758    12648.869    15.552871    13.469232    26.246623    5498.2797 
   57000       56.987    335.48097    13.789853   -446.81692   -433.02707   -463.22938   -7401.3045   -5700.3855    11712.002    15.552874    13.469234    26.246605    5498.2777 
   57500       57.487    336.74744    13.841911   -446.85252   -433.01061   -442.84231   -10773.536   -5429.0131    14874.022    15.552876    13.469236    26.246588    5498.2757 
   58000       57.987    339.59282     13.95887   -446.95342   -432.99455    693.76489   -9497.7897   -3304.6313    14883.716    15.552878    13.469238     26.24657    5498.2737 
   58500       58.487    339.83472    13.968813   -446.94652   -432.97771   -176.98063   -9272.7345   -3875.8973     12617.69    15.552881     13.46924    26.246553    5498.2717 
   59000       58.987    337.34185    13.866344   -446.82754    -432.9612    184.85691   -7219.8556   -6779.4401    14553.866    15.552883    13.469242    26.246535    5498.2698 
   59500       59.487    327.50209    13.461884    -446.4064   -432.94452    759.40669   -9499.9134   -4430.0445    16208.178    15.552886    13.469244    26.246518    5498.2678 
   60000       59.987    337.97178    13.892237   -446.82063   -432.92839   -269.65605   -10201.375   -6570.4614    15962.868    15.552888    13.469246      26.2465    5498.2658 
   60500       60.487    333.10334    13.692122   -446.60406   -432.91194   -380.86344   -9478.3099   -5684.2594    14019.979     15.55289    13.469248    26.246483    5498.2638 
   61000       60.987    312.53916    12.846836   -445.74287   -432.89603   -430.73971   -9212.3512    -5951.175    13871.307    15.552893     13.46925    26.246465    5498.2618 
   61500       61.487    331.83069     13.63981   -446.52054   -432.88073   -536.73892    -9275.772   -4638.8206    12304.376    15.552895    13.469252    26.246448    5498.2599 
   62000       61.987    353.66707    14.537388   -447.40259    -432.8652   -1679.9602   -12322.597   -2422.9609    9705.6775    15.552898    13.469254     26.24643    5498.2579 
   62500       62.487    356.97001    14.673155   -447.52221   -432.84906   -992.64569   -10523.674   -6450.2824    13996.019      15.5529    13.469256    26.246413    5498.2559 
   63000       62.987    327.86034    13.476609   -446.30882   -432.83221    452.06794   -11236.034   -4819.2038    17411.442    15.552902    13.469258    26.246395    5498.2539 
   63500       63.487     319.2894    13.124303   -445.94085   -432.81655    1214.7346   -7989.6481   -2618.6409    14252.493    15.552905     13.46926    26.246378    5498.2519 
   64000       63.987     335.9199    13.807895   -446.60879    -432.8009   -115.56576   -8764.5482   -4867.2814    13285.132    15.552907    13.469262     26.24636      5498.25 
   64500       64.487    335.90463    13.807268   -446.59277    -432.7855   -623.48291   -9076.1748   -3466.4577    10672.184     15.55291    13.469264    26.246343     5498.248 
   65000       64.987    342.92036    14.095647   -446.86558   -432.76993    656.27791   -7735.9113   -2622.8109    12327.556    15.552912    13.469266    26.246325     5498.246 
   65500       65.487    325.73364    13.389192   -446.14278   -432.75359    1177.6119   -8008.7187   -3486.2228    15027.777    15.552914    13.469268    26.246308     5498.244 
   66000       65.987    342.20893    14.066405   -446.80437   -432.73796   -318.82369   -9813.9842   -3930.1407    12787.654    15.552917    13.469271     26.24629     5498.242 
   66500       66.487    340.52185    13.997058   -446.71903   -432.72197   -362.26272   -10470.865   -988.12043    10372.198    15.552919    13.469273    26.246273    5498.2401 
   67000       66.987    329.16134    13.530087   -446.23626   -432.70617    576.74573    -6623.013   -5175.3252    13528.575    15.552922    13.469275    26.246255    5498.2381 
   67500       67.487    310.56149    12.765545   -445.45538   -432.68983   -672.65051   -10678.066   -3815.9804    12476.095    15.552924    13.469277    26.246238    5498.2361 
   68000       67.987    344.69631    14.168647   -446.84334   -432.67469    918.01744    -7088.294   -2068.4915    11910.838    15.552926    13.469279     26.24622    5498.2341 
   68500       68.487    343.61771    14.124312   -446.78316   -432.65884     642.0236   -9020.8113   -4516.8829    15463.765    15.552929    13.469281    26.246203    5498.2321 
   69000       68.987    322.57128    13.259204   -445.90202   -432.64282    546.30217   -7873.9507   -5486.4742    14999.331    15.552931    13.469283    26.246185    5498.2302 
   69500       69.487    360.44428    14.815963   -447.44317    -432.6272    99.487692   -10423.809   -1963.4603    12685.732    15.552934    13.469285    26.246168    5498.2282 
   70000       69.987    348.88809    14.340949   -446.95267   -432.61172   -544.87902    -10660.95   -2876.3172     11902.63    15.552936    13.469287     26.24615    5498.2262 
   70500       70.487     348.4877    14.324491   -446.91964   -432.59514   -1200.9206   -10306.971   -4166.2608     10870.47    15.552938    13.469289    26.246133    5498.2242 
   71000       70.987    342.41507    14.074878   -446.65402   -432.57914   -896.88571   -10001.952   -3134.7495    10446.044    15.552941    13.469291    26.246115    5498.2222 
   71500       71.487    359.93628    14.795082   -447.35899   -432.56391   -1257.9324   -10267.193   -3268.3217     9761.718    15.552943    13.469293    26.246098    5498.2202 
   72000       71.987    338.29778    13.905637   -446.45311   -432.54747   -260.98178   -10464.316   -5066.0375    14747.408    15.552946    13.469295     26.24608    5498.2183 
   72500       72.487     329.7599     13.55469   -446.08603   -432.53134    472.95323   -6894.9878   -3493.0397    11806.887    15.552948    13.469297    26.246063    5498.2163 
   73000       72.987    351.72548    14.457579    -446.9738   -432.51622    812.03648   -6669.6936   -4025.6361    13131.439     15.55295    13.469299    26.246045    5498.2143 
   73500       73.487    346.79739    14.255012   -446.75586   -432.50085   -593.80448   -8925.4211   -3719.4501    10863.458    15.552953    13.469301    26.246028    5498.2123 
   74000       73.987    337.09706    13.856282   -446.34093   -432.48465    79.243521    -7265.405   -3084.6046     10587.74    15.552955    13.469303     26.24601    5498.2103 
   74500       74.487    316.81151     13.02245   -445.49043   -432.46798    994.92291   -7665.1535   -2488.7073    13138.629    15.552958    13.469305    26.245993    5498.2084 
   75000       74.987    349.91916    14.383331   -446.83599   -432.45266   -27.585261   -8978.6437   -6291.4188    15187.307     15.55296    13.469307    26.245975    5498.2064 
   75500       75.487    353.98563    14.550483   -446.98676   -432.43627   -848.80294   -8603.3869   -4429.9592    10486.937    15.552962    13.469309    26.245958    5498.2044 
   76000       75.987    342.08265    14.061214   -446.48065   -432.41944   -213.23146   -10416.707   -3484.2117    13261.225    15.552965    13.469312     26.24594    5498.2024 
   76500       76.487    344.01771    14.140754   -446.54393   -432.40318   -736.66303   -9926.9933   -3073.3172    10790.321    15.552967    13.469314    26.245923    5498.2004 
   77000       76.987    362.31954    14.893046   -447.28026   -432.38722   -1365.0702     -9242.78   -4208.2345    9355.8039     15.55297    13.469316    26.245905    5498.1985 
   77500       77.487    341.04771    14.018673   -446.38902   -432.37035    454.99756   -7581.2293   -4974.6993    13920.921    15.552972    13.469318    26.245888    5498.1965 
   78000       77.987    337.37915    13.867878   -446.22167   -432.35379   -8.1714859   -8050.4227   -6339.5162    14365.424    15.552974     13.46932     26.24587    5498.1945 
   78500       78.487    337.01967    13.853101   -446.19047   -432.33736    420.63933   -5932.6302   -5684.9864    12879.535    15.552977    13.469322    26.245853    5498.1925 
   79000       78.987     324.1445    13.323871   -445.64384   -432.31997   -188.27825   -8008.4463   -3236.4899    10680.101    15.552979    13.469324    26.245835    5498.1905 
   79500       79.487    355.24093    14.602081   -446.90554   -432.30346     348.7928   -9218.9203    -4410.509    14675.808    15.552982    13.469326    26.245818    5498.1886 
   80000       79.987     330.5094    13.585499   -445.87223   -432.28673   -550.26501   -8367.7313   -5972.4576    12689.394    15.552984    13.469328      26.2458    5498.1866 
   80500       80.487    361.92359     14.87677   -447.14743   -432.27066     321.1142   -9107.1878   -5232.3048    15302.835    15.552986     13.46933    26.245783    5498.1846 
   81000       80.987    354.07299    14.554073   -446.80783   -432.25376    -539.9266   -7798.9469   -6879.6664    13058.834    15.552989    13.469332    26.245765    5498.1826 
   81500       81.487    350.93531      14.4251    -446.6619    -432.2368    334.87014   -9506.4478   -6755.7152    17266.773    15.552991    13.469334    26.245748    5498.1806 
   82000       81.987    328.03437    13.483763   -445.70313   -432.21936    1167.8109   -7219.2861   -6075.3023    16798.021    15.552994    13.469336     26.24573    5498.1787 
   82500       82.487    361.34877    14.853142   -447.05589   -432.20274    26.321694     -7318.07   -1733.8043    9130.8394    15.552996    13.469338    26.245713    5498.1767 
   83000       82.987    341.28675    14.028498   -446.21375   -432.18526    410.02211   -9417.3686   -2341.7425    12989.177    15.552998     13.46934    26.245695    5498.1747 
   83500       83.487    344.99918    14.181097   -446.34951   -432.16841    1009.7075   -9031.3642   -3913.4373    15973.924    15.553001    13.469342    26.245678    5498.1727 
   84000       83.987    353.57892    14.533765    -446.6846   -432.15083   -734.61902   -9191.6328   -3951.6059    10939.382    15.553003    13.469344     26.24566    5498.1707 
   84500       84.487    350.21537    14.395507   -446.52841    -432.1329    277.46931   -8090.5311   -3162.0737    12085.013    15.553006    13.469346    26.245643    5498.1687 
   85000       84.987    343.54465    14.121309   -446.23699   -432.11568   -892.29412   -10861.742   -5230.3175    13415.177    15.553008    13.469348    26.245625    5498.1668 
   85500       85.487    322.05062    13.237802   -445.33562   -432.09782    790.86621   -7530.5642    -2195.371    12098.534     15.55301     13.46935    26.245608    5498.1648 
   86000       85.987    341.38326    14.032465   -446.11256   -432.08009     173.3672   -8085.1733   -7151.8157    15757.091    15.553013    13.469353     26.24559    5498.1628 
   86500       86.487    337.84486    13.887021   -445.94946   -432.06244    2.7077103   -7930.2324   -4165.8317    12104.187    15.553015    13.469355    26.245573    5498.1608 
   87000       86.987    353.38569    14.525822   -446.57083   -432.04501   -514.48951   -9133.0366     -6013.62    13603.188    15.553018    13.469357    26.245555    5498.1588 
   87500       87.487    347.85949    14.298669   -446.32623   -432.02756    -403.4606   -9263.9877   -4883.4774    12937.083     15.55302    13.469359    26.245538    5498.1569 
   88000       87.987    354.89371    14.587809   -446.59741    -432.0096   -1696.3934   -10549.329   -6261.0772    11721.226    15.553022    13.469361     26.24552    5498.1549 
   88500       88.487     351.4632    14.446799   -446.43851   -431.99172    1290.9614   -7539.8799   -4353.3061     15766.07    15.553025    13.469363    26.245503    5498.1529 
   89000       88.987    355.60191    14.616919   -446.58999   -431.97307   -728.47864   -10444.418   -1860.6847    10119.667    15.553027    13.469365    26.245485    5498.1509 
   89500       89.487    342.77516    14.089679   -446.04429   -431.95461    71.850148   -10784.387   -2497.3806    13497.318     15.55303    13.469367    26.245468    5498.1489 
   90000       89.987    349.46827    14.364798   -446.30088   -431.93609   -492.91082   -8208.7856   -3921.9868     10652.04    15.553032    13.469369     26.24545     5498.147 
   90500       90.487    353.79759    14.542753   -446.46054   -431.91779    456.16769   -9226.1942   -2489.9481    13084.645    15.553034    13.469371    26.245433     5498.145 
   91000       90.987    343.96613    14.138634   -446.03741   -431.89878    189.87656   -8798.5596   -3897.8012     13265.99    15.553037    13.469373    26.245415     5498.143 
   91500       91.487    356.65551    14.660227   -446.54113    -431.8809   -1181.4735   -11420.163   -2358.1947    10233.937    15.553039    13.469375    26.245398     5498.141 
   92000       91.987      337.991    13.893027   -445.75459   -431.86156    414.46037   -9177.4812   -3781.2053    14202.068    15.553042    13.469377     26.24538     5498.139 
   92500       92.487     352.1055      14.4732   -446.31618   -431.84298    -872.0957   -10267.955   -5906.2857    13557.954    15.553044    13.469379    26.245363    5498.1371 
   93000       92.987    353.14459    14.515912   -446.33978   -431.82387   -787.66561   -12038.557   -5510.4274    15185.987    15.553046    13.469381    26.245345    5498.1351 
   93500       93.487    346.43568    14.240144   -446.04499   -431.80484    931.25529   -11294.799   -3136.5035    17225.068    15.553049    13.469383    26.245328    5498.1331 
   94000       93.987    340.17697    13.982881   -445.76823   -431.78535    -296.7276   -8163.8591   -7476.5581    14750.234    15.553051    13.469385     26.24531    5498.1311 
   94500       94.487    360.95594    14.836995   -446.60387   -431.76687   -667.12525   -8349.1105   -6312.8299    12660.565    15.553054    13.469387    26.245293    5498.1291 
   95000       94.987     360.3098    14.810436   -446.55715   -431.74671   -410.67958    -9801.681   -5629.4892    14199.131    15.553056    13.469389    26.245275    5498.1272 
   95500       95.487    336.53528    13.833191   -445.56041   -431.72722    206.51491   -10362.392   -5217.4475    16199.384    15.553058    13.469391    26.245258    5498.1252 
   96000       95.987    390.96429     16.07048   -447.77967   -431.70919   -255.77629   -12152.441   -2342.8374    13727.949    15.553061    13.469394     26.24524    5498.1232 
   96500       96.487    342.75464    14.088836   -445.77735   -431.68852    -186.9038   -10223.712   -737.30686    10400.307    15.553063    13.469396    26.245223    5498.1212 
   97000       96.987    361.68885    14.867121   -446.53557   -431.66845    310.18864   -7387.2429   -3944.1051    12261.914    15.553066    13.469398    26.245205    5498.1192 
   97500       97.487    345.73152    14.211199   -445.85981   -431.64861   -335.69013   -7739.3485    -5215.628    11947.906    15.553068      13.4694    26.245188    5498.1172 
   98000       97.987    345.70636    14.210165   -445.83866   -431.62849   -468.89527   -13053.459   -5394.5932    17041.366     15.55307    13.469402     26.24517    5498.1153 
   98500       98.487    339.70315    13.963405   -445.57226   -431.60885   -620.08285   -10172.247   -1495.2955    9807.2942    15.553073    13.469404    26.245153    5498.1133 
   99000       98.987    342.86336    14.093304   -445.68273   -431.58942    717.52457   -9732.3358   -915.17226    12800.082    15.553075    13.469406    26.245135    5498.1113 
   99500       99.487    344.28804    14.151865   -445.72133   -431.56946    -167.2643   -10354.859   -3217.3846     13070.45    15.553078    13.469408    26.245118    5498.1093 
  100000       99.987     351.7378    14.458086   -446.00694   -431.54885    1645.6829   -9591.5606   -4474.8051    19003.415     15.55308     13.46941      26.2451    5498.1073 
  100500      100.487    332.28869    13.658636   -445.18678   -431.52814   -452.30709   -10280.482   -3684.3224    12607.883    15.553082    13.469412    26.245083    5498.1054 
  101000      100.987    361.90679     14.87608   -446.38442   -431.50834    45.344952   -8059.0466   -2828.4152    11023.497    15.553085    13.469414    26.245065    5498.1034 
  101500      101.487    369.08763    15.171246   -446.65952   -431.48827    38.337275   -9968.1882   -3500.5965    13583.797    15.553087    13.469416    26.245048    5498.1014 
  102000      101.987    355.21118    14.600858   -446.06794   -431.46708   -1271.5318   -9918.5431   -5329.0504    11432.998     15.55309    13.469418     26.24503    5498.0994 
  102500      102.487    356.89736    14.670168   -446.11667    -431.4465    454.04085    -8059.318   -3941.8777    13363.318    15.553092     13.46942    26.245013    5498.0974 
  103000      102.987    356.26415     14.64414   -446.07007   -431.42593   -297.49368   -9292.3735   -7162.8073      15562.7    15.553094    13.469422    26.244995    5498.0955 
  103500      103.487    360.56478    14.820917   -446.22667   -431.40576    43.148678   -11551.358   -5144.9853    16825.789    15.553097    13.469424    26.244978    5498.0935 
  104000      103.987    347.57569    14.287003   -445.67136   -431.38436    908.20157   -9141.2853    -4005.771    15871.661    15.553099    13.469426     26.24496    5498.0915 
  104500      104.487    355.99722    14.633168   -445.99704   -431.36388   -284.91228   -8324.2777   -5902.9433    13372.484    15.553102    13.469428    26.244943    5498.0895 
  105000      104.987    377.31137     15.50928   -446.85236   -431.34308   -277.01838   -8219.3928   -3472.9508    10861.288    15.553104     13.46943    26.244925    5498.0875 
  105500      105.487    353.99962    14.551057   -445.87283   -431.32177    244.37562   -9901.3648    -5014.913    15649.405    15.553106    13.469432    26.244908    5498.0856 
  106000      105.987    364.17183    14.969183   -446.27012   -431.30094    -797.2606   -9115.1766   -4251.1323    10974.527    15.553109    13.469435     26.24489    5498.0836 
  106500      106.487    346.06021     14.22471    -445.5037   -431.27899    686.00051    -11071.82   -1919.1957    15049.018    15.553111    13.469437    26.244873    5498.0816 
  107000      106.987    342.68134    14.085822   -445.34361   -431.25779    -128.1234   -7772.1544    -5450.125    12837.909    15.553114    13.469439    26.244855    5498.0796 
  107500      107.487    351.79809    14.460564   -445.69745   -431.23689     1061.816   -6733.0896    -1730.907    11649.445    15.553116    13.469441    26.244838    5498.0776 
  108000      107.987    355.81742    14.625778   -445.84135   -431.21558    722.18462   -8727.8061   -4990.1063    15884.466    15.553118    13.469443     26.24482    5498.0756 
  108500      108.487     340.8856    14.012009   -445.20572   -431.19371    1255.0784   -9131.2499   -4662.7107    17559.196    15.553121    13.469445    26.244803    5498.0737 
  109000      108.987    362.08232    14.883295   -446.05549   -431.17219    488.23902   -6848.7138   -6875.4024    15188.833    15.553123    13.469447    26.244785    5498.0717 
  109500      109.487    361.80842    14.872036   -446.02231   -431.15028    365.56916    -10903.72   -3735.5553    15735.983    15.553126    13.469449    26.244768    5498.0697 
  110000      109.987    363.79294    14.953609    -446.0822   -431.12859     222.1023   -9566.9183   -2211.1964    12444.422    15.553128    13.469451     26.24475    5498.0677 
  110500      110.487    365.56363    15.026393   -446.13303   -431.10664    482.08398   -10833.354   -6235.8087    18515.415     15.55313    13.469453    26.244733    5498.0657 
  111000      110.987    358.65996     14.74262   -445.82759   -431.08497   -360.06109   -9095.4568   -1880.9259    9896.1994    15.553133    13.469455    26.244715    5498.0638 
  111500      111.487    358.49365    14.735783   -445.79908    -431.0633   -15.160157   -9016.8372    -5666.848    14638.205    15.553135    13.469457    26.244698    5498.0618 
  112000      111.987    368.78906    15.158973   -446.20081   -431.04184     553.4893   -9828.2063   -2906.4438    14395.118    15.553138    13.469459     26.24468    5498.0598 
  112500      112.487    363.75772    14.952162    -445.9717   -431.01954    967.97473   -8009.4813   -4949.8848     15863.29     15.55314    13.469461    26.244663    5498.0578 
  113000      112.987    393.97837    16.194373   -447.19254   -430.99816   -349.74808   -9703.7178   -3074.5483    11729.022    15.553142    13.469463    26.244645    5498.0558 
  113500      113.487    358.21667    14.724398   -445.69981   -430.97541    1738.1339   -9787.3217   -4692.6694    19694.393    15.553145    13.469465    26.244628    5498.0539 
  114000      113.987    359.97331    14.796604   -445.75018   -430.95358    933.74147   -8719.2719   -4528.1741     16048.67    15.553147    13.469467     26.24461    5498.0519 
  114500      114.487    350.83651    14.421039   -445.35238   -430.93134    1115.3144   -8791.7028   -2766.0883    14903.734     15.55315    13.469469    26.244593    5498.0499 
  115000      114.987    377.06629    15.499207   -446.40834   -430.90913    924.29764   -8426.0849    -4449.007    15647.985    15.553152    13.469471    26.244575    5498.0479 
  115500      115.487    367.87298    15.121318   -446.00863   -430.88731   -222.11092   -7794.8683   -5816.7605    12945.296    15.553154    13.469473    26.244558    5498.0459 
  116000      115.987    379.83336    15.612946   -446.47811   -430.86516   -1301.8622   -10177.389   -2975.7766    9247.5792    15.553157    13.469476     26.24454     5498.044 
  116500      116.487    346.15497    14.228605   -445.07026   -430.84165     1702.104   -6061.5525   -2328.3522    13496.217    15.553159    13.469478    26.244523     5498.042 
  117000      116.987    351.55129     14.45042   -445.26996   -430.81954    360.52307   -7760.9219   -5593.2727    14435.764    15.553162     13.46948    26.244505      5498.04 
  117500      117.487    355.53523    14.614178   -445.41215   -430.79797   -189.15684   -10989.698   -3741.0406    14163.268    15.553164    13.469482    26.244488     5498.038 
  118000      117.987    368.40292    15.143101   -445.91837   -430.77527    561.84936   -7186.1217   -2835.8358    11707.506    15.553166    13.469484     26.24447     5498.036 
  118500      118.487    340.94334    14.014383   -444.76635   -430.75197    1286.4969   -8681.9792   -2484.7605     15026.23    15.553169    13.469486    26.244453     5498.034 
  119000      118.987    339.23502    13.944163   -444.67371   -430.72955    1119.6301   -7432.7887   -4098.1632    14889.842    15.553171    13.469488    26.244435    5498.0321 
  119500      119.487    365.27924    15.014703   -445.72204   -430.70733    935.36538   -12127.477   -3155.4568     18089.03    15.553174     13.46949    26.244418    5498.0301 
  120000      119.987    358.05013    14.717553   -445.40275   -430.68519    192.18964   -8924.6564   -6349.2532    15850.479    15.553176    13.469492      26.2444    5498.0281 
  120500      120.487    365.78893    15.035654   -445.69785    -430.6622    847.39148   -8637.8431   -4476.9883    15657.006    15.553178    13.469494    26.244383    5498.0261 
  121000      120.987    354.27959    14.562566   -445.20133   -430.63877    424.42482   -8327.5789   -5308.5975    14909.451    15.553181    13.469496    26.244365    5498.0241 
  121500      121.487    360.33166    14.811334   -445.42817   -430.61684   -332.28838   -9676.4271   -2896.7685    11576.331    15.553183    13.469498    26.244348    5498.0222 
  122000      121.987    364.07523    14.965213   -445.55886   -430.59365    941.44048   -7251.6409   -5008.5138    15084.476    15.553186      13.4695     26.24433    5498.0202 
  122500      122.487    347.70394    14.292275   -444.86285   -430.57058    1958.1912   -9169.4434   -3691.7757    18735.793    15.553188    13.469502    26.244313    5498.0182 
  123000      122.987    370.41514    15.225813   -445.77337   -430.54756    132.77641   -10405.761    -2617.526    13421.616     15.55319    13.469504    26.244295    5498.0162 
  123500      123.487     379.1434    15.584586    -446.1094   -430.52481   -207.61926   -10282.901   -3647.6664    13307.709    15.553193    13.469506    26.244278    5498.0142 
  124000      123.987    361.54702    14.861291   -445.36367   -430.50238    619.80299   -10165.062   -4879.6597    16904.131    15.553195    13.469508     26.24426    5498.0123 
  124500      124.487    354.07717    14.554245   -445.03328   -430.47904   -1420.8827   -9245.2478   -7490.8855    12473.485    15.553198     13.46951    26.244243    5498.0103 
  125000      124.987    349.21923    14.354561   -444.81037   -430.45581    1264.3188    -2727.961    -5049.951    11570.869      15.5532    13.469512    26.244225    5498.0083 
  125500      125.487     354.4104    14.567942   -445.00041   -430.43247    747.20843   -9933.3149   -1200.0893    13375.029    15.553202    13.469514    26.244208    5498.0063 
  126000      125.987    393.17249    16.161247   -446.57239   -430.41114    806.55085   -8124.9008   -3865.5978    14410.151    15.553205    13.469517     26.24419    5498.0043 
  126500      126.487    370.13028    15.214104   -445.60095   -430.38685    1517.0167    -8149.667   -4059.3658    16760.083    15.553207    13.469519    26.244173    5498.0024 
  127000      126.987    379.49942     15.59922   -445.96311   -430.36389    244.23356    -8758.461   -4990.6784     14481.84     15.55321    13.469521    26.244155    5498.0004 
  127500      127.487    351.86094    14.463147   -444.80347   -430.34032     1678.058   -10330.171   -2394.3846     17758.73    15.553212    13.469523    26.244138    5497.9984 
  128000      127.987    358.20833    14.724055   -445.04056   -430.31651    1852.8043   -8734.5469   -3304.6174    17597.577    15.553214    13.469525     26.24412    5497.9964 
  128500      128.487    347.27588     14.27468   -444.56794   -430.29326    2557.9225    -9831.118   -339.57755    17844.463    15.553217    13.469527    26.244103    5497.9944 
  129000      128.987    395.49772    16.256826   -446.52795   -430.27113    1157.3634   -7892.5199   -7246.7808    18611.391    15.553219    13.469529    26.244085    5497.9924 
  129500      129.487    352.91758     14.50658   -444.75355   -430.24697    1509.3211   -10046.964   -3004.5605    17579.488    15.553222    13.469531    26.244068    5497.9905 
  130000      129.987    376.39054     15.47143   -445.69547   -430.22404    1533.4763   -7642.0741   -3685.6431    15928.146    15.553224    13.469533     26.24405    5497.9885 
  130500      130.487    355.79991    14.625058   -444.82565   -430.20059    1613.6848   -8872.6103   -2530.3931    16244.058    15.553226    13.469535    26.244033    5497.9865 
  131000      130.987    406.90442    16.725695   -446.90288   -430.17719   -272.49178   -9503.7557   -6014.0379    14700.318    15.553229    13.469537    26.244015    5497.9845 
  131500      131.487    367.58872    15.109634   -445.26305   -430.15342   -351.46291   -8097.9638   -4374.5022    11418.077    15.553231    13.469539    26.243998    5497.9825 
  132000      131.987    400.25304    16.452292   -446.58279    -430.1305    -341.7014   -8108.3952   -6824.7759    13908.067    15.553234    13.469541     26.24398    5497.9806 
  132500      132.487    369.17702     15.17492   -445.28132    -430.1064    599.79689   -11641.266   -3869.6707    17310.327    15.553236    13.469543    26.243963    5497.9786 
  133000      132.987    367.96769    15.125211   -445.20747   -430.08226    745.47783   -10799.048   -1745.7572    14781.238    15.553238    13.469545    26.243945    5497.9766 
  133500      133.487    372.50491    15.311712   -445.37064   -430.05893    277.73384   -8472.5425    -2485.986     11791.73    15.553241    13.469547    26.243928    5497.9746 
  134000      133.987    373.36493    15.347063   -445.38272   -430.03566    1369.1639   -9015.5437   -3778.2825    16901.318    15.553243    13.469549     26.24391    5497.9726 
  134500      134.487    386.87413    15.902355   -445.91521   -430.01285    1001.8952   -9339.2324    -4946.327    17291.245    15.553246    13.469551    26.243893    5497.9707 
  135000      134.987    390.80336    16.063865   -446.05212   -429.98825    804.55681   -9497.7359   -4224.0369    16135.443    15.553248    13.469553    26.243875    5497.9687 
  135500      135.487    369.61867    15.193074    -445.1576   -429.96452    882.41619   -9390.5306   -1717.2388    13755.018     15.55325    13.469555    26.243858    5497.9667 
  136000      135.987    379.10501    15.583008   -445.52428   -429.94127     757.5122   -8612.3683   -3860.0655     14744.97    15.553253    13.469558     26.24384    5497.9647 
  136500      136.487    374.30708     15.38579   -445.30355   -429.91776    1764.1078   -6922.1459   -2931.2637    15145.733    15.553255     13.46956    26.243823    5497.9627 
  137000      136.987    376.98936    15.496044   -445.38977   -429.89373    1438.7434   -9547.6306   -1066.9962    14930.857    15.553258    13.469562    26.243805    5497.9608 
  137500      137.487    362.23789    14.889689   -444.75918   -429.86949    1607.5556   -7962.5061   -1852.4334    14637.606     15.55326    13.469564    26.243788    5497.9588 
  138000      137.987    369.11873    15.172524   -445.01822    -429.8457    1214.7658   -7179.6957   -5219.0815    16043.075    15.553262    13.469566     26.24377    5497.9568 
  138500      138.487      372.615    15.316237   -445.13847   -429.82223     1809.756   -9293.9017    -1104.647    15827.817    15.553265    13.469568    26.243753    5497.9548 
  139000      138.987    366.61598    15.069649   -444.86801   -429.79836    1014.0107   -9160.0346   -2976.6441    15178.711    15.553267     13.46957    26.243735    5497.9528 
  139500      139.487    384.33294      15.7979   -445.57305   -429.77515    349.11866   -6147.2748   -6005.1106    13199.741     15.55327    13.469572    26.243718    5497.9508 
  140000      139.987    366.69239     15.07279   -444.82332   -429.75052    1509.1858   -7040.9377   -2860.1266    14428.622    15.553272    13.469574      26.2437    5497.9489 
  140500      140.487    375.28029    15.425794   -445.15321   -429.72741    1579.5107   -7093.8719   -1045.4378    12877.842    15.553274    13.469576    26.243683    5497.9469 
  141000      140.987    360.63111    14.823643   -444.52704    -429.7034    1644.5355   -9203.3815   -5266.2547    19403.243    15.553277    13.469578    26.243665    5497.9449 
  141500      141.487    379.51215    15.599743   -445.27962   -429.67988    3310.1631   -7450.6048   -1563.6085    18944.702    15.553279     13.46958    26.243648    5497.9429 
  142000      141.987    367.14677    15.091467   -444.74664   -429.65517    1547.9863   -7206.8257   -2184.4527    14035.237    15.553282    13.469582     26.24363    5497.9409 
  142500      142.487    371.39014     15.26589   -444.89757   -429.63168    1729.1599   -7087.1789   -1597.0469    13871.705    15.553284    13.469584    26.243613     5497.939 
  143000      142.987    387.69525    15.936107   -445.54412   -429.60801    1406.8592   -7001.5437   -3335.2799    14557.401    15.553286    13.469586    26.243595     5497.937 
  143500      143.487    362.03315    14.881274   -444.46452   -429.58325    3159.7881   -7723.7377   -1391.4684     18594.57    15.553289    13.469588    26.243578     5497.935 
  144000      143.987    368.73706    15.156836    -444.7155   -429.55866    2110.7216   -6648.8256   -3977.4562    16958.447    15.553291     13.46959     26.24356     5497.933 
  144500      144.487    362.44901    14.898367   -444.43296   -429.53459    2110.4031   -7883.3812   -2120.0062    16334.597    15.553294    13.469592    26.243543     5497.931 
  145000      144.987    390.00395    16.031005   -445.54209   -429.51109    624.47942   -7186.8566   -6954.6676    16014.962    15.553296    13.469594    26.243525    5497.9291 
  145500      145.487    359.65919    14.783693   -444.26928   -429.48559    1944.8711     -9048.05   -1981.8936    16864.557    15.553298    13.469596    26.243508    5497.9271 
  146000      145.987    388.44255    15.966825   -445.42896   -429.46213    1983.8019   -8729.7961   -1069.1269    15750.329    15.553301    13.469599     26.24349    5497.9251 
  146500      146.487    401.42084    16.500294   -445.93812   -429.43782    169.80386   -9552.0011   -2866.4591    12927.872    15.553303    13.469601    26.243473    5497.9231 
  147000      146.987    392.92605    16.151118   -445.56443   -429.41332   -410.80919   -8309.5395    -6543.267    13620.379    15.553306    13.469603    26.243455    5497.9211 
  147500      147.487    383.87963    15.779267   -445.16763   -429.38837    2359.4497   -7622.1402    -4283.678    18984.167    15.553308    13.469605    26.243438    5497.9192 
  148000      147.987    391.24347    16.081956   -445.44549   -429.36354    283.88014   -10656.685   -6321.5272    17829.852     15.55331    13.469607     26.24342    5497.9172 
  148500      148.487    398.66301    16.386934   -445.72601   -429.33907    1051.8069   -7359.1571   -2843.2957    13357.873    15.553313    13.469609    26.243403    5497.9152 
  149000      148.987    368.33556    15.140332   -444.45547   -429.31514    2453.2995   -5562.2809   -5538.4016    18460.581    15.553315    13.469611    26.243385    5497.9132 
  149500      149.487    391.51537    16.093132   -445.38406   -429.29093    1056.7443   -8820.8797   -5359.7942    17350.907    15.553318    13.469613    26.243368    5497.9112 
  150000      149.987    383.09197     15.74689   -445.01328   -429.26639    1450.7937   -6568.0951   -3487.1264    14407.603     15.55332    13.469615     26.24335    5497.9092 
  150500      150.487    391.59426    16.096375   -445.33864   -429.24226     1273.984   -8005.5999   -4504.2134    16331.765    15.553322    13.469617    26.243333    5497.9073 
  151000      150.987    395.39509    16.252607   -445.46961   -429.21701    730.06394   -8040.2698   -4529.1914    14759.653    15.553325    13.469619    26.243315    5497.9053 
  151500      151.487    392.80667    16.146211    -445.3395   -429.19329    964.06795    -9278.642   -3702.1082    15872.954    15.553327    13.469621    26.243298    5497.9033 
  152000      151.987    367.61882    15.110871    -444.2785   -429.16763    1405.1584    -9028.535   -1123.7755    14367.786     15.55333    13.469623     26.24328    5497.9013 
  152500      152.487    380.99783    15.660811   -444.80477   -429.14396    1129.6171   -7016.2575   -3223.0139    13628.123    15.553332    13.469625    26.243263    5497.8993 
  153000      152.987    390.41493    16.047899   -445.16713   -429.11923    1293.3233   -7517.0271   -3538.9366    14935.934    15.553334    13.469627    26.243245    5497.8974 
  153500      153.487    373.98406    15.372512   -444.46727   -429.09475     440.5216   -7087.6974   -5080.6918    13489.954    15.553337    13.469629    26.243228    5497.8954 
  154000      153.987    377.16479    15.503255    -444.5732   -429.06995    537.09338   -6534.9802   -3299.5271    11445.787    15.553339    13.469631     26.24321    5497.8934 
  154500      154.487    381.62371    15.686538   -444.73217   -429.04563    1643.7029   -9735.3209   -1716.1157    16382.545    15.553342    13.469633    26.243193    5497.8914 
  155000      154.987     393.4134     16.17115   -445.19242   -429.02127     773.8412   -7464.2135    -4686.816    14472.553    15.553344    13.469635    26.243175    5497.8894 
  155500      155.487    402.71234     16.55338   -445.54963   -428.99625    1349.4809    -9071.376   -5498.0683    18617.887    15.553346    13.469637    26.243158    5497.8875 
  156000      155.987    390.75894    16.062039   -445.03344    -428.9714    1391.1113   -8664.4025   -2623.9945    15461.731    15.553349     13.46964     26.24314    5497.8855 
  156500      156.487    373.01431    15.332651   -444.27828   -428.94563       2577.1   -5929.8936   -6074.0144    19735.208    15.553351    13.469642    26.243123    5497.8835 
  157000      156.987    394.22585    16.204546   -445.12542   -428.92087    956.07193   -9204.0194   -5578.1312    17650.366    15.553354    13.469644    26.243105    5497.8815 
  157500      157.487    377.13997    15.502235   -444.39874    -428.8965    1554.0991   -10529.616   -1460.3701    16652.284    15.553356    13.469646    26.243088    5497.8795 
  158000      157.987    392.75591    16.144124   -445.01638   -428.87226     1768.191   -7873.6954   -1727.3175    14905.586    15.553358    13.469648     26.24307    5497.8775 
  158500      158.487    376.79402    15.488015   -444.33445   -428.84643    1975.5766   -7823.7695   -5606.3835    19356.883    15.553361     13.46965    26.243053    5497.8756 
  159000      158.987    386.08648    15.869979   -444.69191   -428.82193    1129.2936   -9637.5596   -1596.8615    14622.302    15.553363    13.469652    26.243035    5497.8736 
  159500      159.487    401.34217     16.49706   -445.29398   -428.79692    914.63181   -9519.6793    -2401.731    14665.306    15.553366    13.469654    26.243018    5497.8716 
  160000      159.987    382.06698    15.704759   -444.47636    -428.7716    649.97648   -6994.0386   -4384.9523     13328.92    15.553368    13.469656       26.243    5497.8696 
  160500      160.487    405.13055     16.65278   -445.40031   -428.74753    1320.3025   -8425.0753    -665.1158    13051.098     15.55337    13.469658    26.242983    5497.8676 
  161000      160.987    383.34638    15.757348   -444.47869   -428.72134    312.88568    -9208.285   -3523.7822    13670.724    15.553373     13.46966    26.242965    5497.8657 
  161500      161.487    392.57168    16.136551   -444.83318   -428.69663    2794.0167   -7017.2018    -3095.054    18494.306    15.553375    13.469662    26.242948    5497.8637 
  162000      161.987    374.64924    15.399854   -444.07085     -428.671    1711.9622   -7913.3626   -7117.6527    20166.902    15.553378    13.469664     26.24293    5497.8617 
  162500      162.487    387.75298     15.93848   -444.58434   -428.64586     862.7899   -9600.6784   -3590.3231    15779.371     15.55338    13.469666    26.242913    5497.8597 
  163000      162.987    394.39159    16.211358   -444.83261   -428.62125    2918.8267   -6714.7137    218.98042    15252.213    15.553382    13.469668    26.242895    5497.8577 
  163500      163.487    369.73936    15.198035   -443.79446   -428.59643    2815.9927   -9228.1868   -3818.4046    21494.569    15.553385     13.46967    26.242878    5497.8558 
  164000      163.987    391.10494    16.076261   -444.64774   -428.57147    1023.5826   -8360.1917   -5065.7652    16496.705    15.553387    13.469672     26.24286    5497.8538 
  164500      164.487    397.48313    16.338435   -444.88488   -428.54645    2798.1681   -8893.7048   -3722.2985    21010.508     15.55339    13.469674    26.242843    5497.8518 
  165000      164.987    387.25327     15.91794   -444.43895   -428.52101    927.08769   -8946.1854     -3847.63    15575.078    15.553392    13.469676    26.242825    5497.8498 
  165500      165.487    394.26257    16.206055    -444.7016   -428.49554    1851.3593   -7709.0225    -2151.468    15414.568    15.553394    13.469678    26.242808    5497.8478 
  166000      165.987    407.33349    16.743332   -445.21422   -428.47088    807.57049   -9542.1271   -2601.2007    14566.039    15.553397    13.469681     26.24279    5497.8458 
  166500      166.487    394.84069    16.229818   -444.67453   -428.44471    904.33408   -8707.8912   -1641.6917    13062.585    15.553399    13.469683    26.242773    5497.8439 
  167000      166.987    420.33567    17.277783   -445.69828    -428.4205    1814.1895   -7186.5119   -1783.8619    14412.942    15.553402    13.469685    26.242755    5497.8419 
  167500      167.487    374.51709    15.394423   -443.78923    -428.3948    1217.1968   -7950.2341   -1961.5744    13563.399    15.553404    13.469687    26.242738    5497.8399 
  168000      167.987    407.47523    16.749158   -445.11769   -428.36853    2004.3455   -5874.8302   -2394.4229     14282.29    15.553406    13.469689     26.24272    5497.8379 
  168500      168.487    382.89958    15.738983   -444.08154   -428.34256    1901.2997   -7002.1608   -4060.2333    16766.293    15.553409    13.469691    26.242703    5497.8359 
  169000      168.987    386.76472    15.897858    -444.2146   -428.31674    1409.9695   -7269.3027   -3832.6379    15331.849    15.553411    13.469693    26.242685     5497.834 
  169500      169.487     400.4278    16.459475   -444.75122   -428.29174    1660.1033   -6403.7045   -2254.3673    13638.382    15.553414    13.469695    26.242668     5497.832 
  170000      169.987    383.99349    15.783947   -444.04995     -428.266    1110.7273   -8670.8544   -5880.1254    17883.162    15.553416    13.469697     26.24265      5497.83 
  170500      170.487    410.56919    16.876334   -445.11807   -428.24174    1275.3062   -6788.2661   -4330.0402    14944.225    15.553418    13.469699    26.242633     5497.828 
  171000      170.987    386.80213    15.899396    -444.1148    -428.2154    1644.0769   -7945.9535   -2368.6475    15246.832    15.553421    13.469701    26.242615     5497.826 
  171500      171.487    362.58626    14.904009    -443.0936   -428.18959     2060.006   -8155.3002   -2008.2983    16343.616    15.553423    13.469703    26.242598    5497.8241 
  172000      171.987     405.6125    16.672591   -444.83708   -428.16449    1445.4034   -7906.0467     -3520.36    15762.617    15.553426    13.469705     26.24258    5497.8221 
  172500      172.487    399.71897    16.430339   -444.56969   -428.13935    1783.2979   -7879.3309   -4288.9941    17518.219    15.553428    13.469707    26.242563    5497.8201 
  173000      172.987    399.60693    16.425734   -444.53929   -428.11355    1246.4635   -8360.9587   -2129.0177    14229.367     15.55343    13.469709    26.242545    5497.8181 
  173500      173.487    421.31875    17.318192   -445.40658   -428.08839    1573.8229   -5901.9765   -3618.7149     14242.16    15.553433    13.469711    26.242528    5497.8161 
  174000      173.987    399.82923    16.434871   -444.49706   -428.06219     2109.246   -7912.4771   -3259.0108    17499.226    15.553435    13.469713     26.24251    5497.8142 
  174500      174.487    398.47953    16.379392   -444.41546   -428.03607     2380.794   -8517.8472   -1090.4176    16750.647    15.553438    13.469715    26.242493    5497.8122 
  175000      174.987    408.79923     16.80358   -444.81494   -428.01136    837.81721   -8668.4734   -2703.0527    13884.978     15.55344    13.469717    26.242475    5497.8102 
  175500      175.487    390.46352    16.049896   -444.03499   -427.98509    1514.6108   -10961.966   -2920.4749    18426.273    15.553442    13.469719    26.242458    5497.8082 
  176000      175.987    395.10568    16.240711    -444.2002   -427.95949    2261.4586   -11227.206   -1171.4593    19183.041    15.553445    13.469722     26.24244    5497.8062 
  176500      176.487    416.50321     17.12025   -445.05359   -427.93334    2540.7317   -8405.5631   -1289.1728    17316.931    15.553447    13.469724    26.242423    5497.8042 
  177000      176.987    397.84644    16.353369   -444.26067    -427.9073    2056.4603    -8297.456   -583.18758    15050.025     15.55345    13.469726    26.242405    5497.8023 
  177500      177.487    395.88909    16.272912   -444.15458   -427.88167      3173.79   -5215.0938   -5080.7651    19817.229    15.553452    13.469728    26.242388    5497.8003 
  178000      177.987    404.95336    16.645497   -444.50078   -427.85529     813.1046   -10342.699   -4372.6473     17154.66    15.553454     13.46973     26.24237    5497.7983 
  178500      178.487    395.72547    16.266187   -444.09513   -427.82894    2454.3555   -9055.8482   -2778.0224    19196.937    15.553457    13.469732    26.242353    5497.7963 
  179000      178.987    397.87915    16.354713   -444.15847   -427.80375     2791.538   -7406.4347   -2133.8075    17914.856    15.553459    13.469734    26.242335    5497.7943 
  179500      179.487    413.29621    16.988428   -444.76648   -427.77806    2788.8319   -8095.6597   -2976.2015    19438.357    15.553462    13.469736    26.242318    5497.7924 
  180000      179.987     393.5328    16.176058    -443.9279   -427.75185    1839.8176   -7192.7122   -5215.2613    17927.426    15.553464    13.469738      26.2423    5497.7904 
  180500      180.487    395.58617    16.260461   -443.98627    -427.7258    2533.1541   -9476.6616   -2752.5142    19828.638    15.553466     13.46974    26.242283    5497.7884 
  181000      180.987    419.67109    17.250465   -444.95052   -427.70006    1785.8161   -8114.1802    -1709.454    15181.082    15.553469    13.469742    26.242265    5497.7864 
  181500      181.487    406.64389    16.714986   -444.38843   -427.67345    1830.1222   -8275.0954   -887.25446    14652.716    15.553471    13.469744    26.242248    5497.7844 
  182000      181.987    389.86485    16.025288   -443.67304   -427.64776    1353.0665    -7656.848   -5034.8491    16750.897    15.553474    13.469746     26.24223    5497.7825 
  182500      182.487    389.16465    15.996506   -443.61752   -427.62101    2119.3747   -9081.6721   -646.58677    16086.383    15.553476    13.469748    26.242213    5497.7805 
  183000      182.987    405.64605     16.67397   -444.26965   -427.59568     1073.078   -8576.3285   -4399.2749    16194.837    15.553478     13.46975    26.242195    5497.7785 
  183500      183.487    380.74899    15.650583   -443.21925   -427.56867    2182.5353   -9242.7557   -2603.1283     18393.49    15.553481    13.469752    26.242178    5497.7765 
  184000      183.987    416.73588    17.129814   -444.67223   -427.54241    1742.0446   -10007.386   -2720.2253    17953.745    15.553483    13.469754     26.24216    5497.7745 
  184500      184.487    401.42731     16.50056   -444.01687   -427.51631    2562.5137   -5564.7512   -4100.0887    17352.381    15.553486    13.469756    26.242143    5497.7725 
  185000      184.987    396.47365    16.296941   -443.78696   -427.49002    2171.9219   -7325.9006   -1805.9154    15647.582    15.553488    13.469758    26.242125    5497.7706 
  185500      185.487    416.46827    17.118814   -444.58237   -427.46356    2959.6847   -6859.8826    1083.8118    14655.125     15.55349     13.46976    26.242108    5497.7686 
  186000      185.987    413.86919     17.01198   -444.44988    -427.4379    958.55916   -9091.3874   -4002.5804    15969.645    15.553493    13.469763     26.24209    5497.7666 
  186500      186.487    404.17049    16.613317   -444.02454   -427.41123    1718.8777   -7405.1745   -3912.1999    16474.007    15.553495    13.469765    26.242073    5497.7646 
  187000      186.987    402.97395    16.564134   -443.94843   -427.38429    3311.7467   -7420.1633    746.25036    16609.153    15.553498    13.469767    26.242055    5497.7626 
  187500      187.487    406.97282    16.728506   -444.08754   -427.35903    2155.3118   -8026.0702   -740.67829    15232.684      15.5535    13.469769    26.242038    5497.7607 
  188000      187.987    424.70729    17.457477   -444.79096   -427.33349    1692.7913    -5579.038   -4800.0264    15457.438    15.553502    13.469771     26.24202    5497.7587 
  188500      188.487    412.51504    16.956318   -444.26249   -427.30617    2544.7371   -5973.9254   -2122.0562    15730.193    15.553505    13.469773    26.242003    5497.7567 
  189000      188.987    422.20914    17.354791   -444.63463   -427.27984    917.41459    -8506.295   -2026.7743    13285.313    15.553507    13.469775    26.241985    5497.7547 
  189500      189.487    414.68733    17.045609   -444.29888   -427.25327    995.52156   -6971.6434   -1564.8397    11523.048     15.55351    13.469777    26.241968    5497.7527 
  190000      189.987    392.43447    16.130912    -443.3575   -427.22658    2611.3531    -4558.331    609.86373    11782.527    15.553512    13.469779     26.24195    5497.7508 
  190500      190.487    440.34074    18.100086   -445.30224   -427.20215    952.57771   -6199.9375   -5086.3313    14144.002    15.553514    13.469781    26.241933    5497.7488 
  191000      190.987    406.21788    16.697475   -443.87204   -427.17457     2415.404    -6581.491   -3949.8305    17777.534    15.553517    13.469783    26.241915    5497.7468 
  191500      191.487    425.93136    17.507792   -444.65689    -427.1491    1491.3182   -7159.9598    -2390.299    14024.213    15.553519    13.469785    26.241898    5497.7448 
  192000      191.987    413.10663    16.980635   -444.10201   -427.12138    2302.6504   -7045.6118   -4172.6744    18126.237    15.553522    13.469787     26.24188    5497.7428 
  192500      192.487     417.7737    17.172474   -444.26766   -427.09519    1322.2145   -8296.1887   -4202.7497    16465.582    15.553524    13.469789    26.241863    5497.7408 
  193000      192.987    418.39511    17.198016   -444.26639   -427.06837    3176.8105   -4963.6676    -3067.167    17561.266    15.553526    13.469791    26.241845    5497.7389 
  193500      193.487    431.50085    17.736724   -444.77893    -427.0422    2318.9052   -7751.2834   -1214.3171    15922.316    15.553529    13.469793    26.241828    5497.7369 
  194000      193.987    408.71731    16.800213   -443.81632    -427.0161    1387.0617   -7390.0294   -1499.6075    13050.822    15.553531    13.469795     26.24181    5497.7349 
  194500      194.487     415.0256    17.059514   -444.04931    -426.9898    361.03866   -9299.1283   -841.40098    11223.645    15.553534    13.469797    26.241793    5497.7329 
  195000      194.987     400.9528    16.481055   -443.44396   -426.96291    2213.1337   -7233.7454   -2069.9256    15943.072    15.553536    13.469799    26.241775    5497.7309 
  195500      195.487    416.84475    17.134289   -444.07059    -426.9363    2302.5449   -6710.8004    -2800.982    16419.417    15.553538    13.469801    26.241758     5497.729 
  196000      195.987    406.95868    16.727925   -443.63698   -426.90905    3454.9129   -5363.7019   -1320.6005    17049.041    15.553541    13.469804     26.24174     5497.727 
  196500      196.487    397.72473    16.348366   -443.23023   -426.88186    4419.1451    -5641.889    19.921904    18879.402    15.553543    13.469806    26.241723     5497.725 
  197000      196.987     430.7284    17.704973   -444.56079   -426.85582    2085.5726    -6660.379   -3753.0445    16670.141    15.553546    13.469808    26.241705     5497.723 
  197500      197.487    391.17906    16.079308   -442.90734   -426.82803    2429.6392   -6666.5668   -4337.8597    18293.344    15.553548     13.46981    26.241688     5497.721 
  198000      197.987    406.09943    16.692606   -443.49405   -426.80144    3886.0425   -5019.2239    -1370.436    18047.787     15.55355    13.469812     26.24167    5497.7191 
  198500      198.487    426.07843    17.513837   -444.28946   -426.77562    1250.9599   -7441.1533   -4076.1824    15270.215    15.553553    13.469814    26.241653    5497.7171 
  199000      198.987    413.04673    16.978173   -443.72682   -426.74865    3407.2248   -7959.3864   -873.80547    19054.866    15.553555    13.469816    26.241635    5497.7151 
  199500      199.487    427.29397    17.563802   -444.28689   -426.72309    2208.6902   -6369.5981    -1573.276    14568.945    15.553558    13.469818    26.241618    5497.7131 
  200000      199.987    379.87927    15.614833   -442.30884     -426.694    4168.7786   -3208.7744   -1376.2693     17091.38     15.55356     13.46982      26.2416    5497.7111 
  200500      200.487    434.76787    17.871014   -444.53987   -426.66885    2617.6599   -8625.6601   -1064.7434    17543.383    15.553562    13.469822    26.241583    5497.7091 
  201000      200.987    416.96325     17.13916   -443.78075   -426.64159    1915.5925     -7388.58    -1801.736    14937.094    15.553565    13.469824    26.241565    5497.7072 
  201500      201.487    433.81653     17.83191   -444.44636   -426.61445    1762.2939   -9163.1433   -577.88415    15027.909    15.553567    13.469826    26.241548    5497.7052 
  202000      201.987    413.77614    17.008155   -443.59518   -426.58703    2053.4505   -6098.6217   -2423.4045    14682.378     15.55357    13.469828     26.24153    5497.7032 
  202500      202.487    411.25016    16.904325   -443.46465   -426.56033    3954.9096   -6680.4497   -2172.9544    20718.133    15.553572     13.46983    26.241513    5497.7012 
  203000      202.987    397.44484    16.336861   -442.86963   -426.53277    3260.7119   -7949.7805   -2877.6896    20609.606    15.553574    13.469832    26.241495    5497.6992 
  203500      203.487    411.12371    16.899127   -443.40437   -426.50524    3177.8285    -7753.303   -1653.8326    18940.621    15.553577    13.469834    26.241478    5497.6973 
  204000      203.987    436.68239     17.94971   -444.42902   -426.47931    1894.5241   -6309.9197   -530.76571    12524.258    15.553579    13.469836     26.24146    5497.6953 
  204500      204.487    427.96484    17.591378    -444.0439   -426.45252    2477.8969   -6950.8492   -2801.9916    17186.532    15.553582    13.469838    26.241443    5497.6933 
  205000      204.987    431.74513    17.746765   -444.17266   -426.42589    2424.5472   -7211.7902   -3831.7939    18317.226    15.553584     13.46984    26.241425    5497.6913 
  205500      205.487    430.13685    17.680658   -444.07854   -426.39789    3013.3005   -4873.7643   -3605.0638     17518.73    15.553586    13.469842    26.241408    5497.6893 
  206000      205.987    414.50153    17.037972   -443.40811   -426.37014    2540.6507   -8081.0916   -1742.3356    17445.379    15.553589    13.469845     26.24139    5497.6874 
  206500      206.487    417.41692    17.157808   -443.50044   -426.34263    2073.3381   -5985.3902   -5492.2591    17697.664    15.553591    13.469847    26.241373    5497.6854 
  207000      206.987    433.20768    17.806883   -444.12337   -426.31648    1462.3367   -6309.0463   -2123.6672    12819.724    15.553594    13.469849    26.241355    5497.6834 
  207500      207.487    425.15466    17.475866   -443.76491   -426.28905    2458.7844   -7656.0946   -421.75755    15454.205    15.553596    13.469851    26.241338    5497.6814 
  208000      207.987    405.34343    16.661531   -442.92344   -426.26191    1434.7217   -8180.5974   -3879.2357    16363.998    15.553598    13.469853     26.24132    5497.6794 
  208500      208.487    434.34379    17.853582   -444.08905   -426.23547    2594.1864   -7954.2852   -3523.0921    19259.936    15.553601    13.469855    26.241303    5497.6774 
  209000      208.987    413.56141    16.999328   -443.20617   -426.20684    1487.4003   -9330.1117    274.35019    13517.963    15.553603    13.469857    26.241285    5497.6755 
  209500      209.487    427.53359    17.573651   -443.75392   -426.18027    2739.5792   -5482.5844   -2242.9785      15944.3    15.553606    13.469859    26.241268    5497.6735 
  210000      209.987    430.54993    17.697637   -443.85096   -426.15333    1557.5672   -9726.6899    1250.9944    13148.397    15.553608    13.469861     26.24125    5497.6715 
  210500      210.487    419.22026    17.231934   -443.35861   -426.12667    2185.6346   -9199.6241   -46.519824    15803.048     15.55361    13.469863    26.241233    5497.6695 
  211000      210.987    433.76733    17.829887   -443.92937   -426.09948    3630.2275   -5836.8023   -1229.4158    17956.901    15.553613    13.469865    26.241215    5497.6675 
  211500      211.487    427.60139    17.576438   -443.64779   -426.07135    1042.2124   -5766.0682   -3064.7476    11957.453    15.553615    13.469867    26.241198    5497.6656 
  212000      211.987    423.81034    17.420608   -443.46488   -426.04427    2917.7404   -4878.1504   -1512.7483     15144.12    15.553618    13.469869     26.24118    5497.6636 
[...]
  948500      948.487    584.90003    24.042155   -438.06597   -414.02382    5778.3375   -557.67515   -2313.9933    20206.681    15.557153    13.472889    26.215403    5494.7429 
  949000      948.987    536.20738    22.040658   -436.05791   -414.01725    6760.6478   -837.10613    4659.3238    16459.726    15.557155    13.472891    26.215385    5494.7409 
  949500      949.487    536.75014    22.062968     -436.078   -414.01504    4592.6244   -2951.0972    1623.9914    15104.979    15.557158    13.472893    26.215368     5494.739 
  950000      949.987    614.57963    25.262127   -439.27323    -414.0111    5045.5767    133.61215    210.63695    14792.481     15.55716    13.472895     26.21535     5494.737 
  950500      950.487    579.22208    23.808765   -437.81472   -414.00595    6553.5427    342.20228    2001.3756     17317.05    15.557162    13.472897    26.215333     5494.735 
  951000      950.987    564.45461    23.201752   -437.20563   -414.00388    7027.5306   -1678.5763    5658.6675    17102.501    15.557165    13.472899    26.215315     5494.733 
  951500      951.487    555.61316    22.838327   -436.83845   -414.00012    5417.2331    765.08446    1720.2867    13766.328    15.557167    13.472901    26.215298     5494.731 
  952000      951.987     575.3046    23.647738   -437.64417   -413.99644    6079.1886    3153.7337   -1204.2221    16288.054     15.55717    13.472903     26.21528     5494.729 
  952500      952.487    569.47263    23.408017   -437.40082    -413.9928    7927.2122   -338.00286    4230.6507    19888.989    15.557172    13.472905    26.215263     5494.727 
  953000      952.987    584.18804    24.012889   -437.99958   -413.98669    4588.1431   -283.33958     1339.854    12707.915    15.557174    13.472907    26.215245    5494.7251 
  953500      953.487    562.44006    23.118945    -437.1032   -413.98426    6701.6234    -782.4978       2968.1    17919.268    15.557177    13.472909    26.215228    5494.7231 
  954000      953.987    585.07495    24.049346   -438.03003   -413.98068    4669.6137   -99.998578   -1262.2011    15371.041    15.557179    13.472911     26.21521    5494.7211 
  954500      954.487    570.67648      23.4575    -437.4325     -413.975    5384.6401    451.54158    2387.1996    13315.179    15.557182    13.472913    26.215193    5494.7191 
  955000      954.987    576.50586    23.697115   -437.66703   -413.96991    4697.8504   -661.31834   -2494.1782    17249.048    15.557184    13.472915    26.215175    5494.7171 
  955500      955.487    568.58189    23.371403   -437.33679   -413.96538    6885.4446   -2314.0063    6468.2659    16502.074    15.557186    13.472917    26.215158    5494.7151 
  956000      955.987    590.22946     24.26122   -438.22362    -413.9624    5161.7125   -3992.6958     4315.849    15161.984    15.557189     13.47292     26.21514    5494.7132 
  956500      956.487    532.25165    21.878058   -435.83555   -413.95749    6689.1345    1847.4903    4311.0694    13908.844    15.557191    13.472922    26.215123    5494.7112 
  957000      956.987    555.37716    22.828626   -436.78135   -413.95273     4505.269     566.4597    1489.1913    11460.156    15.557194    13.472924    26.215105    5494.7092 
  957500      957.487    596.29439    24.510518   -438.45844   -413.94792    5922.9362   -2594.1279    2996.2542    17366.682    15.557196    13.472926    26.215088    5494.7072 
  958000      957.987    575.74627    23.665893   -437.60943   -413.94354    7550.5158   -2525.9512     4131.227    21046.272    15.557198    13.472928     26.21507    5494.7052 
  958500      958.487    559.34378    22.991673   -436.93159   -413.93991    6180.3261    3063.6512    301.88678     15175.44    15.557201     13.47293    26.215053    5494.7032 
  959000      958.987     533.1605    21.915417   -435.84942   -413.93401     7252.636   -1660.4904    4844.7003    18573.698    15.557203    13.472932    26.215035    5494.7013 
  959500      959.487    606.41943    24.926705   -438.85799   -413.93128    5193.7972   -120.20767    1685.8671    14015.732    15.557206    13.472934    26.215018    5494.6993 
  960000      959.987    557.06978    22.898201   -436.82367   -413.92547    7644.1217   -880.50788    4119.7766    19693.096    15.557208    13.472936       26.215    5494.6973 
  960500      960.487    571.75612    23.501879   -437.42275   -413.92087    5498.2169    243.59686    162.41873    16088.635     15.55721    13.472938    26.214983    5494.6953 
  961000      960.987    585.40894    24.063074   -437.97817   -413.91509    4432.5507   -643.05882    3475.2254    10465.485    15.557213     13.47294    26.214965    5494.6933 
  961500      961.487    552.50196    22.710442   -436.62164    -413.9112    5903.3121   -1670.5982    3878.8497    15501.685    15.557215    13.472942    26.214948    5494.6913 
  962000      961.987    591.24882    24.303121   -438.21155   -413.90843    6867.3408   -1402.6039    4049.6451    17954.981    15.557218    13.472944     26.21493    5494.6893 
  962500      962.487    605.13571    24.873938   -438.77844    -413.9045    5390.8457    1239.7805   -2181.6312    17114.388     15.55722    13.472946    26.214913    5494.6874 
  963000      962.987    589.70961    24.239852   -438.13732   -413.89747    4891.1209    313.94016    90.370005    14269.053    15.557222    13.472948    26.214895    5494.6854 
  963500      963.487    561.77278    23.091516   -436.98348   -413.89196    5714.9631   -1527.4797    1638.8844    17033.485    15.557225     13.47295    26.214878    5494.6834 
  964000      963.987    566.64133    23.291637   -437.17801   -413.88637     6712.285     4.618269    4272.6344    15859.602    15.557227    13.472952     26.21486    5494.6814 
  964500      964.487    543.75067    22.350722   -436.23115   -413.88043    6449.1292    4749.9385   -793.28849    15390.738     15.55723    13.472954    26.214843    5494.6794 
  965000      964.987    567.81242    23.339774   -437.21629   -413.87652    6458.3681     1069.203   -674.81494    18980.716    15.557232    13.472956    26.214825    5494.6774 
  965500      965.487    570.32768    23.443163   -437.31278   -413.86962    5371.2363    -2585.123      2828.83    15870.002    15.557234    13.472958    26.214808    5494.6755 
  966000      965.987    583.14442    23.969992    -437.8347   -413.86471    4901.8152   -783.35681   -2094.2701    17583.072    15.557237    13.472961     26.21479    5494.6735 
  966500      966.487    581.26082    23.892567   -437.75226   -413.85969    5475.4203   -1913.7693    3813.2374    14526.793    15.557239    13.472963    26.214773    5494.6715 
  967000      966.987    596.35782    24.513125    -438.3666   -413.85348    4958.5084   -2384.8879    2155.7167    15104.697    15.557242    13.472965    26.214755    5494.6695 
  967500      967.487    564.93141    23.221351   -437.06866   -413.84731    6678.4149   -1676.9935    1125.8311    20586.407    15.557244    13.472967    26.214738    5494.6675 
  968000      967.987    592.01451    24.334594   -438.17481   -413.84021    6778.8734   -5782.4627    2900.5485    23218.535    15.557246    13.472969     26.21472    5494.6655 
  968500      968.487    580.29458     23.85285   -437.68589   -413.83304    4936.9924   -1547.5585   -502.07073    16860.606    15.557249    13.472971    26.214703    5494.6636 
  969000      968.987    563.33373    23.155679    -436.9824   -413.82672    5420.0708   -106.17423   -545.14446    16911.531    15.557251    13.472973    26.214685    5494.6616 
  969500      969.487    529.16021    21.750986    -435.5714   -413.82041    3492.1598    -84.45873   -405.25719    10966.195    15.557254    13.472975    26.214668    5494.6596 
  970000      969.987    574.82663    23.628091   -437.44324   -413.81515    5766.1589    641.30512   -1611.5858    18268.758    15.557256    13.472977     26.21465    5494.6576 
  970500      970.487    611.66597    25.142362   -438.95033   -413.80797      5727.76   -1329.5643    1676.2571    16836.587    15.557258    13.472979    26.214633    5494.6556 
  971000      970.987    580.84058    23.875293   -437.67712   -413.80182    6805.2575     1238.855    1336.8967    17840.021    15.557261    13.472981    26.214615    5494.6536 
  971500      971.487    573.45932    23.571888   -437.36793   -413.79604    7220.7401    238.27137    2475.1335    18948.815    15.557263    13.472983    26.214598    5494.6516 
  972000      971.987    548.49102    22.545573   -436.33508   -413.78951    5360.9769    2736.7711    1447.8154    11898.344    15.557266    13.472985     26.21458    5494.6497 
  972500      972.487    539.41531    22.172518   -435.95626   -413.78374    5825.4477   -3280.5087    2832.2022    17924.649    15.557268    13.472987    26.214563    5494.6477 
  973000      972.987    603.61094    24.811262   -438.58915   -413.77789    5443.6574   -3584.7903    414.05946    19501.703     15.55727    13.472989    26.214545    5494.6457 
  973500      973.487    585.94986    24.085309   -437.85886   -413.77355    3975.8102   -4235.4619   -925.61352    17088.506    15.557273    13.472991    26.214528    5494.6437 
  974000      973.987    596.44371    24.516656   -438.28574   -413.76909    5301.9971   -686.02029    1603.2653    14988.746    15.557275    13.472993     26.21451    5494.6417 
  974500      974.487    549.89475    22.603273   -436.36505   -413.76178    5269.8832   -2783.4893    2508.6138    16084.525    15.557278    13.472995    26.214493    5494.6397 
  975000      974.987    566.12245    23.270308   -437.02181   -413.75151    5453.2183   -742.67895    848.23251    16254.101     15.55728    13.472997    26.214475    5494.6378 
  975500      975.487    558.97554    22.976537   -436.72102   -413.74448    6169.1999    1561.1509    1318.1739    15628.275    15.557282    13.472999    26.214458    5494.6358 
  976000      975.987    597.29408    24.551609   -438.29092   -413.73931    6013.3218   -558.75302    4829.5618    13769.157    15.557285    13.473002     26.21444    5494.6338 
  976500      976.487    575.52342    23.656733   -437.38542   -413.72868    5930.6102   -1645.6141    2369.9137    17067.531    15.557287    13.473004    26.214423    5494.6318 
  977000      976.987    571.67434    23.498517   -437.22346   -413.72495     5301.191    1852.1858    94.607646     13956.78     15.55729    13.473006    26.214405    5494.6298 
  977500      977.487    536.58312    22.056102   -435.77301   -413.71691    6234.9197   -975.53607    1484.8575    18195.438    15.557292    13.473008    26.214388    5494.6278 
  978000      977.987    555.80924    22.846387   -436.55652   -413.71013    7431.9539   -1741.3724     7223.671    16813.563    15.557294     13.47301     26.21437    5494.6258 
  978500      978.487    623.38437    25.624044   -439.32686   -413.70282    5499.7472   -2926.9432     2140.967    17285.218    15.557297    13.473012    26.214353    5494.6239 
  979000      978.987     571.5864    23.494903   -437.18888   -413.69398    5302.6971    -3581.866    1707.4762    17782.481    15.557299    13.473014    26.214335    5494.6219 
  979500      979.487    582.03797    23.924511    -437.6108   -413.68629    5890.4215    293.81175    304.21589    17073.237    15.557302    13.473016    26.214318    5494.6199 
  980000      979.987    577.37679    23.732915   -437.41247   -413.67955    6147.2845    1280.5357   -1383.3408    18544.659    15.557304    13.473018      26.2143    5494.6179 
  980500      980.487    568.25784    23.358083   -437.02883   -413.67075    3225.3861   -2776.1059   -1710.2294    14162.494    15.557306     13.47302    26.214283    5494.6159 
  981000      980.987    562.56156    23.123939   -436.78563   -413.66169    6381.9963   -550.58835   -1134.4279    20831.005    15.557309    13.473022    26.214265    5494.6139 
  981500      981.487    594.93623    24.454691    -438.1115   -413.65681    4538.8694    990.55035    4684.6688    7941.3889    15.557311    13.473024    26.214248     5494.612 
  982000      981.987    549.01204     22.56699   -436.21615   -413.64916    7624.2534    1615.5931    3835.5856    17421.582    15.557314    13.473026     26.21423      5494.61 
  982500      982.487    584.34865    24.019491   -437.66108   -413.64159    6152.7467    3559.5234   -909.68404    15808.401    15.557316    13.473028    26.214213     5494.608 
  983000      982.987    549.75373    22.597477    -436.2313   -413.63382    4875.0708   -3661.9488    3029.4514     15257.71    15.557318     13.47303    26.214195     5494.606 
  983500      983.487    586.59055    24.111644   -437.73644   -413.62479    4766.6455   -4664.9045       1535.3    17429.541    15.557321    13.473032    26.214178     5494.604 
  984000      983.987    612.10368    25.160354   -438.77767   -413.61732    5610.0328   -638.47926    614.18294    16854.395    15.557323    13.473034     26.21416     5494.602 
  984500      984.487    571.33525    23.484579   -437.09311   -413.60853    6485.8109    47.738002    4878.6235    14531.071    15.557326    13.473036    26.214143    5494.6001 
  985000      984.987      573.029      23.5542   -437.15462   -413.60042    6048.5084   -5159.8582    3171.7649    20133.618    15.557328    13.473038    26.214125    5494.5981 
  985500      985.487    568.52856    23.369211   -436.96028   -413.59107    6397.7402   -952.69091    3500.7101    16645.201     15.55733     13.47304    26.214108    5494.5961 
  986000      985.987     583.1208    23.969021   -437.55169   -413.58267    7578.0602     1505.184    7733.3913    13495.605    15.557333    13.473043     26.21409    5494.5941 
  986500      986.487    585.61411    24.071508   -437.64742   -413.57592    7153.0367    1876.8602    693.39986     18888.85    15.557335    13.473045    26.214073    5494.5921 
  987000      986.987    587.27872    24.139931    -437.7072   -413.56727    5721.6485    1184.4098    2637.6215    13342.914    15.557338    13.473047    26.214055    5494.5901 
  987500      987.487    555.41244    22.830076    -436.3872   -413.55712    7123.6756    1234.2912    2336.9428    17799.793     15.55734    13.473049    26.214038    5494.5881 
  988000      987.987    557.39712    22.911656   -436.46115    -413.5495    6447.4712   -610.89182    6692.0975    13261.208    15.557342    13.473051     26.21402    5494.5862 
  988500      988.487    569.97863    23.428816   -436.96911    -413.5403    7521.2699    -2952.856    6268.9295    19247.736    15.557345    13.473053    26.214003    5494.5842 
  989000      988.987    540.76516    22.228004   -435.75651   -413.52851    8553.1135     1149.107    2075.7809    22434.453    15.557347    13.473055    26.213985    5494.5822 
  989500      989.487     588.0154    24.170212   -437.69123   -413.52102    7082.5704   -1073.5955    955.08272    21366.224     15.55735    13.473057    26.213968    5494.5802 
  990000      989.987    540.89312    22.233264   -435.74681   -413.51355    9476.5011   -3992.0903    6394.4523    26027.141    15.557352    13.473059     26.21395    5494.5782 
  990500      990.487    562.02256    23.101784    -436.6059   -413.50412    6578.2169    2006.5322   -2591.0673    20319.186    15.557354    13.473061    26.213933    5494.5762 
  991000      990.987    582.29587    23.935112    -437.4339   -413.49879    6825.4985    444.08735    2654.7879     17377.62    15.557357    13.473063    26.213915    5494.5743 
  991500      991.487    535.95669    22.030353   -435.51794   -413.48759    9592.6217   -103.25202    2134.0455    26747.072    15.557359    13.473065    26.213898    5494.5723 
  992000      991.987    554.01833    22.772772   -436.25196   -413.47918    9265.7417   -3703.9169    3494.8593    28006.283    15.557362    13.473067     26.21388    5494.5703 
  992500      992.487    560.78513    23.050919   -436.52125   -413.47034    7515.0079   -390.27308    3050.9691    19884.328    15.557364    13.473069    26.213863    5494.5683 
  993000      992.987    553.81976    22.764609   -436.22641    -413.4618    7187.9001     517.5861    3488.8404    17557.274    15.557366    13.473071    26.213845    5494.5663 
  993500      993.487    556.06546    22.856918   -436.31084   -413.45392    8302.0118   -1736.8231    5245.9123    21396.946    15.557369    13.473073    26.213828    5494.5643 
  994000      993.987    563.94418    23.180771   -436.62677   -413.44599    7111.8897   -2235.3993     3849.067    19722.001    15.557371    13.473075     26.21381    5494.5623 
  994500      994.487    558.94546      22.9753   -436.41214   -413.43684     9189.055   -1307.6799    5042.3842    23832.461    15.557374    13.473077    26.213793    5494.5604 
  995000      994.987    561.16986    23.066734   -436.49475   -413.42802    7515.9378    2728.4228    -203.9529    20023.343    15.557376    13.473079    26.213775    5494.5584 
  995500      995.487    587.91012    24.165884   -437.58384   -413.41796    7810.1205   -2014.0877    3968.9978    21475.451    15.557378    13.473081    26.213758    5494.5564 
  996000      995.987    564.20813    23.191621    -436.5992   -413.40758    9009.3174   -2110.9854    4057.7796    25081.158    15.557381    13.473084     26.21374    5494.5544 
  996500      996.487    606.66036    24.936608   -438.33587   -413.39926    6210.9598   -4881.2592    4906.1874    18607.951    15.557383    13.473086    26.213723    5494.5524 
  997000      996.987    591.16868    24.299827   -437.69016   -413.39033    7315.9175   -898.81648   -1183.5477    24030.117    15.557386    13.473088    26.213705    5494.5504 
  997500      997.487    575.70885    23.664355   -437.04327   -413.37892    9335.3046    662.07765    4415.5463     22928.29    15.557388     13.47309    26.213688    5494.5485 
  998000      997.987    618.01471    25.403325   -438.77373    -413.3704     7502.834   -1370.3234    151.61355    23727.212     15.55739    13.473092     26.21367    5494.5465 
  998500      998.487    554.04364    22.773812    -436.1351   -413.36129    8830.0352   -2143.7934    2823.0623    25810.837    15.557393    13.473094    26.213653    5494.5445 
  999000      998.987    565.94674    23.263086   -436.61441   -413.35132    10325.877   -1944.0459    4686.8954    28234.782    15.557395    13.473096    26.213635    5494.5425 
  999500      999.487    587.80717    24.161653   -437.50232   -413.34066    9028.6719   -4597.1826    6893.1233    24790.075    15.557398    13.473098    26.213618    5494.5405 
 1000000      999.987    604.64979    24.853964   -438.18498   -413.33102    8493.4868   -3234.6594    1339.9936    27375.126      15.5574      13.4731      26.2136    5494.5385 
 1000013         1000    603.80642    24.819298   -438.14928   -413.32999    7403.1217   -5150.3242    2623.0934    24736.596      15.5574      13.4731      26.2136    5494.5385 
Loop time of 948.392 on 28 procs for 1000000 steps with 319 atoms

Performance: 91.102 ns/day, 0.263 hours/ns, 1054.416 timesteps/s
87.3% CPU use with 28 MPI tasks x no OpenMP threads

MPI task timing breakdown:
Section |  min time  |  avg time  |  max time  |%varavg| %total
---------------------------------------------------------------
Pair    | 762.84     | 815.1      | 869.21     |  83.1 | 85.95
Neigh   | 0.018922   | 0.028192   | 0.036691   |   3.3 |  0.00
Comm    | 69.234     | 121.82     | 172.22     | 208.7 | 12.85
Output  | 0.10022    | 0.10257    | 0.12523    |   1.4 |  0.01
Modify  | 4.5999     | 6.3112     | 7.946      |  35.7 |  0.67
Other   |            | 5.022      |            |       |  0.53

Nlocal:    11.3929 ave 15 max 5 min
Histogram: 1 0 3 3 2 1 4 1 3 10
Nghost:    658.179 ave 677 max 631 min
Histogram: 1 0 1 3 2 6 8 3 3 1
Neighs:    722.357 ave 1009 max 309 min
Histogram: 1 1 4 3 1 3 2 4 4 5
FullNghs:  1444.71 ave 1927 max 638 min
Histogram: 1 3 2 3 1 4 1 2 5 6

Total # of neighbors = 40452
Ave neighs/atom = 126.809
Neighbor list builds = 413
Dangerous builds = 0

write_restart   POSCAR_1x1x1.rest

#unfix    1
#undump   1
Total wall time: 0:15:49
