LAMMPS (7 Dec 2015)
#----------- Initialize Simulation ------------ restart01
#processors	2 2 2
units		metal
boundary	p p p     ## periodic boundary condition  on x y z axis ##
atom_style atomic
#atom_modify map array sort 0 0.0

read_data	POSCAR_1x1x1.lammps
  triclinic box = (0 0 0) to (15.5003 13.4237 26.6335) with tilt (-7.75005 0 0)
  2 by 2 by 7 MPI processor grid
  reading atoms ...
  319 atoms

#----------- Define Potential -----------------
pair_style meam
pair_coeff * * MgAlZn.library.meam Mg Al Zn MgAlZn.parameter.meam Mg Al Zn 	#1=Mg 2=Al 3=Zn	#atoms/mass

#----------- Neighbor List --------------------
neighbor 2.0 bin
neigh_modify delay 10 check yes

#--------------  Run a simulation (minimization) ---------------------------------------
minimize       1.0e-4   1.0e-6   100   1000          #結構優化的條件
WARNING: Resetting reneighboring criteria during minimization (../min.cpp:168)
Neighbor list info ...
  2 neighbor list requests
  update every 1 steps, delay 0 steps, check yes
  max neighbors/atom: 2000, page size: 100000
  master list distance cutoff = 8
  ghost atom cutoff = 8
  binsize = 4 -> bins = 6 4 7
Memory usage per processor = 8.65092 Mbytes
Step Temp E_pair E_mol TotEng Press 
       0            0   -437.21908            0   -437.21908    491.27901 
      12            0   -459.60257            0   -459.60257   -16082.187 
Loop time of 0.0184461 on 28 procs for 12 steps with 319 atoms

87.8% CPU use with 28 MPI tasks x no OpenMP threads

Minimization stats:
  Stopping criterion = energy tolerance
  Energy initial, next-to-last, final = 
        -437.219078736     -459.559991937     -459.602568886
  Force two-norm initial, final = 20.4067 0.802463
  Force max component initial, final = 2.97711 0.192672
  Final line search alpha, max atom move = 0.490361 0.0944791
  Iterations, force evaluations = 12 19

MPI task timing breakdown:
Section |  min time  |  avg time  |  max time  |%varavg| %total
---------------------------------------------------------------
Pair    | 0.01432    | 0.015566   | 0.016506   |   0.4 | 84.39
Neigh   | 0          | 0          | 0          |   0.0 |  0.00
Comm    | 0.0010393  | 0.0019966  | 0.003232   |   1.1 | 10.82
Output  | 0          | 0          | 0          |   0.0 |  0.00
Modify  | 0          | 0          | 0          |   0.0 |  0.00
Other   |            | 0.0008831  |            |       |  4.79

Nlocal:    11.3929 ave 16 max 6 min
Histogram: 1 2 3 1 2 4 2 7 4 2
Nghost:    650.75 ave 676 max 607 min
Histogram: 4 0 0 0 1 3 7 4 7 2
Neighs:    718.107 ave 1003 max 348 min
Histogram: 1 2 3 1 3 3 4 6 4 1
FullNghs:  1436.21 ave 2048 max 739 min
Histogram: 1 2 3 3 2 3 8 4 1 1

Total # of neighbors = 40214
Ave neighs/atom = 126.063
Neighbor list builds = 0
Dangerous builds = 0
velocity all  create 600.0 4928459 #rot yes dist gaussian

#--------------  Run a simulation (Relaxation)  ----------------------------------------
fix  1  all  nvt   temp  600.0  600.0  100				#damping constant
#fix  2  all  npt   temp  393.0  393.0  50 iso 0.0 0.0 1000.0
fix  2  all deform 1 x final 0 15.5051 y final 0 13.4278 z final 0 26.5985 xy final -7.75245 units lattice
#fix  3  all  npt   temp  393.0  393.0  50 z 0.0 0.0 1000.0

#variable b equal 1
#fix 2 all efield  0.0  0.0  v_b
#compute pot all pe/atom


#----------- Output --------------------------
thermo	 500
timestep  0.001		#1.0 fs
thermo_style	custom step time temp ke pe etotal press pxx pyy pzz lx ly lz vol

dump 1 all custom 10000 dump.eq id type x y z
dump_modify 1 sort  id

run        1000000	#1000 ps
Neighbor list info ...
  2 neighbor list requests
  update every 1 steps, delay 10 steps, check yes
  max neighbors/atom: 2000, page size: 100000
  master list distance cutoff = 8
  ghost atom cutoff = 8
  binsize = 4 -> bins = 6 4 7
Memory usage per processor = 7.55858 Mbytes
Step Time Temp KinEng PotEng TotEng Press Pxx Pyy Pzz Lx Ly Lz Volume 
      12            0          600    24.662836   -459.60257   -434.93973   -11328.599    -14816.74   -11400.906   -7768.1513      15.5003      13.4237      26.6335     5541.669 
     500        0.488    312.97217    12.864636   -447.80054   -434.93591   -3072.7202   -10057.287   -4372.7808    5211.9074    15.500302    13.423702    26.633483    5541.6671 
    1000        0.988    308.86474      12.6958   -447.63076   -434.93496    -4241.985   -12307.317    -5474.228    5055.5896    15.500305    13.423704    26.633465    5541.6652 
    1500        1.488    290.07578    11.923486   -446.85754   -434.93405   -4046.4465   -7915.2509   -6334.0922    2110.0037    15.500307    13.423706    26.633448    5541.6633 
    2000        1.988    322.33223    13.249378   -448.18288    -434.9335   -5339.4313   -11817.288    -6424.725     2223.719     15.50031    13.423708     26.63343    5541.6613 
    2500        2.488    326.31108    13.412927   -448.34492   -434.93199   -3750.4653   -9541.1369   -6202.4555    4492.1966    15.500312     13.42371    26.633413    5541.6594 
    3000        2.988    309.17351    12.708492   -447.63864   -434.93015   -5132.7903   -9785.9734   -6160.5684    548.17077    15.500314    13.423712    26.633395    5541.6574 
    3500        3.488    310.83949    12.776972   -447.70505   -434.92808    -3522.522   -7542.3269   -7482.9157    4457.6768    15.500317    13.423714    26.633378    5541.6555 
    4000        3.988    304.18377     12.50339   -447.42907   -434.92568   -4785.2113   -8750.9764   -7953.0953    2348.4379    15.500319    13.423716     26.63336    5541.6536 
    4500        4.488    315.22581    12.957271     -447.881   -434.92373   -4001.8031   -7778.8055   -7221.9953    2995.3914    15.500322    13.423718    26.633343    5541.6516 
    5000        4.988    306.53732    12.600133   -447.52043    -434.9203   -3933.2302   -8691.1319   -5174.5257    2065.9671    15.500324     13.42372    26.633325    5541.6497 
    5500        5.488    319.40272    13.128962   -448.04592   -434.91695   -3626.7878   -6270.1197   -6186.3636    1576.1199    15.500326    13.423723    26.633308    5541.6478 
    6000        5.988    313.51494    12.886946    -447.8003   -434.91335   -5775.7108   -11755.164   -4453.8172   -1118.1507    15.500329    13.423725     26.63329    5541.6458 
    6500        6.488    317.33452    13.043948   -447.95397   -434.91002   -5262.6412    -10334.59   -5685.4835    232.15025    15.500331    13.423727    26.633273    5541.6439 
    7000        6.988    321.29202    13.206621   -448.11207   -434.90545   -5694.7588   -10604.184   -7038.8229    558.73053    15.500334    13.423729    26.633255     5541.642 
    7500        7.488    316.63883    13.015352    -447.9163   -434.90094   -4999.3722   -9718.5643   -9419.0256    4139.4733    15.500336    13.423731    26.633238      5541.64 
    8000        7.988    313.28126    12.877341   -447.77356   -434.89622   -5299.2961   -8745.9564   -9972.5371    2820.6051    15.500338    13.423733     26.63322    5541.6381 
    8500        8.488    311.62148    12.809116   -447.70054   -434.89142   -4726.0145   -10743.079   -5867.7735    2432.8095    15.500341    13.423735    26.633203    5541.6361 
    9000        8.988    321.50897    13.215538   -448.10136   -434.88582   -5155.3481   -11050.739   -6516.5032    2101.1979    15.500343    13.423737    26.633185    5541.6342 
    9500        9.488    308.05503    12.662518   -447.54223   -434.87972   -4238.6294   -8388.5111   -5554.4721    1227.0951    15.500346    13.423739    26.633168    5541.6323 
   10000        9.988    309.38968    12.717378   -447.59112   -434.87374   -3956.3608   -7842.5433   -6266.3121    2239.7729    15.500348    13.423741     26.63315    5541.6303 
   10500       10.488    319.18829    13.120147    -447.9881   -434.86795   -4823.4628   -8623.1931   -9798.9109    3951.7155     15.50035    13.423743    26.633133    5541.6284 
   11000       10.988    325.12699    13.364256   -448.22541   -434.86115   -4896.7433    -8415.714   -7283.0378    1008.5221    15.500353    13.423745    26.633115    5541.6265 
   11500       11.488    304.32572    12.509226   -447.36311   -434.85388   -4549.1742   -9177.0063   -6162.3844     1691.868    15.500355    13.423747    26.633098    5541.6245 
   12000       11.988    313.39657     12.88208   -447.72859   -434.84651   -5153.8665    -10859.48    -6991.592    2389.4729    15.500358    13.423749     26.63308    5541.6226 
   12500       12.488    305.65787    12.563983   -447.40303   -434.83905   -4470.5677   -10064.633   -3314.6855   -32.384642     15.50036    13.423751    26.633063    5541.6206 
   13000       12.988    303.80987    12.488021   -447.31915   -434.83113     -3936.08   -8335.1669   -6023.5095    2550.4363    15.500362    13.423753    26.633045    5541.6187 
   13500       13.488      296.932    12.205308   -447.02787   -434.82256   -3879.4893   -8213.3685   -3428.2063    3.1069945    15.500365    13.423755    26.633028    5541.6168 
   14000       13.988    321.28258    13.206233   -448.02104   -434.81481   -4758.6853   -10837.728   -5616.9213    2178.5933    15.500367    13.423757     26.63301    5541.6148 
   14500       14.488    298.91161     12.28668   -447.09271   -434.80603   -3960.0692   -7462.0966   -6754.0917    2335.9806     15.50037    13.423759    26.632993    5541.6129 
   15000       14.988    331.05557    13.607949    -448.4047   -434.79675   -4660.8711   -9459.0971   -6093.9598    1570.4435    15.500372    13.423761    26.632975     5541.611 
   15500       15.488    316.45915    13.007967   -447.79557    -434.7876   -5087.4271   -9789.3554   -6109.9171    636.99106    15.500374    13.423764    26.632958     5541.609 
   16000       15.988    327.87398     13.47717   -448.25554   -434.77837   -3796.3609   -8061.8317   -5941.6092    2614.3581    15.500377    13.423766     26.63294    5541.6071 
   16500       16.488    309.25935    12.712021   -447.47948   -434.76746    -4388.784   -8338.5608   -6640.6981    1812.9069    15.500379    13.423768    26.632923    5541.6051 
   17000       16.988    326.44422      13.4184   -448.17642   -434.75802   -4243.1604   -9890.5307   -7008.3397    4169.3893    15.500382     13.42377    26.632905    5541.6032 
   17500       17.488    324.87643    13.353957   -448.10075   -434.74679   -5269.1638   -10705.461   -9142.5581    4040.5279    15.500384    13.423772    26.632888    5541.6013 
   18000       17.988    315.05374    12.950198   -447.68641   -434.73621   -3400.3151   -9146.9989   -6828.3095    5774.3631    15.500386    13.423774     26.63287    5541.5993 
   18500       18.488    323.40508    13.293477   -448.01801   -434.72453    -3634.575   -7754.7395   -9288.7598    6139.7742    15.500389    13.423776    26.632853    5541.5974 
   19000       18.988    300.75404    12.362412   -447.07502   -434.71261   -3941.9728   -9621.8323   -6784.9581    4580.8719    15.500391    13.423778    26.632835    5541.5955 
   19500       19.488    315.43692    12.965948   -447.66732   -434.70138   -4730.9824   -8354.4754   -9862.5336    4024.0618    15.500394     13.42378    26.632818    5541.5935 
   20000       19.988     323.6592    13.303923   -447.99306   -434.68914    -4685.007   -11340.183   -6626.6474    3911.8091    15.500396    13.423782      26.6328    5541.5916 
   20500       20.488    317.21934    13.039214   -447.71528   -434.67607   -3545.2772   -9318.2009   -5251.4791    3933.8485    15.500398    13.423784    26.632783    5541.5897 
   21000       20.988    311.01643    12.784245   -447.44826   -434.66401   -5113.6215   -9336.4469   -7302.2974    1297.8798    15.500401    13.423786    26.632765    5541.5877 
   21500       21.488    312.15014    12.830846   -447.48177   -434.65093    -3668.543   -8920.6197   -6378.8884    4293.8793    15.500403    13.423788    26.632748    5541.5858 
   22000       21.988    303.93322    12.493092   -447.13054   -434.63745   -3468.5538   -8570.1504   -4493.4719     2657.961    15.500406     13.42379     26.63273    5541.5838 
   22500       22.488    330.05415    13.566785   -448.19092   -434.62413   -3687.9435   -8906.7652   -5569.1061    3412.0409    15.500408    13.423792    26.632713    5541.5819 
   23000       22.988    320.99363    13.194355   -447.80481   -434.61046   -5083.4961   -8119.5836   -9840.6059    2709.7011     15.50041    13.423794    26.632695      5541.58 
   23500       23.488    320.37017    13.168728   -447.76535   -434.59663   -4273.0617   -10115.866   -7076.8021    4373.4835    15.500413    13.423796    26.632678     5541.578 
   24000       23.988    328.64208    13.508743   -448.09072   -434.58197   -4681.5423   -7847.3983    -7260.187    1062.9584    15.500415    13.423798     26.63266    5541.5761 
   24500       24.488    332.31087    13.659547   -448.22722   -434.56767   -4483.8715   -9180.5189   -7629.8548    3358.7592    15.500418      13.4238    26.632643    5541.5742 
   25000       24.988    338.91248    13.930905   -448.48372   -434.55282   -5671.0199   -9778.7692    -9620.142    2385.8516     15.50042    13.423802    26.632625    5541.5722 
   25500       25.488    315.52182    12.969438   -447.50665   -434.53721   -5261.9751     -10310.8   -6297.3832    822.25785    15.500422    13.423805    26.632608    5541.5703 
   26000       25.988    308.95991    12.699712   -447.22146   -434.52175   -3991.2492   -10036.734   -7350.3661    5413.3521    15.500425    13.423807     26.63259    5541.5683 
   26500       26.488    314.54091    12.929118   -447.43529   -434.50617   -4663.8821   -9974.8002   -5827.4706    1810.6246    15.500427    13.423809    26.632573    5541.5664 
   27000       26.988    310.58033    12.766319   -447.25705   -434.49073   -3716.1464   -9559.3529    -6076.653    4487.5666     15.50043    13.423811    26.632555    5541.5645 
   27500       27.488    329.13564     13.52903   -448.00391   -434.47488   -4015.3149   -9356.1022   -5190.6542    2500.8118    15.500432    13.423813    26.632538    5541.5625 
   28000       27.988    339.05848    13.936906   -448.39619   -434.45928   -4912.1403   -10204.699   -6552.8394    2021.1177    15.500434    13.423815     26.63252    5541.5606 
   28500       28.488     311.7171    12.813046    -447.2551   -434.44206   -6395.7016   -10904.615   -6554.2562   -1728.2336    15.500437    13.423817    26.632503    5541.5587 
   29000       28.988    311.94489    12.822409   -447.24742   -434.42501   -2686.4952    -6662.253   -6819.3285    5422.0958    15.500439    13.423819    26.632485    5541.5567 
   29500       29.488    328.65345     13.50921   -447.91752   -434.40831   -4633.8059    -11119.95    -8149.782    5368.3138    15.500442    13.423821    26.632468    5541.5548 
   30000       29.988    314.41137    12.923793   -447.31484   -434.39105   -4486.7805   -8826.6999   -6193.1993    1559.5576    15.500444    13.423823     26.63245    5541.5529 
   30500       30.488    341.43638    14.034649   -448.40831   -434.37366   -4612.8536   -8854.4855   -6530.6119    1546.5368    15.500446    13.423825    26.632433    5541.5509 
   31000       30.988     336.1775    13.818484   -448.17516   -434.35667   -4862.7744   -8776.9109   -8315.1515     2503.739    15.500449    13.423827    26.632415     5541.549 
   31500       31.488    340.68832      14.0039   -448.34251   -434.33861   -4739.4016   -11294.182   -4293.0067    1368.9838    15.500451    13.423829    26.632398     5541.547 
   32000       31.988    320.69477    13.182071   -447.50267    -434.3206   -4742.9539   -7368.6422   -8128.4138    1268.1942    15.500454    13.423831     26.63238    5541.5451 
   32500       32.488    309.30653     12.71396   -447.01641   -434.30245   -3846.2273   -9183.0351   -6474.2544    4118.6075    15.500456    13.423833    26.632363    5541.5432 
   33000       32.988    310.10902    12.746946   -447.03107   -434.28413   -4100.4997   -6933.0524   -8762.0224    3393.5758    15.500458    13.423835    26.632345    5541.5412 
   33500       33.488    323.32624    13.290237   -447.55628   -434.26605   -3609.3344    -9686.592   -4793.9752     3652.564    15.500461    13.423837    26.632328    5541.5393 
   34000       33.988    314.83597    12.941246   -447.18878   -434.24753   -3057.4395    -6512.852   -8311.1753    5651.7088    15.500463    13.423839     26.63231    5541.5374 
   34500       34.488    312.56062    12.847719   -447.07676   -434.22904   -4166.7822   -8341.4035   -8224.2741    4065.3308    15.500466    13.423841    26.632293    5541.5354 
   35000       34.988    331.71607    13.635098   -447.84564   -434.21054   -3601.8233   -9353.9802   -7156.2415    5704.7516    15.500468    13.423843    26.632275    5541.5335 
   35500       35.488    336.19202    13.819081    -448.0112   -434.19212    -3437.097   -10507.812   -6748.7825    6945.3036     15.50047    13.423846    26.632258    5541.5315 
   36000       35.988    331.84015    13.640198   -447.81341   -434.17321   -4943.0452   -9943.3416   -6583.4428    1697.6487    15.500473    13.423848     26.63224    5541.5296 
   36500       36.488    316.73438     13.01928   -447.17292   -434.15364   -3831.8253   -7231.4169   -8040.3323    3776.2731    15.500475     13.42385    26.632223    5541.5277 
   37000       36.988    321.11104    13.199182   -447.33437   -434.13519   -3006.5388   -9251.4869   -4987.7428    5219.6133    15.500478    13.423852    26.632205    5541.5257 
   37500       37.488    306.08782    12.581656   -446.69763   -434.11597   -3470.2445   -9500.9682   -5453.0334     4543.268     15.50048    13.423854    26.632188    5541.5238 
   38000       37.988    317.00641    13.030462   -447.12721   -434.09674   -2785.4335   -8341.8782   -7252.3174    7237.8951    15.500482    13.423856     26.63217    5541.5219 
   38500       38.488    325.04917    13.361057   -447.43914   -434.07808   -3910.3441   -9483.9461   -7768.9858    5521.8996    15.500485    13.423858    26.632153    5541.5199 
   39000       38.988    339.33735    13.948369   -448.00749   -434.05913   -4324.9814   -8813.3543   -7198.8683    3037.2786    15.500487     13.42386    26.632135     5541.518 
   39500       39.488    339.53618    13.956542     -447.996   -434.03946   -4089.2138    -9404.704   -8101.6155    5238.6782     15.50049    13.423862    26.632118     5541.516 
   40000       39.988    333.82527    13.721796   -447.74247   -434.02067   -4219.1785   -9528.8973   -6515.2281    3386.5897    15.500492    13.423864      26.6321    5541.5141 
   40500       40.488    329.12625    13.528644   -447.52999   -434.00134   -4094.3448   -8411.6798   -9481.6262    5610.2716    15.500494    13.423866    26.632083    5541.5122 
   41000       40.988    337.98433    13.892753   -447.87523   -433.98248   -4103.4914   -9676.0973   -4642.8521    2008.4752    15.500497    13.423868    26.632065    5541.5102 
   41500       41.488    324.08181    13.321294   -447.28414   -433.96284     -4188.86   -10860.147   -8479.7911    6773.3577    15.500499     13.42387    26.632048    5541.5083 
   42000       41.988    319.33435    13.126151   -447.06969   -433.94354   -3590.2277    -9500.884   -5038.6747    3768.8755    15.500502    13.423872     26.63203    5541.5064 
   42500       42.488    309.50645    12.722178   -446.64651   -433.92433   -3242.3233   -9411.4946   -3660.3885    3344.9134    15.500504    13.423874    26.632013    5541.5044 
   43000       42.988    334.31593    13.741965    -447.6475   -433.90553   -2862.8836   -6231.7157   -9421.9119    7064.9769    15.500506    13.423876    26.631995    5541.5025 
   43500       43.488    345.09206    14.184915    -448.0713   -433.88638   -4509.6716   -10036.642   -6314.8963    2822.5236    15.500509    13.423878    26.631978    5541.5006 
   44000       43.988    325.55517    13.381856   -447.24942   -433.86757   -3463.5783   -8823.5202   -7160.2235    5593.0089    15.500511     13.42388     26.63196    5541.4986 
   44500       44.488    334.48751    13.749018   -447.59753   -433.84851   -3832.7353   -8633.9294   -6214.0562    3349.7798    15.500514    13.423882    26.631943    5541.4967 
   45000       44.988    330.25314    13.574965   -447.40437   -433.82941   -4495.6654   -11553.937   -8306.6776    6373.6179    15.500516    13.423884    26.631925    5541.4947 
   45500       45.488    340.13727    13.981249   -447.79215    -433.8109   -3780.9052   -9184.5797   -6847.3739    4689.2379    15.500518    13.423887    26.631908    5541.4928 
   46000       45.988    332.63647    13.672931   -447.46535   -433.79242   -3615.3437   -10063.568   -6120.8656    5338.4027    15.500521    13.423889     26.63189    5541.4909 
   46500       46.488    333.24027     13.69775   -447.47115    -433.7734    -4548.733   -9684.1998   -6236.7602     2274.761    15.500523    13.423891    26.631873    5541.4889 
   47000       46.988    326.87373    13.436055    -447.1907   -433.75464   -4214.1199   -9089.4953   -7689.2616    4136.3973    15.500526    13.423893    26.631855     5541.487 
   47500       47.488    337.36514    13.867302   -447.60367   -433.73637   -4543.3885   -9142.9602   -5318.1372    830.93191    15.500528    13.423895    26.631838    5541.4851 
   48000       47.988    324.93775    13.356477   -447.07471   -433.71823   -3082.6512   -9339.8577   -4046.0539     4137.958     15.50053    13.423897     26.63182    5541.4831 
   48500       48.488    317.50917    13.051128   -446.75058   -433.69945    -4214.395   -9596.2449   -10387.099    7340.1587    15.500533    13.423899    26.631803    5541.4812 
   49000       48.988    327.60519    13.466122   -447.14754   -433.68141   -3539.1872   -8934.9294   -7269.4848    5586.8528    15.500535    13.423901    26.631785    5541.4792 
   49500       49.488    312.27067      12.8358   -446.49906   -433.66326   -3566.2965   -9866.8403   -8635.8489    7803.7998    15.500538    13.423903    26.631768    5541.4773 
   50000       49.988    326.75328    13.431104   -447.07628   -433.64518   -4472.0087   -9629.1055   -5957.6212    2170.7006     15.50054    13.423905     26.63175    5541.4754 
   50500       50.488    346.31355    14.235124   -447.86307   -433.62795   -3884.7363   -9434.9569   -3053.8811      834.629    15.500542    13.423907    26.631733    5541.4734 
   51000       50.988    321.01327    13.195163   -446.80542   -433.61025   -3409.7538   -8044.0204   -4637.9916    2452.7505    15.500545    13.423909    26.631715    5541.4715 
   51500       51.488    344.52103    14.161443   -447.75422   -433.59277   -5049.3514   -8440.5105   -5954.9445   -752.59935    15.500547    13.423911    26.631698    5541.4696 
   52000       51.988    327.90386    13.478398   -447.05336   -433.57496   -3177.7859   -8601.9709   -6087.7319     5156.345     15.50055    13.423913     26.63168    5541.4676 
   52500       52.488    348.44536    14.322751   -447.88011   -433.55735   -4422.9962   -10112.911   -7467.1933    4311.1159    15.500552    13.423915    26.631663    5541.4657 
   53000       52.988     344.5083    14.160919   -447.70086   -433.53994   -3517.3237   -7705.9935   -5827.4697     2981.492    15.500554    13.423917    26.631645    5541.4637 
   53500       53.488    332.48673    13.666776    -447.1893   -433.52252   -4083.4154   -8942.6334   -7580.6279     4273.015    15.500557    13.423919    26.631628    5541.4618 
   54000       53.988    333.56968     13.71129   -447.21616   -433.50487   -4983.4452   -10610.706   -8103.0736    3763.4435    15.500559    13.423921     26.63161    5541.4599 
   54500       54.488    333.48418    13.707776   -447.19546   -433.48769   -4864.2491   -8069.2608   -5563.5143   -959.97232    15.500562    13.423923    26.631593    5541.4579 
   55000       54.988    337.31199    13.865117   -447.33579   -433.47067   -4072.1431   -9917.3424   -5939.1452    3640.0583    15.500564    13.423925    26.631575     5541.456 
   55500       55.488    331.94725    13.644601   -447.09837   -433.45377    -3870.401   -11334.223    -4925.985    4649.0047    15.500566    13.423928    26.631558    5541.4541 
   56000       55.988    328.18064    13.489775   -446.92685   -433.43707   -4164.2183   -10403.643   -5349.3974    3260.3852    15.500569     13.42393     26.63154    5541.4521 
   56500       56.488    331.64437    13.632151   -447.05191   -433.41976   -3880.9981   -9025.1283   -6530.9619    3913.0958    15.500571    13.423932    26.631523    5541.4502 
   57000       56.988    327.18651    13.448912   -446.85185   -433.40293   -3853.3903   -10669.552   -5136.4041    4245.7852    15.500574    13.423934    26.631505    5541.4482 
   57500       57.488    327.73981    13.471655     -446.858   -433.38635   -4438.2866   -10753.504   -4753.2103    2191.8547    15.500576    13.423936    26.631488    5541.4463 
   58000       57.988    324.83363    13.352197   -446.72175   -433.36955    -3574.975   -9803.5381    -3236.637    2315.2501    15.500578    13.423938     26.63147    5541.4444 
   58500       58.488    345.36185    14.196004   -447.54969   -433.35369   -3684.6213   -9681.3002   -5475.3475    4102.7837    15.500581     13.42394    26.631453    5541.4424 
   59000       58.988     345.9282    14.219284   -447.55629     -433.337   -3920.8334   -11528.435    -5103.607    4869.5414    15.500583    13.423942    26.631435    5541.4405 
   59500       59.488    330.00509    13.564769   -446.88498   -433.32021    -3711.388   -10107.601    -8301.192    7274.6291    15.500586    13.423944    26.631418    5541.4386 
   60000       59.988    344.65593    14.166987   -447.47127   -433.30429   -3789.5764   -7937.2109   -8088.3329    4656.8147    15.500588    13.423946      26.6314    5541.4366 
   60500       60.488    338.82372    13.927256   -447.21545   -433.28819   -4482.6476   -8438.0959   -6769.0039    1759.1569     15.50059    13.423948    26.631383    5541.4347 
   61000       60.988    335.20909    13.778678   -447.05035   -433.27167   -3732.1782   -9424.3089   -7494.0905    5721.8647    15.500593     13.42395    26.631365    5541.4328 
   61500       61.488    320.60825    13.178514   -446.43407   -433.25555   -3856.9219   -9582.9523   -5480.2868    3492.4733    15.500595    13.423952    26.631348    5541.4308 
   62000       61.988    299.25589    12.300831   -445.53975   -433.23892    -3643.079   -11094.678   -4385.3821    4550.8226    15.500598    13.423954     26.63133    5541.4289 
   62500       62.488    339.30799    13.947162   -447.17123   -433.22407   -2853.3636    -8143.286   -4908.2488    4491.4439      15.5006    13.423956    26.631313    5541.4269 
   63000       62.988    328.26291    13.493157   -446.70113   -433.20797   -3129.5977   -8040.7111   -3675.1237    2327.0416    15.500602    13.423958    26.631295     5541.425 
   63500       63.488    345.56242    14.204249   -447.39675    -433.1925   -3082.6728   -6947.5087    -7004.112    4703.6024    15.500605     13.42396    26.631278    5541.4231 
   64000       63.988    339.64557    13.961038   -447.13703   -433.17599   -4372.3815   -9246.2713   -6414.7115    2543.8383    15.500607    13.423962     26.63126    5541.4211 
   64500       64.488    339.14622    13.940513   -447.10035   -433.15983   -5029.5718   -11238.772   -7016.6723    3166.7284     15.50061    13.423964    26.631243    5541.4192 
   65000       64.988    331.63799    13.631889   -446.77599    -433.1441   -2563.4828   -7751.7588   -5291.9158    5353.2263    15.500612    13.423966    26.631225    5541.4173 
   65500       65.488    339.93968    13.973127   -447.10164   -433.12852   -4941.8314   -11403.732   -7135.9676    3714.2053    15.500614    13.423969    26.631208    5541.4153 
   66000       65.988    331.56681    13.628963   -446.74164   -433.11267   -3008.3563   -9182.9742   -5697.7054    5855.6107    15.500617    13.423971     26.63119    5541.4134 
   66500       66.488    355.64112    14.618531   -447.71607   -433.09754   -4179.7764   -8458.5606   -7494.9279    3414.1592    15.500619    13.423973    26.631173    5541.4114 
   67000       66.988     338.1231    13.898458   -446.98013   -433.08167   -3757.5257   -7508.0402    -7286.287      3521.75    15.500622    13.423975    26.631155    5541.4095 
   67500       67.488    332.69177    13.675204   -446.74076   -433.06556   -2835.5625   -9782.8037   -8220.5814    9496.6975    15.500624    13.423977    26.631138    5541.4076 
   68000       67.988     336.4782    13.830844   -446.88032   -433.04948   -2622.9292   -7771.2246   -6710.3047    6612.7417    15.500626    13.423979     26.63112    5541.4056 
   68500       68.488    341.08033    14.020014   -447.05303   -433.03302   -4448.0477   -8482.2327   -8462.3958    3600.4855    15.500629    13.423981    26.631103    5541.4037 
   69000       68.988    343.12907    14.104227   -447.12148   -433.01726   -4538.8182   -9202.7734   -6438.1667    2024.4854    15.500631    13.423983    26.631085    5541.4018 
   69500       69.488    347.97347    14.303354   -447.30466   -433.00131   -4656.2507   -11416.539   -5591.1777    3038.9649    15.500634    13.423985    26.631068    5541.3998 
   70000       69.988    348.63041    14.330358   -447.31603   -432.98567   -3436.3951   -9540.4386   -5620.8083    4852.0614    15.500636    13.423987     26.63105    5541.3979 
   70500       70.488     341.2817    14.028291   -446.99834   -432.97005    -3288.755    -9373.128   -5990.3351     5497.198    15.500638    13.423989    26.631033    5541.3959 
   71000       70.988    336.41788    13.828365   -446.78226   -432.95389     -4428.08   -8652.8518   -5804.9828    1173.5945    15.500641    13.423991    26.631015     5541.394 
   71500       71.488    323.48521    13.296771   -446.23464   -432.93787   -3302.3945   -8200.5501   -6516.8711    4810.2377    15.500643    13.423993    26.630998    5541.3921 
   72000       71.988    334.50932    13.749914   -446.67214   -432.92222   -3778.6024   -9811.5755   -5286.2169    3761.9854    15.500646    13.423995     26.63098    5541.3901 
   72500       72.488    336.45443    13.829867   -446.73636   -432.90649   -2969.2899   -9834.6035   -3721.0765    4647.8102    15.500648    13.423997    26.630963    5541.3882 
   73000       72.988    357.80233    14.707367     -447.598   -432.89063   -4187.2566   -10014.831    -4331.905    1784.9659     15.50065    13.423999    26.630945    5541.3863 
   73500       73.488    348.45341    14.323082   -447.19789   -432.87481   -3884.5201   -10814.269   -6376.8458    5537.5546    15.500653    13.424001    26.630928    5541.3843 
   74000       73.988    334.18693    13.736662   -446.59483   -432.85817   -2718.9835   -8893.9785   -4641.1995    5378.2274    15.500655    13.424003     26.63091    5541.3824 
   74500       74.488    340.49193    13.995827   -446.83753   -432.84171   -4716.1732   -11407.842   -6458.9545    3718.2763    15.500658    13.424005    26.630893    5541.3804 
   75000       74.988    351.22448    14.436986   -447.26338    -432.8264   -4889.7579   -9842.5178   -7517.2075    2690.4516     15.50066    13.424007    26.630875    5541.3785 
   75500       75.488    352.23037    14.478333   -447.28839   -432.81006   -4636.4237   -10374.812   -3673.0071    138.54804    15.500662     13.42401    26.630858    5541.3766 
   76000       75.988    337.57115     13.87577   -446.66917    -432.7934   -4160.3355   -8176.7617   -8420.6666    4116.4218    15.500665    13.424012     26.63084    5541.3746 
   76500       76.488    350.80884    14.419901   -447.19745   -432.77755   -3716.8978   -8501.3475   -5972.9629    3323.6172    15.500667    13.424014    26.630823    5541.3727 
   77000       76.988     337.3412    13.866318   -446.62701   -432.76069   -3383.5035   -8641.6242   -7523.4138    6014.5275     15.50067    13.424016    26.630805    5541.3708 
   77500       77.488    345.92143    14.219006   -446.96351   -432.74451   -4373.0408   -8802.2022   -7407.8653    3090.9449    15.500672    13.424018    26.630788    5541.3688 
   78000       77.988    347.99263    14.304142   -447.03244    -432.7283   -4342.8405   -9813.5294    -7795.237    4580.2451    15.500674     13.42402     26.63077    5541.3669 
   78500       78.488    346.18932    14.230017   -446.94196   -432.71195   -2334.5436   -6945.8253   -5806.8649    5749.0595    15.500677    13.424022    26.630753     5541.365 
   79000       78.988    355.80227    14.625155   -447.32059   -432.69544   -3862.4721   -8504.3111   -5679.7726    2596.6672    15.500679    13.424024    26.630735     5541.363 
   79500       79.488    346.37883    14.237807   -446.91625   -432.67845    -2936.061   -7885.2707   -4744.6861    3821.7738    15.500682    13.424026    26.630718    5541.3611 
   80000       79.988    340.76307    14.006973   -446.66841   -432.66144   -3135.4404   -7521.2971   -5832.8296    3947.8057    15.500684    13.424028      26.6307    5541.3591 
   80500       80.488    334.76988    13.760624   -446.40515   -432.64453   -2963.7238   -8383.3939   -5587.7558    5079.9784    15.500686     13.42403    26.630683    5541.3572 
   81000       80.988    336.40481    13.827827   -446.45554   -432.62771   -3275.6093   -8879.9564   -6842.6741    5895.8026    15.500689    13.424032    26.630665    5541.3553 
   81500       81.488    362.01737    14.880625   -447.49213    -432.6115   -3501.6535   -7857.1436   -5287.4656    2639.6485    15.500691    13.424034    26.630648    5541.3533 
   82000       81.988    367.55096    15.108081   -447.70261   -432.59453   -3156.7711   -8706.8899   -6791.2643     6027.841    15.500694    13.424036     26.63063    5541.3514 
   82500       82.488    347.46553    14.282475   -446.85964   -432.57717    -2978.563   -8241.6071   -3950.4177    3256.3358    15.500696    13.424038    26.630613    5541.3495 
   83000       82.988    327.40064    13.457714   -446.01727   -432.55956   -3450.5124   -7916.5677   -6455.0679    4020.0985    15.500698     13.42404    26.630595    5541.3475 
   83500       83.488    347.15089    14.269542   -446.81199   -432.54245   -2164.4633   -8279.9623   -6503.9705    8290.5428    15.500701    13.424042    26.630578    5541.3456 
   84000       83.988    335.92695    13.808185   -446.33342   -432.52523   -2852.9041   -8912.3791    -6144.682    6498.3489    15.500703    13.424044     26.63056    5541.3436 
   84500       84.488    354.35853     14.56581   -447.07361    -432.5078   -4008.5118   -10818.845   -5556.9948     4350.304    15.500706    13.424046    26.630543    5541.3417 
   85000       84.988    341.74467    14.047321   -446.53747   -432.49015   -2905.5361   -8618.8125   -5590.5585    5492.7627    15.500708    13.424048    26.630525    5541.3398 
   85500       85.488     349.0686    14.348369   -446.82047    -432.4721   -3728.0846   -9947.0074   -2718.4238    1481.1775     15.50071    13.424051    26.630508    5541.3378 
   86000       85.988     345.7668     14.21265   -446.66744   -432.45479   -3081.2444   -8570.0328   -4886.9069    4213.2065    15.500713    13.424053     26.63049    5541.3359 
   86500       86.488     336.5674    13.834511   -446.27104   -432.43653   -3916.3175   -8751.3717   -7807.4613    4809.8805    15.500715    13.424055    26.630473     5541.334 
   87000       86.988    340.70643    14.004645   -446.42373   -432.41908   -3296.4564    -8560.937   -4282.6262    2954.1941    15.500718    13.424057    26.630455     5541.332 
   87500       87.488    364.81495    14.995619   -447.39699   -432.40138   -4964.7563   -10245.687   -7477.2665    2828.6847     15.50072    13.424059    26.630438    5541.3301 
   88000       87.988    349.12362    14.350631     -446.734   -432.38337   -2410.0307   -5710.5726   -7053.4219    5533.9023    15.500722    13.424061     26.63042    5541.3281 
   88500       88.488    345.44422     14.19939   -446.56405   -432.36466   -3256.6361   -9480.0481   -5384.3783    5094.5179    15.500725    13.424063    26.630403    5541.3262 
   89000       88.988    352.88214    14.505124   -446.85182    -432.3467   -3539.3569   -7780.8199    -6484.072    3646.8212    15.500727    13.424065    26.630385    5541.3243 
   89500       89.488    336.61535    13.836482   -446.16456   -432.32807   -4011.7921   -11805.318   -6745.9874    6515.9296     15.50073    13.424067    26.630368    5541.3223 
   90000       89.988    344.01667    14.140711   -446.45025   -432.30954   -3315.5771   -6579.0329   -5695.9286    2328.2302    15.500732    13.424069     26.63035    5541.3204 
   90500       90.488    347.16041    14.269933   -446.56134    -432.2914   -4054.7601    -9164.025   -6178.5696    3178.3144    15.500734    13.424071    26.630333    5541.3185 
   91000       90.988    329.37012    13.538668   -445.81126    -432.2726   -2371.2945   -10566.934   -3259.9578    6713.0087    15.500737    13.424073    26.630315    5541.3165 
   91500       91.488    372.83017    15.325082   -447.57961   -432.25452   -5152.3332     -10411.5   -6240.2275    1194.7277    15.500739    13.424075    26.630298    5541.3146 
   92000       91.988    355.32536    14.605552   -446.84118   -432.23563   -3604.1163    -9266.603   -6404.4312    4858.6853    15.500742    13.424077     26.63028    5541.3126 
   92500       92.488    347.87874     14.29946   -446.51616    -432.2167   -3482.1865   -9477.7053   -7250.7724    6281.9183    15.500744    13.424079    26.630263    5541.3107 
   93000       92.988     355.9121    14.629669   -446.82728   -432.19761   -3202.5751   -10086.786    -6838.069    7317.1296    15.500746    13.424081    26.630245    5541.3088 
   93500       93.488    342.99042    14.098527   -446.27718   -432.17865   -3221.7082   -8670.8408   -7223.4469     6229.163    15.500749    13.424083    26.630228    5541.3068 
   94000       93.988    363.22232    14.930154   -447.08981   -432.15965   -3006.2927   -9282.7894   -4533.9619    4797.8733    15.500751    13.424085     26.63021    5541.3049 
   94500       94.488    336.61828    13.836602     -445.977   -432.14039   -2674.8632   -11701.128   -4816.8113    8493.3494    15.500754    13.424087    26.630193     5541.303 
   95000       94.988    345.95259    14.220286   -446.34154   -432.12126   -2200.1531   -5799.0087   -5231.2422    4429.7915    15.500756    13.424089    26.630175     5541.301 
   95500       95.488    342.17158    14.064869   -446.16666   -432.10179   -2762.0609    -7782.486   -7108.7232    6605.0265    15.500758    13.424092    26.630158    5541.2991 
   96000       95.988    356.85991    14.668629   -446.75153    -432.0829   -3815.8837   -9364.7423   -5064.9183    2982.0094    15.500761    13.424094     26.63014    5541.2971 
   96500       96.488    361.20618    14.847281   -446.91033   -432.06305   -3268.0477   -8378.8408    -6030.871    4605.5688    15.500763    13.424096    26.630123    5541.2952 
   97000       96.988    355.94521     14.63103   -446.67457   -432.04354   -3140.1244    -6820.704   -5332.7487    2733.0794    15.500766    13.424098    26.630105    5541.2933 
   97500       97.488    344.15472    14.146386    -446.1696   -432.02322   -2650.7617   -6563.2274   -3540.2122    2151.1545    15.500768      13.4241    26.630088    5541.2913 
   98000       97.988     337.7075    13.881374   -445.88509   -432.00371   -1929.0822   -7860.1187    -3113.872     5186.744     15.50077    13.424102     26.63007    5541.2894 
   98500       98.488    343.59727    14.123472   -446.10764   -431.98417   -3066.8976   -6468.8767   -6750.0808    4018.2646    15.500773    13.424104    26.630053    5541.2875 
   99000       98.988    377.45624    15.515235   -447.47958   -431.96434   -4040.7662   -9956.2045   -7445.7508    5279.6567    15.500775    13.424106    26.630035    5541.2855 
   99500       99.488    365.85462    15.038354   -446.98148   -431.94312   -4019.5818   -9879.9199   -4382.8901    2204.0645    15.500778    13.424108    26.630018    5541.2836 
  100000       99.988     350.4783    14.406315   -446.32934   -431.92303   -3487.0453   -7113.6315   -5457.3482    2109.8439     15.50078     13.42411        26.63    5541.2816 
  100500      100.488    335.14537    13.776059   -445.67875    -431.9027   -2603.8239   -7384.0398   -6310.5629    5883.1309    15.500782    13.424112    26.629983    5541.2797 
  101000      100.988    362.54908    14.902481   -446.78525   -431.88277   -2973.7286   -9046.1371   -5495.5131    5620.4643    15.500785    13.424114    26.629965    5541.2778 
  101500      101.488    349.73462    14.375746   -446.23794   -431.86219   -2586.2894   -6265.5332   -5263.8265    3770.4917    15.500787    13.424116    26.629948    5541.2758 
  102000      101.988    354.43993    14.569156   -446.41061   -431.84146   -3646.5005   -9265.5635   -5454.0697    3780.1317     15.50079    13.424118     26.62993    5541.2739 
  102500      102.488    349.11722    14.350368    -446.1712   -431.82083   -2652.9556   -8302.7599   -8977.5084    9321.4014    15.500792     13.42412    26.629913     5541.272 
  103000      102.988    370.25227    15.219118   -447.01966   -431.80054   -4240.8536   -9860.3133   -10113.127    7250.8796    15.500794    13.424122    26.629895      5541.27 
  103500      103.488    377.79195    15.529034   -447.30945   -431.78042   -2867.7825   -8447.8722   -5773.4248    5617.9496    15.500797    13.424124    26.629878    5541.2681 
  104000      103.988    356.11574     14.63804   -446.39688   -431.75884   -3477.7707   -10720.712   -6613.8274    6901.2274    15.500799    13.424126     26.62986    5541.2661 
  104500      104.488    344.73526    14.170249   -445.90783   -431.73758   -2426.8064   -8923.3484   -4947.1909    6590.1202    15.500802    13.424128    26.629843    5541.2642 
  105000      104.988    349.66785    14.373001   -446.09037   -431.71737   -3247.5811    -8243.356   -8032.3695    6532.9823    15.500804     13.42413    26.629825    5541.2623 
  105500      105.488    360.28569    14.809445   -446.50594    -431.6965    -2158.676    -8326.593   -5740.3808    7590.9457    15.500806    13.424133    26.629808    5541.2603 
  106000      105.988     333.1589    13.694405    -445.3688    -431.6744   -2887.7974   -9596.2186   -3049.6279    3982.4544    15.500809    13.424135     26.62979    5541.2584 
  106500      106.488    367.96233    15.124991   -446.77931   -431.65432   -1754.7199   -8111.1843    -2700.864    5547.8887    15.500811    13.424137    26.629773    5541.2565 
  107000      106.988    346.47992    14.241962   -445.87489   -431.63293   -2536.5547   -6832.5685    -8170.151    7393.0555    15.500814    13.424139    26.629755    5541.2545 
  107500      107.488     373.5595    15.355061   -446.96681   -431.61175   -3282.0805   -11297.155   -4022.3102    5473.2239    15.500816    13.424141    26.629738    5541.2526 
  108000      107.988    365.94827    15.042203   -446.63265   -431.59044    -3300.789     -7865.44    -4912.455    2875.5279    15.500818    13.424143     26.62972    5541.2507 
  108500      108.488    354.80973    14.584357   -446.15365    -431.5693   -1243.4646   -6337.2248    -3591.785     6198.616    15.500821    13.424145    26.629703    5541.2487 
  109000      108.988     346.6326    14.248238   -445.79561   -431.54738   -3264.4782   -7287.6729   -4512.7434    2006.9817    15.500823    13.424147    26.629685    5541.2468 
  109500      109.488    364.25494      14.9726    -446.4991    -431.5265   -3083.0419   -5890.1201    -7816.174    4457.1685    15.500826    13.424149    26.629668    5541.2448 
  110000      109.988    353.46996    14.529286   -446.03375   -431.50447   -2041.1314   -7786.4673   -3264.5981    4927.6712    15.500828    13.424151     26.62965    5541.2429 
  110500      110.488    358.68466    14.743635   -446.22731   -431.48367   -2500.0046   -8019.4653   -5548.9758    6068.4272     15.50083    13.424153    26.629633     5541.241 
  111000      110.988    351.40229    14.444295    -445.9059    -431.4616   -2289.4614   -10267.105   -5110.0018    8508.7228    15.500833    13.424155    26.629615     5541.239 
  111500      111.488     358.3783    14.731042   -446.17071   -431.43967   -2213.6704   -7325.7794   -3138.6757    3823.4438    15.500835    13.424157    26.629598    5541.2371 
  112000      111.988    367.69839    15.114142   -446.53257   -431.41842   -3083.7025   -8247.4488   -6422.2202    5418.5613    15.500838    13.424159     26.62958    5541.2352 
  112500      112.488    374.39724    15.389496   -446.78624   -431.39675   -3698.2789   -10759.888   -5933.7505    5598.8018     15.50084    13.424161    26.629563    5541.2332 
  113000      112.988     339.0029    13.934621   -445.30832    -431.3737   -1560.0709   -7549.9908   -2941.4594    5811.2375    15.500842    13.424163    26.629545    5541.2313 
  113500      113.488    339.20361    13.942871   -445.29543   -431.35256   -3230.4428   -9920.1835   -2697.0093    2925.8645    15.500845    13.424165    26.629528    5541.2293 
  114000      113.988    365.23545    15.012903    -446.3442    -431.3313   -3053.6711   -9983.3149   -4938.6981    5760.9998    15.500847    13.424167     26.62951    5541.2274 
  114500      114.488    373.31553    15.345033   -446.65422   -431.30919   -2704.9828   -9541.2349   -5593.3261    7019.6125     15.50085    13.424169    26.629493    5541.2255 
  115000      114.988    371.74965    15.280667   -446.56742   -431.28676   -2140.0487   -6196.4303   -6743.6224    6519.9065    15.500852    13.424171    26.629475    5541.2235 
  115500      115.488    362.72286    14.909624   -446.17347   -431.26385   -3163.9839   -9083.8847   -5662.7921    5254.7249    15.500854    13.424174    26.629458    5541.2216 
  116000      115.988    372.05878    15.293374   -446.53557    -431.2422   -2715.9309   -9030.4863   -6326.1878    7208.8813    15.500857    13.424176     26.62944    5541.2197 
  116500      116.488     350.4834    14.406524     -445.626   -431.21947   -3948.8114   -12904.604   -4301.3543    5359.5238    15.500859    13.424178    26.629423    5541.2177 
  117000      116.988    359.64011    14.782908   -445.98025   -431.19734   -2290.7658   -7029.7875     -7908.11    8065.6001    15.500862     13.42418    26.629405    5541.2158 
  117500      117.488    349.12182    14.350557   -445.52554   -431.17499   -2856.7654    -10386.48   -3953.9288    5770.1124    15.500864    13.424182    26.629388    5541.2138 
  118000      117.988    359.55752    14.779514   -445.93216   -431.15264   -2261.1232    -7242.602   -4559.6515    5018.8839    15.500866    13.424184     26.62937    5541.2119 
  118500      118.488    353.06529    14.512652   -445.64306   -431.13041   -3255.6189   -8301.4528   -7879.9244    6414.5205    15.500869    13.424186    26.629353      5541.21 
  119000      118.988    347.98422    14.303796   -445.41129   -431.10749   -3130.7695   -6119.2966   -6555.1054    3282.0935    15.500871    13.424188    26.629335     5541.208 
  119500      119.488    352.00061    14.468888   -445.55353   -431.08464   -2898.5395   -9412.0384   -7565.0661    8281.4861    15.500874     13.42419    26.629318    5541.2061 
  120000      119.988    338.16573     13.90021   -444.96176   -431.06155   -2577.8916   -8695.5669   -3528.2314    4490.1233    15.500876    13.424192      26.6293    5541.2042 
  120500      120.488    367.24042    15.095317   -446.13433   -431.03901   -2779.5581   -8837.2247   -6146.0769    6644.6273    15.500878    13.424194    26.629283    5541.2022 
  121000      120.988    363.21603    14.929895   -445.94604   -431.01614   -2019.5317   -6430.7209    -4881.098    5253.2238    15.500881    13.424196    26.629265    5541.2003 
  121500      121.488    362.37174    14.895191   -445.88873   -430.99354   -3404.3737   -11942.206   -6991.5465    8720.6311    15.500883    13.424198    26.629248    5541.1983 
  122000      121.988    380.01097    15.620247   -446.59126   -430.97101   -2941.5369   -9648.2003   -4365.2607    5188.8504    15.500886      13.4242     26.62923    5541.1964 
  122500      122.488    365.67433    15.030943   -445.97909   -430.94815   -2013.6749   -8670.4014   -4379.3238    7008.7005    15.500888    13.424202    26.629213    5541.1945 
  123000      122.988    378.67208    15.565212   -446.49116   -430.92595   -2910.7052   -8938.0324   -5771.2159    5977.1328     15.50089    13.424204    26.629195    5541.1925 
  123500      123.488    356.65804    14.660331   -445.56281   -430.90248   -2003.0036   -6351.9606   -4725.9096    5068.8594    15.500893    13.424206    26.629178    5541.1906 
  124000      123.988    355.07803    14.595385   -445.47498   -430.87959   -2633.4024   -7933.2304    -6756.105    6789.1283    15.500895    13.424208     26.62916    5541.1887 
  124500      124.488     354.2617     14.56183   -445.41856   -430.85673   -2947.1089   -9150.4859   -5466.1706    5775.3297    15.500898     13.42421    26.629143    5541.1867 
  125000      124.988    378.88516    15.573971    -446.4078   -430.83382   -3033.0281   -6751.1598   -6860.5314    4512.6067      15.5009    13.424212    26.629125    5541.1848 
  125500      125.488    356.56663    14.656574   -445.46728   -430.81071   -1557.0798   -6884.3832   -6279.9047    8493.0486    15.500902    13.424215    26.629108    5541.1828 
  126000      125.988    369.85566    15.202816   -445.99113   -430.78831    -2081.346   -6918.9707   -7379.1185    8054.0512    15.500905    13.424217     26.62909    5541.1809 
  126500      126.488     370.2103    15.217393   -445.98251   -430.76512   -2650.2103   -7728.0125   -5390.0128    5167.3944    15.500907    13.424219    26.629073     5541.179 
  127000      126.988    375.28373    15.425935    -446.1682   -430.74227    -2830.128    -9084.124   -3791.5476    4385.2878     15.50091    13.424221    26.629055     5541.177 
  127500      127.488    368.10515    15.130861   -445.84899   -430.71813   -2843.4443   -8594.5267    -2362.851    2427.0448    15.500912    13.424223    26.629038    5541.1751 
  128000      127.988    380.44264     15.63799   -446.33271   -430.69472   -3507.4859   -7798.8311   -6367.6723    3644.0456    15.500914    13.424225     26.62902    5541.1732 
  128500      128.488    361.46478    14.857911   -445.52901    -430.6711   -2742.6903   -7968.7581   -3588.7632    3329.4504    15.500917    13.424227    26.629003    5541.1712 
  129000      128.988    370.62262    15.234341   -445.88227   -430.64793   -1874.9017   -5277.7564   -4840.2563    4493.3075    15.500919    13.424229    26.628985    5541.1693 
  129500      129.488    363.50548    14.941793   -445.56706   -430.62527   -1423.4093   -8589.6693   -3243.0873    7562.5285    15.500922    13.424231    26.628968    5541.1673 
  130000      129.988    361.27475      14.8501   -445.45138   -430.60128   -3092.1329   -6267.8419   -5485.8961    2477.3393    15.500924    13.424233     26.62895    5541.1654 
  130500      130.488    343.67065    14.126488    -444.7041   -430.57761   -1704.6083   -9396.6479    -2939.381    7222.2041    15.500926    13.424235    26.628933    5541.1635 
  131000      130.988    377.71122    15.525716   -446.08063   -430.55492   -3379.1664   -8813.7779   -5997.4409    4673.7196    15.500929    13.424237    26.628915    5541.1615 
  131500      131.488    369.17764    15.174946   -445.70611   -430.53117   -2823.5359   -8044.4346   -2325.8799    1899.7069    15.500931    13.424239    26.628898    5541.1596 
  132000      131.988    390.70905    16.059989   -446.56817   -430.50819   -3052.4362   -10415.194   -4261.0983    5518.9841    15.500934    13.424241     26.62888    5541.1577 
  132500      132.488    360.79437    14.830354   -445.31446   -430.48411   -3626.8968   -8779.2164   -4675.7708    2574.2968    15.500936    13.424243    26.628863    5541.1557 
  133000      132.988    368.07767    15.129732   -445.59009   -430.46035   -2237.8844   -7607.1111   -3843.1011    4736.5588    15.500938    13.424245    26.628845    5541.1538 
  133500      133.488    380.20244    15.628117   -446.06511   -430.43699   -1981.2468   -9159.6066   -3457.1677     6673.034    15.500941    13.424247    26.628828    5541.1518 
  134000      133.988    363.19597    14.929071   -445.34252   -430.41345   -1483.6415   -8153.2647   -6255.1017    9957.4418    15.500943    13.424249     26.62881    5541.1499 
  134500      134.488    372.32527    15.304328   -445.69423   -430.38991   -2799.2338    -8396.285    -2925.609    2924.1925    15.500946    13.424251    26.628793     5541.148 
  135000      134.988    358.73717    14.745793   -445.11145   -430.36566   -3256.2261   -8360.6253   -3972.8891    2564.8361    15.500948    13.424253    26.628775     5541.146 
  135500      135.488    380.05705    15.622141   -445.96487   -430.34273   -2802.4955    -8767.356   -4344.1673    4704.0366     15.50095    13.424256    26.628758    5541.1441 
  136000      135.988    367.41305    15.102413   -445.42086   -430.31845    -2777.146   -9424.3307   -2926.1825    4019.0752    15.500953    13.424258     26.62874    5541.1422 
  136500      136.488    372.05774    15.293331   -445.58796   -430.29463   -2556.1342   -8457.8582   -3018.3642    3807.8197    15.500955     13.42426    26.628723    5541.1402 
  137000      136.988    387.50448    15.928266   -446.19935   -430.27108   -3327.7484   -7711.9223   -8026.0024    5754.6795    15.500958    13.424262    26.628705    5541.1383 
  137500      137.488    365.71569    15.032643   -445.28038   -430.24774   -1396.6553   -9866.3845   -1310.1186    6986.5372     15.50096    13.424264    26.628688    5541.1363 
  138000      137.988    402.73945    16.554495   -446.77994   -430.22544    -2092.621   -8219.4123   -4384.7227    6326.2721    15.500962    13.424266     26.62867    5541.1344 
  138500      138.488    378.19902    15.545767    -445.7471   -430.20133   -1903.7222   -8522.4389   -5963.2653    8774.5375    15.500965    13.424268    26.628653    5541.1325 
  139000      138.988    377.49769    15.516939   -445.69432   -430.17738   -2766.8794   -8214.0203   -5932.9665    5846.3488    15.500967     13.42427    26.628635    5541.1305 
  139500      139.488    372.46703    15.310155   -445.46337   -430.15321   -3486.8938   -9231.5172   -7686.6536    6457.4894     15.50097    13.424272    26.628618    5541.1286 
  140000      139.988    370.17624    15.215993   -445.34555   -430.12955    -2075.223   -7942.0674   -4038.8853    5755.2836    15.500972    13.424274      26.6286    5541.1267 
  140500      140.488    383.76333    15.774486   -445.88033   -430.10584   -1824.5418   -10160.298   -3828.6354     8515.308    15.500974    13.424276    26.628583    5541.1247 
  141000      140.988    379.80747    15.611882   -445.69408    -430.0822   -2319.2293   -9242.6151   -2933.3581    5218.2854    15.500977    13.424278    26.628565    5541.1228 
  141500      141.488    388.23415    15.958258   -446.01647   -430.05822   -2591.3646   -9356.4756    -4596.317    6178.6989    15.500979     13.42428    26.628548    5541.1208 
  142000      141.988    382.10911     15.70649   -445.74027   -430.03378   -2781.7611   -6886.7703   -7463.0649    6004.5519    15.500982    13.424282     26.62853    5541.1189 
  142500      142.488    371.00276    15.249967   -445.26028   -430.01032   -2824.0534   -8969.2465   -3459.4231    3956.5093    15.500984    13.424284    26.628513     5541.117 
  143000      142.988    362.71273    14.909208   -444.89528   -429.98608     -2329.43   -7621.3053    -6661.188    7294.2031    15.500986    13.424286    26.628495     5541.115 
  143500      143.488    402.36015    16.538904   -446.50182   -429.96292   -2155.1055   -5970.8999   -7605.7493    7111.3326    15.500989    13.424288    26.628478    5541.1131 
  144000      143.988    357.41487     14.69144   -444.62985   -429.93841   -2139.5592   -8873.2264   -2808.6071     5263.156    15.500991     13.42429     26.62846    5541.1112 
  144500      144.488    374.44647     15.39152    -445.3062   -429.91468    -2431.424   -7169.4779    -4716.847    4592.0529    15.500994    13.424292    26.628443    5541.1092 
  145000      144.988    384.98458    15.824686   -445.71501   -429.89032   -3598.3973   -8356.2666    -4962.801    2523.8756    15.500996    13.424294    26.628425    5541.1073 
  145500      145.488    383.31008    15.755856   -445.62141   -429.86555    -2273.094   -4994.2253   -7143.5873    5318.5305    15.500998    13.424297    26.628408    5541.1053 
  146000      145.988    388.87243    15.984495   -445.82693   -429.84243   -2501.4659    -6918.286   -5244.3583    4658.2466    15.501001    13.424299     26.62839    5541.1034 
  146500      146.488    380.22052     15.62886   -445.44701   -429.81815    -2250.051   -10262.316   -4841.2227    8353.3858    15.501003    13.424301    26.628373    5541.1015 
  147000      146.988    402.09493    16.528002   -446.32225   -429.79425   -2549.8866   -9724.5565   -4180.4114    6255.3081    15.501006    13.424303    26.628355    5541.0995 
  147500      147.488    380.63587    15.645933   -445.41514   -429.76921   -1678.9429   -6263.7384   -5294.9986    6521.9083    15.501008    13.424305    26.628338    5541.0976 
  148000      147.988    377.24374    15.506501   -445.25189   -429.74539    -1832.112   -7890.1383   -6920.1376    9313.9399     15.50101    13.424307     26.62832    5541.0957 
  148500      148.488    370.21528    15.217598    -444.9385   -429.72091   -2046.6511   -7984.2242   -7982.0272    9826.2981    15.501013    13.424309    26.628303    5541.0937 
  149000      148.988    382.42689    15.719553   -445.41635    -429.6968   -1428.7118   -6222.0743   -4482.4563    6418.3951    15.501015    13.424311    26.628285    5541.0918 
  149500      149.488    392.30332    16.125521   -445.79744   -429.67192     -2671.37   -6959.6965   -4598.3417    3543.9281    15.501018    13.424313    26.628268    5541.0898 
  150000      149.988    389.74282    16.020272     -445.668   -429.64773   -2352.6985   -7976.3396   -5441.9023    6360.1465     15.50102    13.424315     26.62825    5541.0879 
  150500      150.488    385.86489    15.860871   -445.48428   -429.62341   -2059.9362   -6782.3892   -4503.3281    5105.9087    15.501022    13.424317    26.628233     5541.086 
  151000      150.988    373.33398    15.345791   -444.94433   -429.59854   -2594.3639   -9365.7172   -4570.7744    6153.3999    15.501025    13.424319    26.628215     5541.084 
  151500      151.488    386.64518    15.892944   -445.46725    -429.5743   -2630.5471   -7671.7797     -6559.29    6339.4285    15.501027    13.424321    26.628198    5541.0821 
  152000      151.988    415.86434     17.09399    -446.6433   -429.54931   -2516.3248    -10076.19   -5633.4104    8160.6261     15.50103    13.424323     26.62818    5541.0802 
  152500      152.488    380.42659    15.637331   -445.16155   -429.52422   -2669.4305   -7945.0257   -6586.9771    6523.7112    15.501032    13.424325    26.628163    5541.0782 
  153000      152.988    393.74026    16.184585   -445.68489    -429.5003   -3088.4225   -9667.8421   -7062.6382     7465.213    15.501034    13.424327    26.628145    5541.0763 
  153500      153.488    365.05451    15.005466   -444.48009   -429.47462   -1565.8837   -5545.3742   -4434.1635    5281.8867    15.501037    13.424329    26.628128    5541.0743 
  154000      153.988    370.65789    15.235791   -444.68612   -429.45033   -1963.6246   -7900.7856    -5384.017    7393.9288    15.501039    13.424331     26.62811    5541.0724 
  154500      154.488     383.8436    15.777786   -445.20416   -429.42637   -956.64728   -7898.0338   -3428.3556    8456.4476    15.501042    13.424333    26.628093    5541.0705 
  155000      154.988    374.89517    15.409963   -444.81035   -429.40039   -1552.7337   -8485.2818   -4645.2051    8472.2858    15.501044    13.424335    26.628075    5541.0685 
  155500      155.488    387.82136    15.941291   -445.31723   -429.37593   -1624.6199   -7395.8678   -5760.6585    8282.6665    15.501046    13.424338    26.628058    5541.0666 
  156000      155.988    388.58142    15.972533    -445.3241   -429.35157    -724.9297   -4905.7346   -6329.2222    9060.1677    15.501049     13.42434     26.62804    5541.0647 
  156500      156.488    391.74964    16.102762    -445.4298   -429.32704   -2022.9198   -6211.6596    -3709.261    3852.1612    15.501051    13.424342    26.628023    5541.0627 
  157000      156.988    382.53365    15.723941    -445.0255   -429.30156   -1356.5751   -6419.2701   -5938.8329    8288.3779    15.501054    13.424344    26.628005    5541.0608 
  157500      157.488    395.70723    16.265437   -445.54265   -429.27721   -2606.4043   -8076.5733   -5118.2853    5375.6456    15.501056    13.424346    26.627988    5541.0588 
  158000      157.988    398.76641    16.391184   -445.64331   -429.25212   -2381.7217   -7435.0334   -4964.8988    5254.7672    15.501058    13.424348     26.62797    5541.0569 
  158500      158.488    378.13589    15.543172    -444.7707   -429.22753   -1817.7803   -7332.1876   -682.91896    2561.7656    15.501061     13.42435    26.627953     5541.055 
  159000      158.988    389.78815    16.022135   -445.22545   -429.20331   -1994.9059   -8175.3433   -2446.1812    4636.8069    15.501063    13.424352    26.627935     5541.053 
  159500      159.488    358.78498    14.747758   -443.92502   -429.17726   -1588.4191   -7033.2526   -1223.7421    3491.7375    15.501066    13.424354    26.627918    5541.0511 
  160000      159.988    388.38258     15.96436   -445.11809   -429.15373   -670.41275   -7543.8308    -3868.826    9401.4185    15.501068    13.424356      26.6279    5541.0492 
  160500      160.488    382.71472    15.731384   -444.85957   -429.12819   -1252.5499   -7855.3002   -4201.5474    8299.1979     15.50107    13.424358    26.627883    5541.0472 
  161000      160.988    376.13818    15.461057   -444.56446   -429.10341   -1370.0372   -9536.2122    -3756.739    9182.8396    15.501073     13.42436    26.627865    5541.0453 
  161500      161.488    410.10958    16.857442   -445.93661   -429.07917   -1628.3154   -3453.8515   -4490.0161    3058.9214    15.501075    13.424362    26.627848    5541.0433 
  162000      161.988    383.32591    15.756507    -444.8103    -429.0538   -2066.3558   -11138.858   -6102.6384    11042.429    15.501078    13.424364     26.62783    5541.0414 
  162500      162.488     381.8601    15.696255   -444.72426     -429.028   -972.22164    -5893.565   -3369.2684    6346.1686     15.50108    13.424366    26.627813    5541.0395 
  163000      162.988    398.55855     16.38264   -445.38618   -429.00354   -3006.2022   -8573.7967   -7874.4019     7429.592    15.501082    13.424368    26.627795    5541.0375 
  163500      163.488    404.69364    16.634821   -445.61352    -428.9787    -3040.298   -7192.2322   -7176.5853    5247.9235    15.501085     13.42437    26.627778    5541.0356 
  164000      163.988    368.75707    15.157658   -444.11004   -428.95238   -1585.7108   -8926.3203   -5057.6254    9226.8132    15.501087    13.424372     26.62776    5541.0337 
  164500      164.488    366.38148     15.06001   -443.98703   -428.92702   -1308.7456   -6656.9741   -4515.1213    7245.8586     15.50109    13.424374    26.627743    5541.0317 
  165000      164.988    372.23221    15.300503   -444.20279   -428.90229   -1146.0131   -8057.0307   -3486.4485    8105.4398    15.501092    13.424376    26.627725    5541.0298 
  165500      165.488    389.18934    15.997521   -444.87497   -428.87745   -1326.3527    -4926.821   -7281.0522     8228.815    15.501094    13.424379    26.627708    5541.0278 
  166000      165.988    397.40826    16.335358   -445.18766   -428.85231   -2455.1432   -5950.4766   -4385.9733    2971.0202    15.501097    13.424381     26.62769    5541.0259 
  166500      166.488    377.85019    15.531428    -444.3584   -428.82697   -1492.4281   -6776.5706    -5027.469    7326.7552    15.501099    13.424383    26.627673     5541.024 
  167000      166.988    386.50329    15.887112    -444.6885   -428.80138    -1512.087   -7707.0733   -2479.4431    5650.2554    15.501102    13.424385    26.627655     5541.022 
  167500      167.488    390.63468    16.056931   -444.83306   -428.77612   -1752.1816    -6299.329   -5514.2666    6557.0507    15.501104    13.424387    26.627638    5541.0201 
  168000      167.988      365.054    15.005445   -443.75605   -428.75061   -620.77742   -6135.4801   -3079.6667    7352.8146    15.501106    13.424389     26.62762    5541.0182 
  168500      168.488    417.95353    17.179865   -445.90514   -428.72527    -2767.522   -8023.4888   -5511.0839    5232.0066    15.501109    13.424391    26.627603    5541.0162 
  169000      168.988    381.54556    15.683326    -444.3834   -428.70007   -2000.0128   -9155.9238   -6628.7392    9784.6245    15.501111    13.424393    26.627585    5541.0143 
  169500      169.488    384.16689    15.791075   -444.46557    -428.6745   -2322.8636   -7210.1399   -4642.3829    4883.9319    15.501114    13.424395    26.627568    5541.0123 
  170000      169.988    402.30772    16.536749   -445.18586   -428.64911   -2098.1128   -5861.4057   -4826.5307    4393.5981    15.501116    13.424397     26.62755    5541.0104 
  170500      170.488    395.52592    16.257984   -444.88177   -428.62378   -929.50629   -7640.0321   -4003.6285    8855.1418    15.501118    13.424399    26.627533    5541.0085 
  171000      170.988    384.13113    15.789605   -444.38734   -428.59773   -1661.2806   -9164.5881    -4516.787    8697.5334    15.501121    13.424401    26.627515    5541.0065 
  171500      171.488    398.79628    16.392412   -444.96429   -428.57187   -1352.0992   -7623.3936   -3084.5107    6651.6067    15.501123    13.424403    26.627498    5541.0046 
  172000      171.988    431.93415    17.754535   -446.30207   -428.54753   -2376.1391    -9959.065   -5163.3343     7993.982    15.501126    13.424405     26.62748    5541.0027 
  172500      172.488    419.56632    17.246159   -445.76758   -428.52143   -1654.3751   -7663.4696   -3452.5441    6152.8883    15.501128    13.424407    26.627463    5541.0007 
  173000      172.988    392.67678    16.140871   -444.63602   -428.49515   -1020.7265   -9984.3296    -4165.537    11087.687     15.50113    13.424409    26.627445    5540.9988 
  173500      173.488    403.99433    16.606076   -445.07558   -428.46951   -2685.4037   -8036.9745   -4522.8897     4503.653    15.501133    13.424411    26.627428    5540.9968 
  174000      173.988    390.90413    16.068007   -444.51074   -428.44274   -756.20162   -7187.5582   -3638.1061    8557.0595    15.501135    13.424413     26.62741    5540.9949 
  174500      174.488    397.29508    16.330705   -444.74784   -428.41714   -1984.3475   -9272.6808   -3913.0587    7232.6971    15.501138    13.424415    26.627393     5540.993 
  175000      174.988    395.94073    16.275035   -444.66714   -428.39211   -1118.8498    -7005.846   -3178.8063     6828.103     15.50114    13.424417    26.627375     5540.991 
  175500      175.488    386.72952    15.896411   -444.26209   -428.36568   -1208.6009   -7893.5423   -3184.6634    7452.4029    15.501142     13.42442    26.627358    5540.9891 
  176000      175.988    399.95859    16.440188   -444.78026   -428.34007   -1998.5234   -6030.5914   -6460.2139    6495.2353    15.501145    13.424422     26.62734    5540.9872 
  176500      176.488    414.13832    17.023042   -445.33771   -428.31467   -358.54687   -6076.0247   -4328.7871    9329.1713    15.501147    13.424424    26.627323    5540.9852 
  177000      176.988    395.66114    16.263543   -444.55203   -428.28849   -800.15917    -6874.546   -4681.4957    9155.5641     15.50115    13.424426    26.627305    5540.9833 
  177500      177.488    396.73598    16.307724   -444.57053   -428.26281    230.55145   -5250.4462      -4296.1    10238.201    15.501152    13.424428    26.627288    5540.9813 
  178000      177.988    382.71733    15.731491   -443.96826   -428.23677   -360.66802    -4983.084   -5141.5161    9042.5961    15.501154     13.42443     26.62727    5540.9794 
  178500      178.488    410.20082    16.861192   -445.07362   -428.21243   -678.94008   -8561.2535   -3390.5635    9914.9967    15.501157    13.424432    26.627253    5540.9775 
  179000      178.988    382.54271    15.724313   -443.90926   -428.18495   -851.89168   -4839.9095   -7153.8066    9438.0411    15.501159    13.424434    26.627235    5540.9755 
  179500      179.488    410.99736    16.893934   -445.05361   -428.15968   -2949.8633   -10225.381   -6423.0149    7798.8057    15.501162    13.424436    26.627218    5540.9736 
  180000      179.988    383.66764    15.770553   -443.90372   -428.13317    -1041.858   -6154.8276   -4059.3965    7088.6503    15.501164    13.424438      26.6272    5540.9717 
  180500      180.488    414.46485    17.036464   -445.14442   -428.10796   -2538.2083   -11815.669   -2649.4358    6850.4798    15.501166     13.42444    26.627183    5540.9697 
  181000      180.988    417.79351    17.173288   -445.25523   -428.08194   -1699.9675   -5307.2325   -5910.2812    6117.6112    15.501169    13.424442    26.627165    5540.9678 
  181500      181.488    389.05273    15.991906   -444.04661    -428.0547   -1191.5768    -5920.478   -6349.8137    8695.5612    15.501171    13.424444    26.627148    5540.9658 
  182000      181.988    403.61423    16.590452   -444.62004   -428.02959   -1793.7008   -5721.9512   -6963.6436    7304.4925    15.501174    13.424446     26.62713    5540.9639 
  182500      182.488     384.9738    15.824243   -443.82689   -428.00264    166.53363   -6587.0053   -2205.8738    9292.4799    15.501176    13.424448    26.627113     5540.962 
  183000      182.988    410.52116     16.87436   -444.85257   -427.97821   -2252.0605   -8161.5883   -5510.5147    6915.9214    15.501178     13.42445    26.627095      5540.96 
  183500      183.488    388.82803    15.982669   -443.93403   -427.95136   -736.99636   -8023.3525   -3034.2354    8846.5989    15.501181    13.424452    26.627078    5540.9581 
  184000      183.988    413.62801    17.002066   -444.92782   -427.92575   -1617.6863   -9653.6354     -7533.38    12333.956    15.501183    13.424454     26.62706    5540.9562 
  184500      184.488     413.5456    16.998679   -444.89794   -427.89926   -2014.8064   -7367.6181   -7379.5853    8702.7841    15.501186    13.424456    26.627043    5540.9542 
  185000      184.988    397.00959     16.31897   -444.19298   -427.87401   -1150.1181   -5800.4723   -5719.1993    8069.3174    15.501188    13.424458    26.627025    5540.9523 
  185500      185.488    413.78659    17.008584   -444.85718   -427.84859   -1191.9281   -6899.3085   -2290.5932    5614.1175     15.50119    13.424461    26.627008    5540.9503 
  186000      185.988    401.68448    16.511131   -444.33303    -427.8219   -1287.8782   -6347.1914   -8037.6136     10521.17    15.501193    13.424463     26.62699    5540.9484 
  186500      186.488    416.05719    17.101917   -444.89787   -427.79595   -1574.7819   -6060.5964   -4106.1826    5442.4333    15.501195    13.424465    26.626973    5540.9465 
  187000      186.988    394.00774     16.19558   -443.96442   -427.76884    -1311.782   -7835.2495    -2597.965    6497.8686    15.501198    13.424467    26.626955    5540.9445 
  187500      187.488    385.84248     15.85995   -443.60258   -427.74263   -703.07923   -6670.0112   -2606.8337    7167.6072      15.5012    13.424469    26.626938    5540.9426 
  188000      187.988    413.87014    17.012019   -444.72857   -427.71655    -1489.695   -4485.1772   -6069.6754    6085.7675    15.501202    13.424471     26.62692    5540.9407 
  188500      188.488    390.83993    16.065368   -443.75554   -427.69017   -215.81555   -6430.7875   -2010.3813    7793.7222    15.501205    13.424473    26.626903    5540.9387 
  189000      188.988    405.93012    16.685646   -444.34949   -427.66384    -1554.451   -7024.1352      -2323.1    4683.8823    15.501207    13.424475    26.626885    5540.9368 
  189500      189.488    384.03324    15.785581   -443.42237   -427.63679   -1113.6855   -8789.7727   -2067.3722    7516.0885     15.50121    13.424477    26.626868    5540.9348 
  190000      189.988    413.13378    16.981751   -444.59329   -427.61154   -156.82107   -5898.3423   -4905.9186    10333.798    15.501212    13.424479     26.62685    5540.9329 
  190500      190.488    423.91406    17.424871   -445.00973   -427.58486   -1523.8902   -5339.1054   -5415.1356    6182.5705    15.501214    13.424481    26.626833     5540.931 
  191000      190.988    417.32718     17.15412   -444.71244   -427.55832   -515.07274   -9277.3424   -1248.3804    8980.5046    15.501217    13.424483    26.626815     5540.929 
  191500      191.488    400.51927    16.463235   -443.99448   -427.53124     595.9292   -3639.8397   -5071.2513    10498.879    15.501219    13.424485    26.626798    5540.9271 
  192000      191.988    421.81407    17.338552   -444.84349   -427.50494    -956.3558   -5273.8176   -5538.6694    7943.4195    15.501222    13.424487     26.62678    5540.9252 
  192500      192.488    412.10917    16.939635   -444.41816   -427.47853   -981.10506   -6943.3778   -3168.7453     7168.808    15.501224    13.424489    26.626763    5540.9232 
  193000      192.988    420.14638    17.270002   -444.72123   -427.45123   -1297.1214   -6609.5503   -5483.0525    8201.2388    15.501226    13.424491    26.626745    5540.9213 
  193500      193.488    419.46815    17.242123   -444.66699   -427.42486   -2189.8705   -10483.311   -6244.7688    10158.468    15.501229    13.424493    26.626728    5540.9193 
  194000      193.988    371.36985    15.265056   -442.66228   -427.39722    599.27233   -8226.6228   -2179.0149    12203.455    15.501231    13.424495     26.62671    5540.9174 
  194500      194.488    410.70849     16.88206   -444.25363   -427.37157    562.07379   -7803.7565   -3728.5997    13218.578    15.501234    13.424497    26.626693    5540.9155 
  195000      194.988    404.91465    16.643906   -443.98985   -427.34594   -914.21434   -4811.7741   -3708.4026    5777.5337    15.501236    13.424499    26.626675    5540.9135 
  195500      195.488    402.95104    16.563192   -443.88197   -427.31878   -501.97481    -5853.186    -1080.074    5427.3356    15.501238    13.424502    26.626658    5540.9116 
  196000      195.988    411.90234    16.931133   -444.22224    -427.2911   -913.45117   -7004.1053   -4133.3929    8397.1447    15.501241    13.424504     26.62664    5540.9097 
  196500      196.488    413.32407    16.989573   -444.25464   -427.26506   -842.27451    -7520.065   -6105.9191    11099.161    15.501243    13.424506    26.626623    5540.9077 
  197000      196.988    408.47997    16.790457    -444.0283   -427.23785   -301.76567     -7051.53   -3229.4304    9375.6633    15.501246    13.424508    26.626605    5540.9058 
  197500      197.488    407.73952    16.760021   -443.97147   -427.21145    36.030767   -6866.2755   -5931.5265    12905.894    15.501248     13.42451    26.626588    5540.9038 
  198000      197.988    417.34347    17.154789   -444.33967   -427.18488   -1193.8157   -7702.0475   -4246.9935    8367.5939     15.50125    13.424512     26.62657    5540.9019 
  198500      198.488    415.22274    17.067617   -444.22549   -427.15787   -673.01895   -3072.2525      -5883.8    6936.9956    15.501253    13.424514    26.626553       5540.9 
  199000      198.988     406.7572    16.719643   -443.85089   -427.13125   -269.58329   -6515.0957   -3164.7913    8871.1372    15.501255    13.424516    26.626535     5540.898 
  199500      199.488    413.99473     17.01714   -444.12185   -427.10471   -1028.3036   -7014.2042   -4228.3408    8157.6344    15.501258    13.424518    26.626518    5540.8961 
  200000      199.988     400.5308    16.463709    -443.5413   -427.07759   -720.93234   -6291.1935   -5074.0922    9202.4887     15.50126     13.42452      26.6265    5540.8941 
  200500      200.488    400.17933    16.449262   -443.50074   -427.05147    -1004.859   -5826.2288   -3948.4465    6760.0982    15.501262    13.424522    26.626483    5540.8922 
  201000      200.988    409.97465    16.851896   -443.87682   -427.02493    12.578386   -7800.6699    -952.5524    8790.9574    15.501265    13.424524    26.626465    5540.8903 
  201500      201.488    385.87901    15.861451   -442.85879   -426.99734    306.05913   -3371.0492    -4906.992    9196.2186    15.501267    13.424526    26.626448    5540.8883 
  202000      201.988    417.39833    17.157044   -444.12834    -426.9713   -1276.1853   -7101.8037   -4581.5121    7854.7598     15.50127    13.424528     26.62643    5540.8864 
  202500      202.488    420.55946    17.286982   -444.23051   -426.94353   -1497.8996   -6886.4657   -4727.4411     7120.208    15.501272     13.42453    26.626413    5540.8845 
  203000      202.988     389.1271    15.994963   -442.91151   -426.91654    396.25859   -5009.8084   -1771.3416    7969.9258    15.501274    13.424532    26.626395    5540.8825 
  203500      203.488    436.57847    17.945439   -444.83573   -426.89029   -919.53955   -6637.8235   -4740.7765    8619.9813    15.501277    13.424534    26.626378    5540.8806 
  204000      203.988    419.76047    17.254139   -444.11718   -426.86304   -559.49289   -5562.7505   -2948.4258    6832.6976    15.501279    13.424536     26.62636    5540.8786 
  204500      204.488    414.40432    17.033976    -443.8701   -426.83613   -1267.8935   -7455.8752   -1898.4975    5550.6921    15.501282    13.424538    26.626343    5540.8767 
  205000      204.988    421.17225     17.31217   -444.12131   -426.80914   -1015.8235   -8844.0406   -6607.2065    12403.776    15.501284     13.42454    26.626325    5540.8748 
  205500      205.488    434.17409    17.846607   -444.62927   -426.78267   -1365.3008   -5918.9413   -5483.1559    7306.1947    15.501286    13.424543    26.626308    5540.8728 
  206000      205.988    426.20628    17.519092   -444.27398   -426.75489    -633.6204   -9542.3683   -5031.6504    12673.158    15.501289    13.424545     26.62629    5540.8709 
  206500      206.488    416.08881    17.103217   -443.83133   -426.72811   -1656.1655   -11374.398   -5150.7797    11556.682    15.501291    13.424547    26.626273     5540.869 
  207000      206.988    420.03784     17.26554   -443.96558   -426.70004   -42.973997   -6173.6526   -2402.5567    8447.2873    15.501294    13.424549    26.626255     5540.867 
  207500      207.488    400.68701     16.47013   -443.14273    -426.6726   -1071.6115   -7234.9698   -3091.9228    7112.0579    15.501296    13.424551    26.626238    5540.8651 
  208000      207.988    416.06014    17.102038   -443.74717   -426.64513    588.12555   -5186.3473   -3980.8947    10931.619    15.501298    13.424553     26.62622    5540.8631 
  208500      208.488    413.42522     16.99373   -443.61187   -426.61814    80.811841   -7792.7121   -1260.1651    9295.3127    15.501301    13.424555    26.626203    5540.8612 
  209000      208.988    421.75505    17.336126   -443.92757   -426.59145   -681.26357   -4866.4855   -5704.6766    8527.3714    15.501303    13.424557    26.626185    5540.8593 
  209500      209.488    411.94124    16.932732   -443.49688   -426.56415   -1250.9724    -6945.266   -3810.2517    7002.6004    15.501306    13.424559    26.626168    5540.8573 
  210000      209.988    435.33432    17.894298   -444.43173   -426.53743   -1358.1882   -6662.7284   -5379.4095    7967.5732    15.501308    13.424561     26.62615    5540.8554 
  210500      210.488    392.29238    16.125071   -442.63473   -426.50966    380.29587   -6636.8781   -832.85181    8610.6175     15.50131    13.424563    26.626133    5540.8535 
  211000      210.988    418.33343    17.195481   -443.67846   -426.48298   -1502.5249   -9981.5081   -4115.7829    9589.7165    15.501313    13.424565    26.626115    5540.8515 
  211500      211.488     428.4457    17.611143   -444.06694    -426.4558   -1083.3431   -5725.4218   -8047.1765    10522.569    15.501315    13.424567    26.626098    5540.8496 
  212000      211.988    423.08756    17.390898   -443.81871   -426.42781   -1312.1819   -7347.5919   -4809.2859    8220.3323    15.501318    13.424569     26.62608    5540.8476 
[...]
  948500      948.488     535.1795    21.998407   -436.78013   -414.78172    6895.7538   -1431.2825   -484.41382    22602.958    15.504853    13.427589    26.600303    5537.9912 
  949000      948.988    611.54656    25.137454   -439.91835    -414.7809    5231.3912   -1498.7176   -3031.8656    20224.757    15.504855    13.427591    26.600285    5537.9893 
  949500      949.488    573.75452    23.584022   -438.36185   -414.77783    5221.7375   -779.87958   -461.50998    16906.602    15.504858    13.427593    26.600268    5537.9873 
  950000      949.988    597.78546    24.571807   -439.34768   -414.77587    4601.5269    -6286.973    4058.5608    16032.993     15.50486    13.427595     26.60025    5537.9854 
  950500      950.488    574.72774    23.624026   -438.39426   -414.77023    4530.9852   -3815.7256    2252.5593    15156.122    15.504862    13.427597    26.600233    5537.9834 
  951000      950.988     571.9689    23.510625   -438.27807   -414.76744    6086.8792   -1241.5036    1865.5628    17636.578    15.504865    13.427599    26.600215    5537.9815 
  951500      951.488    545.29205     22.41408   -437.17703   -414.76295    5779.9154   -3093.1903    2761.3851    17671.551    15.504867    13.427601    26.600198    5537.9796 
  952000      951.988    570.48707    23.449715   -438.21126   -414.76155    7042.2936   -1588.9795    4096.2184    18619.642     15.50487    13.427603     26.60018    5537.9776 
  952500      952.488    585.99507    24.087167    -438.8455   -414.75833    3755.5406   -2147.4949   -1409.6942    14823.811    15.504872    13.427605    26.600163    5537.9757 
  953000      952.988    588.78211    24.201727   -438.95747   -414.75574     5323.184   -4172.5454     2293.554    17848.544    15.504874    13.427607    26.600145    5537.9737 
  953500      953.488    522.10407    21.460945   -436.21198   -414.75104    4956.9524   -3644.1687    4099.3483    14415.678    15.504877    13.427609    26.600128    5537.9718 
  954000      953.988    579.48788    23.819691    -438.5696   -414.74991     4872.713   -973.30819    690.05954    14901.388    15.504879    13.427611     26.60011    5537.9699 
  954500      954.488    562.34373    23.114985   -437.86115   -414.74616    2581.2288   -3562.3506   -2120.0272    13426.064    15.504882    13.427613    26.600093    5537.9679 
  955000      954.988    584.63863    24.031411   -438.77525   -414.74383    5346.4889   -2798.7223    1489.0727    17349.116    15.504884    13.427615    26.600075     5537.966 
  955500      955.488    593.14758    24.381169   -439.12077    -414.7396    4899.2697   -1031.0534    2522.3625      13206.5    15.504886    13.427618    26.600058     5537.964 
  956000      955.988    550.85353    22.642683   -437.37881   -414.73613    4800.1871    -2744.886    4873.5694    12271.878    15.504889     13.42762     26.60004    5537.9621 
  956500      956.488    564.30444    23.195579   -437.92479   -414.72921     5899.179    130.46215    3892.3203    13674.754    15.504891    13.427622    26.600023    5537.9602 
  957000      956.988    539.46243    22.174456   -436.89816   -414.72371    5789.9407   -506.92521   -2012.0681    19888.815    15.504894    13.427624    26.600005    5537.9582 
  957500      957.488    553.37302    22.746246   -437.46665    -414.7204     4859.398   -2212.7314   -1554.3142     18345.24    15.504896    13.427626    26.599988    5537.9563 
  958000      957.988    579.88572    23.836044   -438.55304   -414.71699    5359.5766   -4429.6968    150.87715    20357.549    15.504898    13.427628     26.59997    5537.9543 
  958500      958.488    576.53211    23.698195   -438.41177   -414.71358    3779.6669    707.88865   -1563.0859    12194.198    15.504901     13.42763    26.599953    5537.9524 
  959000      958.988    582.08913    23.926614   -438.63472    -414.7081     4621.895   -4891.1653    3295.7706     15461.08    15.504903    13.427632    26.599935    5537.9504 
  959500      959.488    562.00019    23.100864    -437.8032   -414.70234    5426.9365   -1327.6948    3056.2556    14552.249    15.504906    13.427634    26.599918    5537.9485 
  960000      959.988     577.7461    23.748095    -438.4471   -414.69901    4400.3785   -3440.4907    2339.3853    14302.241    15.504908    13.427636      26.5999    5537.9466 
  960500      960.488    556.73493    22.884437   -437.57895   -414.69451    4829.1429   -2169.0939   -1985.1064    18641.629     15.50491    13.427638    26.599883    5537.9446 
  961000      960.988    583.50462    23.984798    -438.6743   -414.68951     4613.562   -4558.9351    1522.3167    16877.304    15.504913     13.42764    26.599865    5537.9427 
  961500      961.488    534.27085    21.961057   -436.64382   -414.68277    5833.9735   -1083.4919    731.18468    17854.228    15.504915    13.427642    26.599848    5537.9407 
  962000      961.988    572.43893    23.529945   -438.20723   -414.67729    2988.6306   -1504.0275   -1168.0839    11638.003    15.504918    13.427644     26.59983    5537.9388 
  962500      962.488    577.16882    23.724366   -438.39833   -414.67396    3907.3744   -5413.6719    -1829.555     18965.35     15.50492    13.427646    26.599813    5537.9369 
  963000      962.988    591.44889    24.311345   -438.98117   -414.66982    5825.4729   -2025.7201    2909.9922    16592.147    15.504922    13.427648    26.599795    5537.9349 
  963500      963.488    585.59056    24.070539   -438.73553   -414.66499    5348.0597    -377.3056    2391.3198    14030.165    15.504925     13.42765    26.599778     5537.933 
  964000      963.988    589.90302    24.247802   -438.90872   -414.66091    5102.7742   -4513.6355     1833.504    17988.454    15.504927    13.427652     26.59976     5537.931 
  964500      964.488    587.77626    24.160382   -438.81853   -414.65815    5021.4241   -1675.6871     3491.947    13248.012     15.50493    13.427654    26.599743    5537.9291 
  965000      964.988    530.07959    21.788776    -436.4402   -414.65143    5887.8681   -3619.4212   -493.48451     21776.51    15.504932    13.427656    26.599725    5537.9272 
  965500      965.488    568.92593    23.385545   -438.03215    -414.6466    5307.2928   -2582.8313    1722.6489    16782.061    15.504934    13.427659    26.599708    5537.9252 
  966000      965.988    557.35222     22.90981   -437.55222   -414.64241    3795.8063   -3687.5611   -2813.4093    17888.389    15.504937    13.427661     26.59969    5537.9233 
  966500      966.488    538.42485    22.131806   -436.76797   -414.63616    5541.8778   -505.54414   -22.942856     17154.12    15.504939    13.427663    26.599673    5537.9213 
  967000      966.988    568.24658     23.35762    -437.9901   -414.63248    4997.5226   -4838.6889    456.28455    19374.972    15.504942    13.427665    26.599655    5537.9194 
  967500      967.488    581.11865    23.886723   -438.51487   -414.62814    4726.6591   -3297.8329   -4448.3194     21926.13    15.504944    13.427667    26.599638    5537.9175 
  968000      967.988    567.71616    23.335817   -437.95995   -414.62413    3277.2467   -4190.6068   -3191.2922    17213.639    15.504946    13.427669     26.59962    5537.9155 
  968500      968.488    570.82027    23.463411   -438.08234   -414.61893    4966.5092     305.1153   -1111.8201    15706.232    15.504949    13.427671    26.599603    5537.9136 
  969000      968.988     588.9904    24.210289   -438.82247   -414.61218    6179.4046    85.234124   -810.04138    19263.021    15.504951    13.427673    26.599585    5537.9116 
  969500      969.488    561.96068     23.09924   -437.70574    -414.6065    6197.8274   -2756.2075   -652.94221    22002.632    15.504954    13.427675    26.599568    5537.9097 
  970000      969.988    609.68196     25.06081   -439.66475   -414.60394    4968.1023    709.43587   -2509.9593     16704.83    15.504956    13.427677     26.59955    5537.9078 
  970500      970.488    563.17895    23.149316   -437.74741    -414.5981    5238.4394    -1250.927    706.71445    16259.531    15.504958    13.427679    26.599533    5537.9058 
  971000      970.988    551.42174    22.666039   -437.25717   -414.59113    4180.2611    -4641.081    277.80824    16904.056    15.504961    13.427681    26.599515    5537.9039 
  971500      971.488    576.46235    23.695327   -438.28183    -414.5865    4783.8105   -2000.3347    2651.9185    13699.848    15.504963    13.427683    26.599498    5537.9019 
  972000      971.988    569.21628    23.397479   -437.97644   -414.57896    4980.9839    -4086.155    3553.1611    15475.946    15.504966    13.427685     26.59948       5537.9 
  972500      972.488    576.75139    23.707208   -438.28079   -414.57359    4967.3951   -1011.7237    1284.3106    14629.598    15.504968    13.427687    26.599463     5537.898 
  973000      972.988    580.17226    23.847822   -438.41716   -414.56934    5424.8146   -2239.5096    4338.8956    14175.058     15.50497    13.427689    26.599445    5537.8961 
  973500      973.488     595.2979    24.469557   -439.03299   -414.56343     4563.816   -5148.3415   -1461.6177    20301.407    15.504973    13.427691    26.599428    5537.8942 
  974000      973.988    538.70423     22.14329   -436.69983   -414.55654    5027.9484   -4068.6047    1774.3939    17378.056    15.504975    13.427693     26.59941    5537.8922 
  974500      974.488    583.52285    23.985547   -438.53715    -414.5516    4651.2201    -1806.901   -484.17259    16244.734    15.504978    13.427695    26.599393    5537.8903 
  975000      974.988    564.51185    23.204105   -437.75023   -414.54612    4011.9928   -1521.0495     1749.689    11807.339     15.50498    13.427697    26.599375    5537.8883 
  975500      975.488     570.1112    23.434265   -437.97607   -414.54181    5212.4824   -4562.6338    2951.7775    17248.303    15.504982      13.4277    26.599358    5537.8864 
  976000      975.988     587.4984    24.148961   -438.68594   -414.53698     4275.499   -5352.6798    1907.8191    16271.358    15.504985    13.427702     26.59934    5537.8845 
  976500      976.488    551.61383    22.673935   -437.20244   -414.52851    5550.7333   -599.14291     360.9182    16890.425    15.504987    13.427704    26.599323    5537.8825 
  977000      976.988    552.12221    22.694832   -437.21852   -414.52369    4727.3531   -1505.5837    576.67493    15110.968     15.50499    13.427706    26.599305    5537.8806 
  977500      977.488    585.84653    24.081061   -438.59999   -414.51893    4556.3542   -2440.0193    3202.9416     12906.14    15.504992    13.427708    26.599288    5537.8786 
  978000      977.988    546.50787    22.464056   -436.97666    -414.5126    5843.3578   -1020.0442    3960.4251    14589.692    15.504994     13.42771     26.59927    5537.8767 
  978500      978.488    586.71108    24.116598   -438.62332   -414.50672    3340.5571   -7097.5226    3646.7185    13472.475    15.504997    13.427712    26.599253    5537.8748 
  979000      978.988    580.09435    23.844619   -438.34476   -414.50014    3714.3014   -5807.9476    720.99722    16229.855    15.504999    13.427714    26.599235    5537.8728 
  979500      979.488    566.58392    23.289277   -437.78455   -414.49528    6543.5104   -5540.0153    57.695698    25112.851    15.505002    13.427716    26.599218    5537.8709 
  980000      979.988    560.62379    23.044287   -437.53075   -414.48646    5145.6803   -385.05837   -2119.8936    17941.993    15.505004    13.427718      26.5992    5537.8689 
  980500      980.488    557.16996    22.902319   -437.38145   -414.47913    3973.8645   -7300.2789    2258.8613    16963.011    15.505006     13.42772    26.599183     5537.867 
  981000      980.988    555.77017     22.84478   -437.31883   -414.47405    5810.8755    -4025.966    1239.2643    20219.328    15.505009    13.427722    26.599165    5537.8651 
  981500      981.488    572.58985    23.536149   -438.00354   -414.46739    6792.5628    -3784.696    3478.9563    20683.428    15.505011    13.427724    26.599148    5537.8631 
  982000      981.988    560.65554    23.045593   -437.50633   -414.46074    4353.8182    -3350.277   -2195.0917    18606.823    15.505014    13.427726     26.59913    5537.8612 
  982500      982.488    561.02717    23.060868   -437.51403   -414.45316    5285.9361   -1774.7116    557.32264    17075.197    15.505016    13.427728    26.599113    5537.8592 
  983000      982.988    582.95642    23.962264   -438.41024   -414.44797    4872.4284   -137.31009    955.63193    13798.963    15.505018     13.42773    26.599095    5537.8573 
  983500      983.488    546.76852     22.47477   -436.91538   -414.44061    4809.7769   -4520.9395    -1381.303    20331.573    15.505021    13.427732    26.599078    5537.8554 
  984000      983.988    554.89692    22.808886   -437.24252   -414.43363    4692.2638   -6616.7562    1080.4254    19613.122    15.505023    13.427734     26.59906    5537.8534 
  984500      984.488    570.30949    23.442415    -437.8696   -414.42719    3549.5946   -2916.1885    1057.9836    12506.989    15.505026    13.427736    26.599043    5537.8515 
  985000      984.988    583.39005    23.980088   -438.40019   -414.42011     5032.394   -2913.9094   -3863.1004    21874.192    15.505028    13.427738    26.599025    5537.8495 
  985500      985.488    571.70792    23.499897   -437.91316   -414.41326    4338.4846   -3713.1437   -1783.2822     18511.88     15.50503    13.427741    26.599008    5537.8476 
  986000      985.988    581.66316    23.909105   -438.31732   -414.40821    3999.5368   -1775.8093     1152.555    12621.865    15.505033    13.427743     26.59899    5537.8456 
  986500      986.488    550.95541    22.646871   -437.04695   -414.40008    5841.3849   -1618.1492    3788.9307    15353.373    15.505035    13.427745    26.598973    5537.8437 
  987000      986.988    578.64936    23.785223   -438.17894   -414.39372    4693.2522   -3419.0313    2951.2998    14547.488    15.505038    13.427747    26.598955    5537.8418 
  987500      987.488    569.10139    23.392757    -437.7795   -414.38674    5049.0485   -218.17042   -476.69443     15842.01     15.50504    13.427749    26.598938    5537.8398 
  988000      987.988    558.55062     22.95907   -437.33874   -414.37967     5558.747   -2562.0826    3584.6616    15653.662    15.505042    13.427751     26.59892    5537.8379 
  988500      988.488    563.10049    23.146092   -437.51948   -414.37339    4639.4069   -4307.3065   -2242.0683    20467.596    15.505045    13.427753    26.598903    5537.8359 
  989000      988.988    566.21258    23.274013   -437.63928   -414.36526    5948.6483   -3228.8604    744.20028    20330.605    15.505047    13.427755    26.598885     5537.834 
  989500      989.488    547.72761    22.514193    -436.8721   -414.35791    4906.6429    503.80414    1815.8591    12400.266     15.50505    13.427757    26.598868    5537.8321 
  990000      989.988    545.89465     22.43885   -436.78848   -414.34963    6539.0692    -2800.839    4269.6449    18148.402    15.505052    13.427759     26.59885    5537.8301 
  990500      990.488    566.04988    23.267325   -437.60863    -414.3413    5581.5399   -5264.7503    910.67595    21098.694    15.505054    13.427761    26.598833    5537.8282 
  991000      990.988    562.21727    23.109787   -437.44358   -414.33379    5314.3911   -2724.7274    5023.9936    13643.907    15.505057    13.427763    26.598815    5537.8262 
  991500      991.488    606.94864    24.948458   -439.27519   -414.32673    4893.5555   -4366.3436    4594.6067    14452.404    15.505059    13.427765    26.598798    5537.8243 
  992000      991.988    567.94873    23.345377   -437.66338   -414.31801    6346.0775    858.33872    3311.6872    14868.207    15.505062    13.427767     26.59878    5537.8224 
  992500      992.488    586.92205     24.12527   -438.43485   -414.30958    4894.1305   -1228.0305    -3028.775    18939.197    15.505064    13.427769    26.598763    5537.8204 
  993000      992.988    568.48094    23.367253   -437.66911   -414.30185    4880.3501   -5335.0826   -133.23677     20109.37    15.505066    13.427771    26.598745    5537.8185 
  993500      993.488    620.24669     25.49507   -439.78979   -414.29472    5662.0522    -791.9556    2597.8774    15180.235    15.505069    13.427773    26.598728    5537.8165 
  994000      993.988    589.19847    24.218842    -438.5039   -414.28506    4809.7494   -1884.2046   -2085.4792    18398.932    15.505071    13.427775     26.59871    5537.8146 
  994500      994.488    569.50089    23.409178   -437.68534   -414.27616    5032.9449   -2693.2394    3081.9019    14710.172    15.505074    13.427777    26.598693    5537.8127 
  995000      994.988    587.38693    24.144379   -438.41357   -414.26919    4439.3272   -2138.1767   -1367.2981    16823.456    15.505076    13.427779    26.598675    5537.8107 
  995500      995.488    552.96491    22.729471   -436.99019   -414.26072    4946.4486   -2819.8807    4104.8352    13554.391    15.505078    13.427782    26.598658    5537.8088 
  996000      995.988      554.071    22.774937    -437.0267   -414.25176    6145.1604   -405.85395    2530.3089    16311.026    15.505081    13.427784     26.59864    5537.8068 
  996500      996.488    558.84713    22.971258   -437.21521   -414.24395    6856.2971   -403.43875    2586.2327    18386.097    15.505083    13.427786    26.598623    5537.8049 
  997000      996.988    561.28059    23.071285   -437.30709    -414.2358    6121.5097   -2181.2573    2993.1552    17552.631    15.505086    13.427788    26.598605    5537.8029 
  997500      997.488    556.93452    22.892641    -437.1177   -414.22505    5133.7542   -2969.4494    2104.5949    16266.117    15.505088     13.42779    26.598588     5537.801 
  998000      997.988    558.70041    22.965227    -437.1834   -414.21818    4824.3916   -1810.1005   -143.09437     16426.37     15.50509    13.427792     26.59857    5537.7991 
  998500      998.488     553.3236    22.744215   -436.95395   -414.20973    6480.1917    -187.8162    4208.6377    15419.754    15.505093    13.427794    26.598553    5537.7971 
  999000      998.988    561.84353    23.094424   -437.29581   -414.20139    5284.6653   -5011.0585    3353.2921    17511.762    15.505095    13.427796    26.598535    5537.7952 
  999500      999.488    546.17175     22.45024   -436.64386   -414.19362     4711.344   -4006.9387    5730.4168    12410.554    15.505098    13.427798    26.598518    5537.7932 
 1000000      999.988    530.28714    21.797308   -435.98275   -414.18544     7317.485   -1525.3503    4356.5321    19121.273      15.5051      13.4278      26.5985    5537.7913 
 1000012         1000    555.80818    22.846343   -437.03306   -414.18672    7001.8701    654.18124    2532.6198    17818.809      15.5051      13.4278      26.5985    5537.7913 
Loop time of 933.383 on 28 procs for 1000000 steps with 319 atoms

Performance: 92.566 ns/day, 0.259 hours/ns, 1071.371 timesteps/s
87.7% CPU use with 28 MPI tasks x no OpenMP threads

MPI task timing breakdown:
Section |  min time  |  avg time  |  max time  |%varavg| %total
---------------------------------------------------------------
Pair    | 749.31     | 807.88     | 856.84     |  79.1 | 86.55
Neigh   | 0.015727   | 0.025983   | 0.036217   |   3.1 |  0.00
Comm    | 66.532     | 113.43     | 170.83     | 202.3 | 12.15
Output  | 0.10012    | 0.10267    | 0.12473    |   1.4 |  0.01
Modify  | 4.8016     | 6.8531     | 9.6142     |  55.6 |  0.73
Other   |            | 5.087      |            |       |  0.54

Nlocal:    11.3929 ave 17 max 6 min
Histogram: 3 3 0 3 3 7 3 4 0 2
Nghost:    650.393 ave 674 max 606 min
Histogram: 2 0 2 0 1 5 3 5 5 5
Neighs:    720.357 ave 1113 max 384 min
Histogram: 3 3 0 3 5 7 3 2 1 1
FullNghs:  1440.71 ave 2181 max 754 min
Histogram: 3 3 0 3 3 7 3 4 1 1

Total # of neighbors = 40340
Ave neighs/atom = 126.458
Neighbor list builds = 383
Dangerous builds = 0

write_restart   POSCAR_1x1x1.rest

#unfix    1
#undump   1
Total wall time: 0:15:33
