LAMMPS (7 Dec 2015)
#----------- Initialize Simulation ------------ restart01
#processors	2 2 2
units		metal
boundary	p p p     ## periodic boundary condition  on x y z axis ##
atom_style atomic
#atom_modify map array sort 0 0.0

read_data	POSCAR_1x1x1.lammps
  triclinic box = (0 0 0) to (15.6858 13.5843 25.2689) with tilt (-7.8428 0 0)
  2 by 2 by 7 MPI processor grid
  reading atoms ...
  319 atoms

#----------- Define Potential -----------------
pair_style meam
pair_coeff * * MgAlZn.library.meam Mg Al Zn MgAlZn.parameter.meam Mg Al Zn 	#1=Mg 2=Al 3=Zn	#atoms/mass

#----------- Neighbor List --------------------
neighbor 2.0 bin
neigh_modify delay 10 check yes

#--------------  Run a simulation (minimization) ---------------------------------------
minimize       1.0e-4   1.0e-6   100   1000          #結構優化的條件
WARNING: Resetting reneighboring criteria during minimization (../min.cpp:168)
Neighbor list info ...
  2 neighbor list requests
  update every 1 steps, delay 0 steps, check yes
  max neighbors/atom: 2000, page size: 100000
  master list distance cutoff = 8
  ghost atom cutoff = 8
  binsize = 4 -> bins = 6 4 7
Memory usage per processor = 8.65302 Mbytes
Step Temp E_pair E_mol TotEng Press 
       0            0   -438.53959            0   -438.53959    7833.2372 
      12            0   -463.79967            0   -463.79967   -11522.438 
Loop time of 0.0208669 on 28 procs for 12 steps with 319 atoms

88.4% CPU use with 28 MPI tasks x no OpenMP threads

Minimization stats:
  Stopping criterion = energy tolerance
  Energy initial, next-to-last, final = 
        -438.539585343      -463.77458166     -463.799666277
  Force two-norm initial, final = 26.065 0.686326
  Force max component initial, final = 8.5218 0.195781
  Final line search alpha, max atom move = 0.69669 0.136399
  Iterations, force evaluations = 12 20

MPI task timing breakdown:
Section |  min time  |  avg time  |  max time  |%varavg| %total
---------------------------------------------------------------
Pair    | 0.015817   | 0.017439   | 0.018916   |   0.5 | 83.57
Neigh   | 0          | 0          | 0          |   0.0 |  0.00
Comm    | 0.0011733  | 0.0026346  | 0.004224   |   1.4 | 12.63
Output  | 0          | 0          | 0          |   0.0 |  0.00
Modify  | 0          | 0          | 0          |   0.0 |  0.00
Other   |            | 0.0007935  |            |       |  3.80

Nlocal:    11.3929 ave 15 max 5 min
Histogram: 1 1 3 0 3 1 1 5 7 6
Nghost:    691.214 ave 751 max 645 min
Histogram: 6 0 4 7 1 2 1 3 0 4
Neighs:    733.75 ave 1014 max 332 min
Histogram: 2 3 0 3 1 1 5 8 2 3
FullNghs:  1467.5 ave 1943 max 642 min
Histogram: 2 2 1 3 1 0 5 3 6 5

Total # of neighbors = 41090
Ave neighs/atom = 128.809
Neighbor list builds = 0
Dangerous builds = 0
velocity all  create 600.0 4928459 #rot yes dist gaussian

#--------------  Run a simulation (Relaxation)  ----------------------------------------
fix  1  all  nvt   temp  600.0  600.0  100				#damping constant
#fix  2  all  npt   temp  393.0  393.0  50 iso 0.0 0.0 1000.0
fix  2  all deform 1 x final 0 15.6906 y final 0 13.5884 z final 0 25.2339 xy final -7.8452 units lattice
#fix  3  all  npt   temp  393.0  393.0  50 z 0.0 0.0 1000.0

#variable b equal 1
#fix 2 all efield  0.0  0.0  v_b
#compute pot all pe/atom


#----------- Output --------------------------
thermo	 500
timestep  0.001		#1.0 fs
thermo_style	custom step time temp ke pe etotal press pxx pyy pzz lx ly lz vol

dump 1 all custom 10000 dump.eq id type x y z
dump_modify 1 sort  id

run        1000000	#1000 ps
Neighbor list info ...
  2 neighbor list requests
  update every 1 steps, delay 10 steps, check yes
  max neighbors/atom: 2000, page size: 100000
  master list distance cutoff = 8
  ghost atom cutoff = 8
  binsize = 4 -> bins = 6 4 7
Memory usage per processor = 7.56073 Mbytes
Step Time Temp KinEng PotEng TotEng Press Pxx Pyy Pzz Lx Ly Lz Volume 
      12            0          600    24.662836   -463.79967   -439.13683   -6629.9266   -14690.899   -13459.803    8260.9222      15.6858      13.5843      25.2689    5384.3127 
     500        0.488    310.16021    12.749051   -451.88101   -439.13196    1475.3711   -6824.7435   -8654.2097    19905.067    15.685802    13.584302    25.268883    5384.3107 
    1000        0.988    314.66546    12.934237    -452.0659   -439.13167    10.883226   -10888.142   -10187.757    21108.549    15.685805    13.584304    25.268865    5384.3086 
    1500        1.488    302.26093    12.424353   -451.55494   -439.13059     504.9659   -13367.247   -8132.5626    23014.708    15.685807    13.584306    25.268848    5384.3065 
    2000        1.988    308.79885    12.693092   -451.82263   -439.12954    127.40893   -9822.9714   -8080.7643    18285.963     15.68581    13.584308     25.26883    5384.3044 
    2500        2.488    307.49946    12.639681   -451.76769   -439.12801    58.251745   -10969.324   -8383.4522    19527.532    15.685812     13.58431    25.268813    5384.3023 
    3000        2.988    313.40198    12.882303   -452.00875   -439.12645     1364.084   -7406.7421   -8384.6079    19883.602    15.685814    13.584312    25.268795    5384.3002 
    3500        3.488    319.62791    13.138218   -452.26262    -439.1244    347.34172   -8466.4762   -10625.847    20134.348    15.685817    13.584314    25.268778    5384.2981 
    4000        3.988    306.09221    12.581836   -451.70401   -439.12217    523.36094   -10002.198   -9863.4115    21435.692    15.685819    13.584316     25.26876     5384.296 
    4500        4.488    314.01227    12.907388   -452.02674   -439.11935    1534.5737    -8282.782   -9448.5771     22335.08    15.685822    13.584318    25.268743    5384.2939 
    5000        4.988    306.86715     12.61369   -451.73003   -439.11634    395.16528    -10375.05   -9004.4244     20564.97    15.685824     13.58432    25.268725    5384.2918 
    5500        5.488    317.17668    13.037461   -452.15068   -439.11322    2152.4567   -9927.3753   -7777.1478    24161.893    15.685826    13.584323    25.268708    5384.2897 
    6000        5.988    309.75992    12.732597   -451.84302   -439.11042    -67.47724   -8359.7204   -8344.0334    16501.322    15.685829    13.584325     25.26869    5384.2876 
    6500        6.488    313.76466     12.89721   -452.00298   -439.10577     1340.872   -7673.6841   -7472.3553    19168.655    15.685831    13.584327    25.268673    5384.2855 
    7000        6.988    307.47423    12.638644   -451.73997   -439.10133    891.34096   -8074.3542   -8800.6304    19549.007    15.685834    13.584329    25.268655    5384.2835 
    7500        7.488    306.35674     12.59271   -451.68953   -439.09682    955.04723   -8455.4634   -7602.5847     18923.19    15.685836    13.584331    25.268638    5384.2814 
    8000        7.988    308.11935    12.665162   -451.75693   -439.09176    351.84875   -7787.6213   -7283.8433    16127.011    15.685838    13.584333     25.26862    5384.2793 
    8500        8.488    311.34293    12.797666   -451.88488   -439.08721   -906.50262   -11154.759    -10174.78    18610.032    15.685841    13.584335    25.268603    5384.2772 
    9000        8.988    312.80181    12.857633   -451.93893    -439.0813    214.32826   -8763.5075   -8948.7891    18355.281    15.685843    13.584337    25.268585    5384.2751 
    9500        9.488    308.07794     12.66346   -451.73908   -439.07562    639.23946   -9743.2571   -8819.6873    20480.663    15.685846    13.584339    25.268568     5384.273 
   10000        9.988    312.40545     12.84134   -451.91086   -439.06952    403.18908   -8700.9147   -10420.497    20330.979    15.685848    13.584341     25.26855    5384.2709 
   10500       10.488    319.24769    13.122589   -452.18644   -439.06385    338.65483   -8490.5902   -8648.6232    18155.178     15.68585    13.584343    25.268533    5384.2688 
   11000       10.988    297.94911    12.247117   -451.30367   -439.05655    772.47545   -8811.1253   -10048.488     21177.04    15.685853    13.584345    25.268515    5384.2667 
   11500       11.488    293.13219    12.049119   -451.09877   -439.04965    320.38047   -3934.5327    -10705.88    15601.554    15.685855    13.584347    25.268498    5384.2646 
   12000       11.988    300.01277    12.331943   -451.37474    -439.0428    1347.4052   -7297.6885   -7566.8724    18906.776    15.685858    13.584349     25.26848    5384.2625 
   12500       12.488    320.29057    13.165456   -452.20088   -439.03543    213.62446   -9319.7315   -8913.7889    18874.394     15.68586    13.584351    25.268463    5384.2604 
   13000       12.988     312.8331    12.858919   -451.88657   -439.02765    1499.2366   -7577.2087   -7872.5684    19947.487    15.685862    13.584353    25.268445    5384.2583 
   13500       13.488    319.39777    13.128758   -452.14806   -439.01931   -202.63293   -10184.511   -9844.9391    19421.552    15.685865    13.584355    25.268428    5384.2563 
   14000       13.988     319.2062    13.120883   -452.13166   -439.01078    390.47161    -10729.88   -7649.1433    19550.438    15.685867    13.584357     25.26841    5384.2542 
   14500       14.488    313.11752     12.87061   -451.87272   -439.00211    858.28183   -9609.7164   -7017.6889    19202.251     15.68587    13.584359    25.268393    5384.2521 
   15000       14.988    308.88436    12.696607   -451.69031    -438.9937    1915.0894   -9976.9142   -6700.6651    22422.847    15.685872    13.584361    25.268375      5384.25 
   15500       15.488    301.76173    12.403833   -451.38772   -438.98389    662.53875   -9519.1689   -8159.0758    19665.861    15.685874    13.584364    25.268358    5384.2479 
   16000       15.988    312.49845    12.845163   -451.81982   -438.97466    787.63471   -9464.3946   -9249.3524    21076.651    15.685877    13.584366     25.26834    5384.2458 
   16500       16.488    322.51239    13.256783   -452.22099    -438.9642    958.73085   -6775.7803   -8475.5937    18127.567    15.685879    13.584368    25.268323    5384.2437 
   17000       16.988    312.98887    12.865322   -451.81926   -438.95394    699.12814   -7443.0335   -7587.3959    17127.814    15.685882     13.58437    25.268305    5384.2416 
   17500       17.488    318.36039    13.086117   -452.02909   -438.94297    445.82018   -9551.4004   -9477.2556    20366.116    15.685884    13.584372    25.268288    5384.2395 
   18000       17.988    310.80651    12.775617   -451.70781   -438.93219    1283.9178   -8416.3182    -7511.329      19779.4    15.685886    13.584374     25.26827    5384.2374 
   18500       18.488    322.48401    13.255617   -452.17663   -438.92101   -79.891235   -10614.885   -8262.6364    18637.848    15.685889    13.584376    25.268253    5384.2353 
   19000       18.988    323.80559     13.30994   -452.21915   -438.90921    313.52174   -10134.815   -7503.1915    18578.572    15.685891    13.584378    25.268235    5384.2332 
   19500       19.488    322.31288    13.248583   -452.14608    -438.8975    2180.4972   -6758.2938   -5340.9244     18640.71    15.685894     13.58438    25.268218    5384.2311 
   20000       19.988    315.62527     12.97369   -451.85996   -438.88627    156.09453   -6831.3276   -9561.1338    16860.745    15.685896    13.584382      25.2682     5384.229 
   20500       20.488    321.47211    13.214023    -452.0875   -438.87347   -55.988794   -9930.6582   -9223.9704    18986.662    15.685898    13.584384    25.268183     5384.227 
   21000       20.988    320.25837    13.164133   -452.02448   -438.86035    44.637053   -8761.6105   -8396.9966    17292.518    15.685901    13.584386    25.268165    5384.2249 
   21500       21.488    308.24221    12.670212   -451.51756   -438.84735     755.0076   -8272.4314   -7056.3275    17593.782    15.685903    13.584388    25.268148    5384.2228 
   22000       21.988    319.82229    13.146208    -451.9799    -438.8337    565.03507    -10263.73   -7435.6193    19394.454    15.685906     13.58439     25.26813    5384.2207 
   22500       22.488    303.45862    12.473584   -451.29308    -438.8195   -470.98475   -8567.8372   -9823.8267     16978.71    15.685908    13.584392    25.268113    5384.2186 
   23000       22.988    315.58084    12.971864   -451.77811   -438.80624   -888.11929   -13643.694   -5254.5979    16233.934     15.68591    13.584394    25.268095    5384.2165 
   23500       23.488    319.87503    13.148375   -451.94122   -438.79284    987.03491   -7352.1042   -6599.9333    16913.142    15.685913    13.584396    25.268078    5384.2144 
   24000       23.988    324.73234    13.348034   -452.12638   -438.77835    389.18796   -6163.0367   -9476.8016    16807.402    15.685915    13.584398     25.26806    5384.2123 
   24500       24.488    338.28587    13.905148   -452.66906   -438.76391    428.38616   -11283.652   -8055.5316    20624.342    15.685918      13.5844    25.268043    5384.2102 
   25000       24.988    310.77039    12.774132   -451.52298   -438.74885     948.6551   -7356.0295   -9007.4333    19209.428     15.68592    13.584402    25.268025    5384.2081 
   25500       25.488    316.91103    13.026541   -451.76043   -438.73389    203.48257   -8160.8397   -9940.6296    18711.917    15.685922    13.584405    25.268008     5384.206 
   26000       25.988    321.93858    13.233197   -451.95283   -438.71963    466.27836   -7759.7286   -9288.1969    18446.761    15.685925    13.584407     25.26799    5384.2039 
   26500       26.488    311.99889    12.824629   -451.52837   -438.70374    1064.2437   -7305.3935   -7098.5448    17596.669    15.685927    13.584409    25.267973    5384.2018 
   27000       26.988    313.12146    12.870772   -451.55869   -438.68792    1489.2689   -10752.693   -7947.9844    23168.484     15.68593    13.584411    25.267955    5384.1998 
   27500       27.488    319.67637     13.14021    -451.8118   -438.67159    995.18837   -8100.2526   -5606.0394    16691.857    15.685932    13.584413    25.267938    5384.1977 
   28000       27.988    312.96704    12.864424   -451.51938   -438.65495    1010.7519   -7196.5032   -6730.0505    16958.809    15.685934    13.584415     25.26792    5384.1956 
   28500       28.488    303.34527    12.468924   -451.10697   -438.63805    650.25437    -8873.519   -9292.9925    20117.275    15.685937    13.584417    25.267903    5384.1935 
   29000       28.988    307.97341    12.659163   -451.28087   -438.62171    607.25364   -7374.5337   -7944.0245    17140.319    15.685939    13.584419    25.267885    5384.1914 
   29500       29.488    316.76017     13.02034   -451.62548   -438.60514    1344.1902    -10473.13   -5301.5919    19807.293    15.685942    13.584421    25.267868    5384.1893 
   30000       29.988    316.73139    13.019157   -451.60641   -438.58725    852.92764   -8149.8591   -9499.7417    20208.384    15.685944    13.584423     25.26785    5384.1872 
   30500       30.488    330.19405    13.572536   -452.14327   -438.57074    1399.6611   -8825.2245   -7239.3606    20263.569    15.685946    13.584425    25.267833    5384.1851 
   31000       30.988     336.1292    13.816499   -452.37008   -438.55358   -282.31689   -10214.152   -10156.947    19524.148    15.685949    13.584427    25.267815     5384.183 
   31500       31.488    321.36265    13.209524   -451.74586   -438.53634    816.41217    -9092.442   -6749.4261    18291.105    15.685951    13.584429    25.267798    5384.1809 
   32000       31.988    322.98901    13.276375   -451.79424   -438.51786    917.93364   -10579.053   -5934.0188    19266.872    15.685954    13.584431     25.26778    5384.1788 
   32500       32.488    320.49839    13.173998   -451.67398   -438.49999    758.53528   -7428.0694   -7632.2626    17335.938    15.685956    13.584433    25.267763    5384.1767 
   33000       32.988    316.21989    12.998132    -451.4794   -438.48127    1429.1297   -6407.7427   -7287.1671    17982.299    15.685958    13.584435    25.267745    5384.1746 
   33500       33.488     328.0437    13.484146   -451.94694    -438.4628      -282.47   -9343.4988   -7707.6445    16203.733    15.685961    13.584437    25.267728    5384.1725 
   34000       33.988    315.01102    12.948442   -451.39251   -438.44407    26.989793   -9788.0058   -9005.2867    18874.262    15.685963    13.584439     25.26771    5384.1705 
   34500       34.488    327.42778    13.458829   -451.88487   -438.42604       978.09   -4125.3575   -9683.9786    16743.606    15.685966    13.584441    25.267693    5384.1684 
   35000       34.988    324.64484    13.344437   -451.75192   -438.40749    586.98189   -9811.7947   -8533.7351    20106.475    15.685968    13.584443    25.267675    5384.1663 
   35500       35.488    338.78288    13.925577    -452.3142   -438.38862    848.37252   -7260.1253   -8290.9547    18096.198     15.68597    13.584446    25.267658    5384.1642 
   36000       35.988     319.6643    13.139714   -451.50896   -438.36924    1296.6393   -5961.7651   -9875.3049    19726.988    15.685973    13.584448     25.26764    5384.1621 
   36500       36.488    327.65737    13.468266   -451.81846   -438.35019   -30.017593    -11420.08   -7953.3332    19283.361    15.685975     13.58445    25.267623      5384.16 
   37000       36.988     313.9009    12.902811   -451.23395   -438.33114    1292.8408   -4667.5212   -7805.8034    16351.847    15.685978    13.584452    25.267605    5384.1579 
   37500       37.488    304.33606    12.509651   -450.82175    -438.3121   -610.09132   -10257.412   -8969.4508    17396.589     15.68598    13.584454    25.267588    5384.1558 
   38000       37.988    325.06926    13.361883   -451.65524   -438.29335    808.93813   -6274.9827   -8911.5274    17613.325    15.685982    13.584456     25.26757    5384.1537 
   38500       38.488    314.85367    12.941974   -451.21637    -438.2744     320.4305   -8340.4549   -8873.8639     18175.61    15.685985    13.584458    25.267553    5384.1516 
   39000       38.988    316.34343     13.00321   -451.25895   -438.25574    569.91298   -7206.7628   -7545.1928    16461.695    15.685987     13.58446    25.267535    5384.1495 
   39500       39.488    315.43662    12.965936   -451.20213    -438.2362    220.14897   -8055.2252   -6847.6536    15563.326     15.68599    13.584462    25.267518    5384.1474 
   40000       39.988    307.29511    12.631281   -450.84844   -438.21716    1739.5892   -7956.2329   -8538.5339    21713.534    15.685992    13.584464      25.2675    5384.1453 
   40500       40.488    329.76908    13.555068   -451.75308   -438.19801     378.3446   -8075.1431    -8472.476    17682.653    15.685994    13.584466    25.267483    5384.1432 
   41000       40.988    334.05985    13.731439   -451.91107   -438.17964    1507.3915   -7385.0813   -6505.2415    18412.497    15.685997    13.584468    25.267465    5384.1412 
   41500       41.488    328.73839    13.512702   -451.67242   -438.15972    1273.8658   -6371.4367   -9681.6608    19874.695    15.685999     13.58447    25.267448    5384.1391 
   42000       41.988    338.90936    13.930776   -452.07143   -438.14065    261.82921   -10233.473   -9651.4335    20670.394    15.686002    13.584472     25.26743     5384.137 
   42500       42.488    322.17117    13.242758   -451.36484   -438.12208    1623.8523    -8076.602   -6283.3556    19231.514    15.686004    13.584474    25.267413    5384.1349 
   43000       42.988    308.69963    12.689014   -450.79115   -438.10214    842.64314   -7798.0989   -8048.3555    18374.384    15.686006    13.584476    25.267395    5384.1328 
   43500       43.488    309.51844    12.722671   -450.80616   -438.08349    1563.7049   -8536.2291   -5291.0769    18518.421    15.686009    13.584478    25.267378    5384.1307 
   44000       43.988     327.8746    13.477196   -451.54222   -438.06502    733.49917   -6441.0506   -8365.6875    17007.236    15.686011     13.58448     25.26736    5384.1286 
   44500       44.488    312.38065    12.840321   -450.88589   -438.04557    2235.3321   -6915.2981   -8021.6592    21642.954    15.686014    13.584482    25.267343    5384.1265 
   45000       44.988    340.51493    13.996773   -452.02451   -438.02774    775.01317   -9783.7021   -7319.1433    19427.885    15.686016    13.584484    25.267325    5384.1244 
   45500       45.488    315.45069    12.966514   -450.97551   -438.00899    751.27815   -9868.7701   -5459.1532    17581.758    15.686018    13.584487    25.267308    5384.1223 
   46000       45.988    328.82057    13.516079   -451.50562   -437.98954    919.51452   -8343.5153   -8239.0738    19341.133    15.686021    13.584489     25.26729    5384.1202 
   46500       46.488    318.94639    13.110204   -451.08119   -437.97099    1040.0404   -7394.3012   -7951.5039    18465.926    15.686023    13.584491    25.267273    5384.1181 
   47000       46.988    310.13024    12.747819   -450.70063   -437.95281    1130.8698   -8545.4736   -6217.8634    18155.946    15.686026    13.584493    25.267255     5384.116 
   47500       47.488     324.2503     13.32822   -451.26312    -437.9349    203.79433   -8545.7503    -8663.353    17820.486    15.686028    13.584495    25.267238    5384.1139 
   48000       47.988    336.46865    13.830452   -451.74643   -437.91598    1126.5794   -7477.1586   -6008.2412    16865.138     15.68603    13.584497     25.26722    5384.1119 
   48500       48.488    315.03174    12.949293   -450.84723   -437.89793    1194.9709   -10538.505   -7232.6417    21356.059    15.686033    13.584499    25.267203    5384.1098 
   49000       48.988    327.71474    13.470625    -451.3501   -437.87947    981.36276   -6431.9466   -8965.5796    18341.614    15.686035    13.584501    25.267185    5384.1077 
   49500       49.488    299.71155    12.319561   -450.18074   -437.86118    37.956732   -10736.003   -7728.7885    18578.662    15.686038    13.584503    25.267168    5384.1056 
   50000       49.988     332.5734    13.670338   -451.51437   -437.84403    783.46603   -7512.4618   -8705.7316    18568.591     15.68604    13.584505     25.26715    5384.1035 
   50500       50.488    308.44831    12.678683   -450.50447   -437.82579    799.19025   -7059.1576   -9378.6735    18835.402    15.686042    13.584507    25.267133    5384.1014 
   51000       50.988    320.69661    13.182146   -450.98985   -437.80771    1849.8478   -10626.117   -6889.3361    23064.996    15.686045    13.584509    25.267115    5384.0993 
   51500       51.488    323.82866    13.310888   -451.10139    -437.7905    681.19053   -6677.7496   -9762.8794    18484.201    15.686047    13.584511    25.267098    5384.0972 
   52000       51.988    336.43598    13.829109   -451.60168   -437.77257    327.07958   -6702.3108   -9689.7489    17373.298     15.68605    13.584513     25.26708    5384.0951 
   52500       52.488    309.40913    12.718177   -450.47293   -437.75476    1213.1096   -7702.8744   -6733.9768     18076.18    15.686052    13.584515    25.267063     5384.093 
   53000       52.988    319.64658    13.138985   -450.87682   -437.73784    1310.2803   -6829.8436   -9428.4987    20189.183    15.686054    13.584517    25.267045    5384.0909 
   53500       53.488     325.8042    13.392093    -451.1127   -437.72061    3037.3971   -6411.0059   -7484.1631     23007.36    15.686057    13.584519    25.267028    5384.0888 
   54000       53.988    337.06047    13.854778   -451.55812   -437.70334    2158.4641   -9073.4198   -8030.7154    23579.528    15.686059    13.584521     25.26701    5384.0867 
   54500       54.488    328.75232    13.513274   -451.19982   -437.68655     1689.028   -5898.5869   -8421.2211    19386.892    15.686062    13.584523    25.266993    5384.0847 
   55000       54.988    346.86903    14.257956    -451.9277   -437.66974    915.03683   -7332.3987    -9770.483    19847.992    15.686064    13.584525    25.266975    5384.0826 
   55500       55.488    337.37953    13.867893   -451.52035   -437.65246    1787.5485    -7874.334   -9246.3903     22483.37    15.686066    13.584528    25.266958    5384.0805 
   56000       55.988    327.07545    13.444347   -451.08043   -437.63608    1418.7979   -6125.9511   -10277.859    20660.204    15.686069     13.58453     25.26694    5384.0784 
   56500       56.488    325.69742    13.387703   -451.00642   -437.61872    1185.1137   -8590.0968   -7906.7273    20052.165    15.686071    13.584532    25.266923    5384.0763 
   57000       56.988    318.75204    13.102215   -450.70451   -437.60229    2008.1728   -9460.3696   -4821.1121        20306    15.686074    13.584534    25.266905    5384.0742 
   57500       57.488    313.41169    12.882702   -450.46803   -437.58533    1653.9227   -6845.6341   -8726.4796    20533.882    15.686076    13.584536    25.266888    5384.0721 
   58000       57.988    346.21514    14.231079   -451.80048    -437.5694    348.91791   -5820.5133   -10178.934    17046.201    15.686078    13.584538     25.26687      5384.07 
   58500       58.488     331.3345    13.619414    -451.1723   -437.55288    1654.3418   -8686.2347   -5498.4398      19147.7    15.686081     13.58454    25.266853    5384.0679 
   59000       58.988    341.21711    14.025636   -451.56235   -437.53671    628.79905    -10265.81   -7689.3998    19841.607    15.686083    13.584542    25.266835    5384.0658 
   59500       59.488    319.79939    13.145266   -450.66557    -437.5203    1977.6559   -8937.9731   -6446.2984    21317.239    15.686086    13.584544    25.266818    5384.0637 
   60000       59.988    325.18514    13.366646   -450.87086   -437.50422    661.36433   -8934.5155   -7243.7259    18162.334    15.686088    13.584546      25.2668    5384.0616 
   60500       60.488    329.71553    13.552867   -451.04049   -437.48762    1745.6526   -5691.9128   -7122.6462    18051.517     15.68609    13.584548    25.266783    5384.0595 
   61000       60.988    345.54571    14.203562    -451.6754   -437.47184    305.27224   -7484.1527   -8621.8061    17021.776    15.686093     13.58455    25.266765    5384.0574 
   61500       61.488     322.0182     13.23647   -450.69232   -437.45585    1840.4872   -8111.2654   -6636.9296    20269.657    15.686095    13.584552    25.266748    5384.0554 
   62000       61.988    338.99132    13.934145   -451.37374   -437.43959    1217.2664   -8749.2963   -8790.8153    21191.911    15.686098    13.584554     25.26673    5384.0533 
   62500       62.488    355.51469    14.613334   -452.03787   -437.42453       781.79   -7767.4497   -10640.717    20753.536      15.6861    13.584556    25.266713    5384.0512 
   63000       62.988    315.46768    12.967213    -450.3749   -437.40768    1761.0619   -8690.4065   -6291.1781     20264.77    15.686102    13.584558    25.266695    5384.0491 
   63500       63.488    355.61164    14.617319   -452.01027   -437.39295    810.10064   -7785.5908   -7572.2839    17788.177    15.686105     13.58456    25.266678     5384.047 
   64000       63.988    336.19468     13.81919    -451.1951   -437.37591    1634.5793   -8819.7303   -8191.2473    21914.715    15.686107    13.584562     25.26666    5384.0449 
   64500       64.488    330.29064    13.576506   -450.93671    -437.3602     1573.679   -11809.284     -3662.38    20192.701     15.68611    13.584564    25.266643    5384.0428 
   65000       64.988    336.97195     13.85114    -451.1965   -437.34537    1986.4059   -5627.7811   -8514.6931    20101.692    15.686112    13.584566    25.266625    5384.0407 
   65500       65.488    333.74323    13.718424   -451.04766   -437.32924    2081.5031   -5000.4502   -6370.7059    17615.665    15.686114    13.584569    25.266608    5384.0386 
   66000       65.988     327.3981    13.457609   -450.77046   -437.31285    1094.5523   -10067.033   -7972.3523    21323.042    15.686117    13.584571     25.26659    5384.0365 
   66500       66.488    326.80024    13.433034   -450.73031   -437.29728    944.10489   -7259.6111   -9697.2568    19789.183    15.686119    13.584573    25.266573    5384.0344 
   67000       66.988    334.53537    13.750985   -451.03311   -437.28213    1640.4531   -9471.6837   -6671.9705    21065.013    15.686122    13.584575    25.266555    5384.0323 
   67500       67.488    331.93376    13.644046   -450.91025    -437.2662    1689.0965   -9431.4022   -6604.9202    21103.612    15.686124    13.584577    25.266538    5384.0302 
   68000       67.988    329.24192    13.533399   -450.78403   -437.25063    1235.1359   -6053.6409   -8447.6015     18206.65    15.686126    13.584579     25.26652    5384.0281 
   68500       68.488     331.7393    13.636053   -450.87067   -437.23462    1095.3397   -6499.5504   -10008.648    19794.218    15.686129    13.584581    25.266503    5384.0261 
   69000       68.988     333.1295    13.693197   -450.91214   -437.21894    623.81555   -7372.3556   -7590.5216    16834.324    15.686131    13.584583    25.266485     5384.024 
   69500       69.488    321.29007     13.20654    -450.4098   -437.20325    1871.1383   -7967.6766   -6988.5289     20569.62    15.686134    13.584585    25.266468    5384.0219 
   70000       69.988    336.07525    13.814281   -451.00201   -437.18773     2836.895   -6383.9879   -6150.1566    21044.829    15.686136    13.584587     25.26645    5384.0198 
   70500       70.488    338.25957    13.904067   -451.07654   -437.17247    1224.9323   -7300.3386   -8095.1591    19070.294    15.686138    13.584589    25.266433    5384.0177 
   71000       70.988     319.6391    13.138678   -450.29508   -437.15641    1831.4727   -9839.1578   -8634.5736     23968.15    15.686141    13.584591    25.266415    5384.0156 
   71500       71.488    327.33343    13.454951   -450.59481   -437.13986     1357.764   -8800.1808   -8842.9111    21716.384    15.686143    13.584593    25.266398    5384.0135 
   72000       71.988    348.06472    14.307105   -451.43074   -437.12363     1824.029   -6037.3655   -8709.7217    20219.174    15.686146    13.584595     25.26638    5384.0114 
   72500       72.488    342.81624    14.091368   -451.19998   -437.10861    923.28991   -9269.1339   -6588.9687    18627.972    15.686148    13.584597    25.266363    5384.0093 
   73000       72.988    328.48301    13.502204   -450.59385   -437.09165    1817.5679   -5319.4624   -6127.5714    16899.738     15.68615    13.584599    25.266345    5384.0072 
   73500       73.488    323.22997    13.286279   -450.36195   -437.07567    1496.3934   -7736.6898   -6202.2695     18428.14    15.686153    13.584601    25.266328    5384.0051 
   74000       73.988    330.57833    13.588332   -450.64805   -437.05971    2067.7643   -5311.7216   -8318.5326    19833.547    15.686155    13.584603     25.26631     5384.003 
   74500       74.488    316.62397    13.014742   -450.05766   -437.04292    2153.8159   -7719.1476   -8275.6019    22456.197    15.686158    13.584605    25.266293    5384.0009 
   75000       74.988    348.16514    14.311233   -451.33895   -437.02771    1198.9213   -7931.1865   -8785.6196     20313.57     15.68616    13.584607    25.266275    5383.9988 
   75500       75.488    350.54108    14.408895    -451.4207   -437.01181     1743.424   -9661.1614   -6184.8371     21076.27    15.686162     13.58461    25.266258    5383.9968 
   76000       75.988    333.57006    13.711306   -450.70617   -436.99487    987.13956    -7074.349   -9088.7311    19124.499    15.686165    13.584612     25.26624    5383.9947 
   76500       76.488    352.80694    14.502033   -451.48146   -436.97942    1627.9024   -5467.2069   -8151.6707    18502.585    15.686167    13.584614    25.266223    5383.9926 
   77000       76.988    330.22997    13.574012   -450.53672   -436.96271    1015.2186   -10910.938    -5683.691    19640.285     15.68617    13.584616    25.266205    5383.9905 
   77500       77.488    336.50297    13.831862   -450.77766    -436.9458    1552.1369   -8784.0183    -6805.235    20245.664    15.686172    13.584618    25.266188    5383.9884 
   78000       77.988    338.92576    13.931451   -450.86052   -436.92907    1322.2447   -9462.7004    -6276.283    19705.717    15.686174     13.58462     25.26617    5383.9863 
   78500       78.488    348.03889    14.306043   -451.21774   -436.91169    1622.1023   -7828.1002   -5729.0837    18423.491    15.686177    13.584622    25.266153    5383.9842 
   79000       78.988    325.17225    13.366116   -450.26157   -436.89546    1466.0739   -7505.5347   -8969.7137     20873.47    15.686179    13.584624    25.266135    5383.9821 
   79500       79.488    341.83862    14.051183   -450.92947   -436.87828   -68.818733   -11031.806   -8324.0605    19149.411    15.686182    13.584626    25.266118      5383.98 
   80000       79.988    337.66582    13.879661   -450.74148   -436.86182   -23.846524   -15956.603    -3755.771    19640.834    15.686184    13.584628      25.2661    5383.9779 
   80500       80.488    347.65041    14.290075   -451.13573   -436.84565    599.97679   -8336.5967   -9426.7884    19563.315    15.686186     13.58463    25.266083    5383.9758 
   81000       80.988    360.93055    14.835951   -451.66549   -436.82954    846.54037   -8283.2127   -6307.2489    17130.083    15.686189    13.584632    25.266065    5383.9737 
   81500       81.488    320.88763    13.189998   -450.00146   -436.81146     1036.346   -11439.139   -5662.1208    20210.297    15.686191    13.584634    25.266048    5383.9716 
   82000       81.988    351.55745    14.450673   -451.24488    -436.7942    834.80591    -8056.259   -9370.8171    19931.494    15.686194    13.584636     25.26603    5383.9695 
   82500       82.488    355.58367    14.616169    -451.3936   -436.77743     230.8977   -8312.7122   -9260.5519    18265.957    15.686196    13.584638    25.266013    5383.9675 
   83000       82.988    338.20964    13.902015   -450.66195   -436.75994    2154.7015   -9440.4059   -5996.6137    21901.124    15.686198     13.58464    25.265995    5383.9654 
   83500       83.488    351.89213    14.464429   -451.20746   -436.74304     1471.953   -6893.3083   -6389.7863    17698.954    15.686201    13.584642    25.265978    5383.9633 
   84000       83.988    330.93162    13.602854    -450.3281   -436.72525    2696.4225   -6923.4003   -5897.9268    20910.595    15.686203    13.584644     25.26596    5383.9612 
   84500       84.488    355.36279     14.60709   -451.31577   -436.70868    1784.9905   -8925.5621   -5440.2027    19720.736    15.686206    13.584646    25.265943    5383.9591 
   85000       84.988    334.03553    13.730439   -450.42049   -436.69005    2371.1358   -7290.5783    -5727.616    20131.601    15.686208    13.584648    25.265925     5383.957 
   85500       85.488    337.44947    13.870768   -450.54335   -436.67258    2450.2824    -6528.668   -5114.7194    18994.235     15.68621    13.584651    25.265908    5383.9549 
   86000       85.988    322.32516    13.249087   -449.90415   -436.65506    2555.7741   -7660.3574   -6827.1059    22154.786    15.686213    13.584653     25.26589    5383.9528 
   86500       86.488    355.54576    14.614611    -451.2517   -436.63709    1266.3999   -5731.2059   -8973.1438    18503.549    15.686215    13.584655    25.265873    5383.9507 
   87000       86.988    335.26111    13.780816   -450.39996   -436.61915    2396.5185   -11132.895   -6024.1979    24346.648    15.686218    13.584657    25.265855    5383.9486 
   87500       87.488     368.0968    15.130518   -451.73223   -436.60171    2347.8714   -6926.1123   -10034.172    24003.899     15.68622    13.584659    25.265838    5383.9465 
   88000       87.988    344.10274    14.144249   -450.72703   -436.58278    2392.9255   -5831.2064   -8961.8717    21971.855    15.686222    13.584661     25.26582    5383.9444 
   88500       88.488    330.57655    13.588258   -450.15271   -436.56445    1549.3896   -8747.8634   -7579.2349    20975.267    15.686225    13.584663    25.265803    5383.9423 
   89000       88.988    342.02564     14.05887   -450.60561   -436.54674    1899.7907   -8668.5747   -6724.3009    21092.248    15.686227    13.584665    25.265785    5383.9402 
   89500       89.488     362.5561    14.902769   -451.43132   -436.52855    2424.0626   -8860.2157   -6914.4784    23046.882     15.68623    13.584667    25.265768    5383.9382 
   90000       89.988    345.87206    14.216976   -450.72684   -436.50986    1906.9389   -6854.7955   -6017.2288    18592.841    15.686232    13.584669     25.26575    5383.9361 
   90500       90.488     336.3961     13.82747   -450.31771   -436.49024    1182.3483   -5869.4866   -6568.3982     15984.93    15.686234    13.584671    25.265733     5383.934 
   91000       90.988    360.53599    14.819733   -451.29182   -436.47209    1731.8969   -6079.7759   -5508.5288    16783.995    15.686237    13.584673    25.265715    5383.9319 
   91500       91.488    363.33392    14.934741   -451.38866   -436.45392    1371.9233   -7967.6342   -7392.6165    19476.021    15.686239    13.584675    25.265698    5383.9298 
   92000       91.988    343.12414    14.104024   -450.53864   -436.43462    2270.7216   -6815.3638     -7041.88    20669.409    15.686242    13.584677     25.26568    5383.9277 
   92500       92.488    341.90649    14.053973    -450.4701   -436.41613    2928.6704   -9837.5999    -5297.915    23921.526    15.686244    13.584679    25.265663    5383.9256 
   93000       92.988    359.52021     14.77798   -451.17496   -436.39698    952.89334   -6356.4781   -9152.8604    18368.019    15.686246    13.584681    25.265645    5383.9235 
   93500       93.488    340.52675    13.997259   -450.37517   -436.37791    1670.5102   -7912.9409   -5777.1478    18701.619    15.686249    13.584683    25.265628    5383.9214 
   94000       93.988    352.27164    14.480029   -450.83918   -436.35916    1131.4869   -7495.3397   -6337.4188    17227.219    15.686251    13.584685     25.26561    5383.9193 
   94500       94.488    338.66272    13.920638   -450.25998   -436.33934    2425.1639   -11080.933   -2555.1312    20911.556    15.686254    13.584687    25.265593    5383.9172 
   95000       94.988    363.32241    14.934268   -451.25521   -436.32094    729.28251   -10231.263   -7122.2542    19541.364    15.686256    13.584689    25.265575    5383.9151 
   95500       95.488    333.86688    13.723507   -450.02441    -436.3009    1834.5139    -5439.268   -6404.8914    17347.701    15.686258    13.584692    25.265558     5383.913 
   96000       95.988     341.6396    14.043002   -450.32425   -436.28124    2208.5496   -3284.3072    -8513.037    18422.993    15.686261    13.584694     25.26554    5383.9109 
   96500       96.488    353.17092    14.516994   -450.77885   -436.26185    1837.9139   -7129.4745   -9016.4039     21659.62    15.686263    13.584696    25.265523    5383.9089 
   97000       96.988    334.55314    13.751715    -449.9934   -436.24169    1623.2407    -6613.042   -8948.1147    20430.879    15.686266    13.584698    25.265505    5383.9068 
   97500       97.488    349.14336    14.351442   -450.57379   -436.22235    1513.3649   -5772.2382   -8234.6919    18547.025    15.686268      13.5847    25.265488    5383.9047 
   98000       97.988    322.71624    13.265163   -449.46696    -436.2018    2985.7975   -5393.8576   -7191.0409    21542.291     15.68627    13.584702     25.26547    5383.9026 
   98500       98.488    332.50586    13.667563   -449.84988   -436.18232    1470.6575    -5699.185   -6797.6693    16908.827    15.686273    13.584704    25.265453    5383.9005 
   99000       98.988    325.27803    13.370464   -449.53281   -436.16234    3028.0215   -8683.8554   -4492.1997     22260.12    15.686275    13.584706    25.265435    5383.8984 
   99500       99.488    351.72456    14.457542   -450.60019   -436.14265     1544.507   -8666.8036   -4574.6924    17875.017    15.686278    13.584708    25.265418    5383.8963 
  100000       99.988    365.22077      15.0123   -451.13457   -436.12227    2321.3768   -6049.2942   -6303.3119    19316.736     15.68628     13.58471      25.2654    5383.8942 
  100500      100.488    355.25349    14.602597   -450.70504   -436.10245    2310.0666   -7169.1289   -7569.1747    21668.503    15.686282    13.584712    25.265383    5383.8921 
  101000      100.988    365.65034    15.029957   -451.11216   -436.08221    1133.5481    -7929.042   -9774.3384    21104.025    15.686285    13.584714    25.265365      5383.89 
  101500      101.488    354.41671    14.568202   -450.62953   -436.06133    1921.0903   -3810.6854   -8515.2812    18089.238    15.686287    13.584716    25.265348    5383.8879 
  102000      101.988    369.90367    15.204789   -451.24627   -436.04148    2983.2884   -7107.4127   -8654.0479    24711.326     15.68629    13.584718     25.26533    5383.8858 
  102500      102.488     341.9023      14.0538   -450.07318   -436.01938     2731.031   -4567.5251   -8874.2554    21634.874    15.686292     13.58472    25.265313    5383.8837 
  103000      102.988     353.6823    14.538014   -450.53792   -435.99991    1522.6041   -4036.8444   -9677.5344    18282.191    15.686294    13.584722    25.265295    5383.8816 
  103500      103.488    351.01499    14.428375   -450.40726   -435.97888    1901.0745   -7944.0558   -5926.3405     19573.62    15.686297    13.584724    25.265278    5383.8796 
  104000      103.988    340.95694    14.014941   -449.97271   -435.95777    930.06568   -10403.023   -3686.4984    16879.719    15.686299    13.584726     25.26526    5383.8775 
  104500      104.488    346.81916    14.255907   -450.19327   -435.93736    2362.5652   -10466.182   -5450.3818    23004.259    15.686302    13.584728    25.265243    5383.8754 
  105000      104.988    360.55733     14.82061   -450.73714   -435.91653    1975.5128   -8248.0443   -8059.0787    22233.661    15.686304     13.58473    25.265225    5383.8733 
  105500      105.488    344.40456    14.156655   -450.05206   -435.89541    1822.1483   -7088.3789   -7469.5941    20024.418    15.686306    13.584733    25.265208    5383.8712 
  106000      105.988    342.92813    14.095967   -449.96951   -435.87355    2288.5917   -7486.8974   -7229.3811    21582.054    15.686309    13.584735     25.26519    5383.8691 
  106500      106.488    348.13381    14.309945   -450.16303   -435.85308    1164.8228   -8907.4949   -7249.8348    19651.798    15.686311    13.584737    25.265173     5383.867 
  107000      106.988    344.95624    14.179332   -450.01109   -435.83176    2595.9701   -7057.1281    -6095.091     20940.13    15.686314    13.584739    25.265155    5383.8649 
  107500      107.488     349.2526    14.355932   -450.16653   -435.81059    2183.7269   -8579.0142   -7484.0186    22614.214    15.686316    13.584741    25.265138    5383.8628 
  108000      107.988    332.65106    13.673531    -449.4625   -435.78897    2854.7285   -8688.1916   -5982.9564    23235.334    15.686318    13.584743     25.26512    5383.8607 
  108500      108.488    351.55935    14.450751   -450.21888   -435.76813    1981.3404   -7211.3204    -6360.114    19515.456    15.686321    13.584745    25.265103    5383.8586 
  109000      108.988    348.36446    14.319426   -450.06535   -435.74593    2243.6274    -6858.913   -6249.3668    19839.162    15.686323    13.584747    25.265085    5383.8565 
  109500      109.488    344.49044    14.160185   -449.88435   -435.72416    2275.4139    -5767.418   -7690.8159    20284.476    15.686326    13.584749    25.265068    5383.8544 
  110000      109.988     350.9508    14.425737   -450.12791   -435.70217    2911.9238   -7306.8237   -7781.7332    23824.328    15.686328    13.584751     25.26505    5383.8523 
  110500      110.488    365.31096    15.016007   -450.69658   -435.68057    1768.4359   -9105.5237   -5962.4588     20373.29     15.68633    13.584753    25.265033    5383.8502 
  111000      110.988    354.12745    14.556312   -450.21529   -435.65897    2218.4423   -7778.8382   -6550.7047     20984.87    15.686333    13.584755    25.265015    5383.8482 
  111500      111.488    354.96519    14.590747   -450.22757   -435.63682    1573.9824   -9751.5946   -7275.3515    21748.893    15.686335    13.584757    25.264998    5383.8461 
  112000      111.988    355.51326    14.613275   -450.22842   -435.61514    3609.5578   -8724.8938   -2789.5417    22343.109    15.686338    13.584759     25.26498     5383.844 
  112500      112.488    363.67847    14.948904   -450.54203   -435.59313    1885.5179   -8927.3639   -6094.0977    20678.015     15.68634    13.584761    25.264963    5383.8419 
  113000      112.988    368.77731     15.15849   -450.72861   -435.57012    1832.5365   -8234.1576   -7379.2628     21111.03    15.686342    13.584763    25.264945    5383.8398 
  113500      113.488    354.39064     14.56713   -450.11606   -435.54893    1786.3727   -5722.4769   -7121.8281    18203.423    15.686345    13.584765    25.264928    5383.8377 
  114000      113.988    356.63964    14.659575   -450.18584   -435.52626    2822.5049   -6645.6141   -5874.3986    20987.527    15.686347    13.584767     25.26491    5383.8356 
  114500      114.488     359.0399    14.758237   -450.26325   -435.50502    1354.4266   -7659.4155   -6909.9056    18632.601     15.68635    13.584769    25.264893    5383.8335 
  115000      114.988    357.78714    14.706742   -450.18883   -435.48209    1772.3528   -6090.3734   -6535.0138    17942.446    15.686352    13.584771    25.264875    5383.8314 
  115500      115.488     361.7656    14.870276   -450.33069   -435.46041    2488.6511   -9024.7455   -5636.9409     22127.64    15.686354    13.584774    25.264858    5383.8293 
  116000      115.988    349.52078    14.366956   -449.80454   -435.43758    2319.5066   -6396.9899   -7766.1381    21121.648    15.686357    13.584776     25.26484    5383.8272 
  116500      116.488    350.35371    14.401193   -449.81622   -435.41503     1854.185   -8462.7379    -7074.655    21099.948    15.686359    13.584778    25.264823    5383.8251 
  117000      116.988    359.13829    14.762281   -450.15546   -435.39318     2747.552   -6239.6278   -4763.8104    19246.094    15.686362     13.58478    25.264805     5383.823 
  117500      117.488    360.64202    14.824092   -450.19456   -435.37046    1136.9799   -10539.122   -5659.2523    19609.314    15.686364    13.584782    25.264788    5383.8209 
  118000      117.988    379.27721    15.590086   -450.93764   -435.34756    1514.3104   -6668.0196   -9315.9928    20526.944    15.686366    13.584784     25.26477    5383.8189 
  118500      118.488     363.8164    14.954573   -450.27891   -435.32434    3252.8301   -6615.8288   -5809.9734    22184.292    15.686369    13.584786    25.264753    5383.8168 
  119000      118.988    378.22681    15.546909   -450.84953   -435.30262    3303.1342   -8110.9465    -2910.387    20930.736    15.686371    13.584788    25.264735    5383.8147 
  119500      119.488    348.86592    14.340038    -449.6199   -435.27986    2238.8241   -5306.3392   -9123.6995    21146.511    15.686374     13.58479    25.264718    5383.8126 
  120000      119.988    368.10547    15.130875   -450.38854   -435.25766    2920.5314   -3059.9271   -5900.7786      17722.3    15.686376    13.584792      25.2647    5383.8105 
  120500      120.488    354.18412    14.558641   -449.79268   -435.23404    1640.7554   -7406.8468   -7246.8956    19576.009    15.686378    13.584794    25.264683    5383.8084 
  121000      120.988    379.17322    15.585811    -450.7976   -435.21179    1479.0237   -6931.0503   -9979.3395    21347.461    15.686381    13.584796    25.264665    5383.8063 
  121500      121.488    367.97403    15.125472   -450.31371   -435.18824    2614.3126   -7584.8808    -8761.074    24188.893    15.686383    13.584798    25.264648    5383.8042 
  122000      121.988    346.59079     14.24652   -449.41188   -435.16536    2279.6922   -8002.5425   -6041.9927    20883.612    15.686386      13.5848     25.26463    5383.8021 
  122500      122.488     361.7886    14.871221   -450.01436   -435.14314    3403.1549    -7853.252   -5033.5203    23096.237    15.686388    13.584802    25.264613       5383.8 
  123000      122.988    353.82166    14.543743   -449.66292   -435.11918    2860.5888   -7887.0406   -6757.6722    23226.479     15.68639    13.584804    25.264595    5383.7979 
  123500      123.488    350.55898    14.409631   -449.50577   -435.09614    2637.9719   -5566.9845   -6100.8354    19581.735    15.686393    13.584806    25.264578    5383.7958 
  124000      123.988    362.37717    14.895414   -449.96936   -435.07394    2367.9529   -8927.2233   -5836.0448    21867.127    15.686395    13.584808     25.26456    5383.7937 
  124500      124.488    382.78546    15.734292    -450.7856   -435.05131    2212.8208   -8014.9788   -4270.0063    18923.447    15.686398     13.58481    25.264543    5383.7916 
  125000      124.988    348.42281    14.321824   -449.34937   -435.02755    2834.5832    -8120.411   -5152.0697     21776.23      15.6864    13.584812    25.264525    5383.7896 
  125500      125.488    357.13265     14.67984   -449.68435   -435.00451    3132.7257   -7758.2072    -4635.961    21792.345    15.686402    13.584815    25.264508    5383.7875 
  126000      125.988     365.4533    15.021858   -450.00317   -434.98131    2160.5111   -6288.4207   -6861.4664     19631.42    15.686405    13.584817     25.26449    5383.7854 
  126500      126.488    347.98301    14.303746   -449.26207   -434.95833    3407.9313   -5377.1285   -3819.1769    19420.099    15.686407    13.584819    25.264473    5383.7833 
  127000      126.988    357.69271    14.702861   -449.63837   -434.93551    1896.4786   -5748.0448   -8770.9879    20208.468     15.68641    13.584821    25.264455    5383.7812 
  127500      127.488    384.89109    15.820843   -450.73324    -434.9124     1662.852   -5884.5581   -8241.0241    19114.138    15.686412    13.584823    25.264438    5383.7791 
  128000      127.988    386.92643    15.904505    -450.7935     -434.889     2703.803   -8167.0152    -4884.224    21162.648    15.686414    13.584825     25.26442     5383.777 
  128500      128.488    354.24953     14.56133   -449.42651   -434.86518    3489.4994   -7300.6208    -2887.569    20656.688    15.686417    13.584827    25.264403    5383.7749 
  129000      128.988    361.62579    14.864529   -449.70704   -434.84251    3177.1366   -6812.2695   -6195.2105     22538.89    15.686419    13.584829    25.264385    5383.7728 
  129500      129.488    359.91522    14.794216   -449.61311   -434.81889    3016.9818   -5458.8593   -7617.9466    22127.751    15.686422    13.584831    25.264368    5383.7707 
  130000      129.988    358.14798    14.721574   -449.51675   -434.79517    3548.8302   -7216.3803   -6488.7555    24351.626    15.686424    13.584833     25.26435    5383.7686 
  130500      130.488        371.7    15.278627   -450.05007   -434.77144    2434.1367   -8076.2009   -6923.3517    22301.963    15.686426    13.584835    25.264333    5383.7665 
  131000      130.988    368.10965    15.131047   -449.87919   -434.74815    1956.8868   -8633.5327   -8343.6457    22847.839    15.686429    13.584837    25.264315    5383.7644 
  131500      131.488    348.78307    14.336633   -449.06121   -434.72457    3197.1664   -8411.0633   -6178.2234    24180.786    15.686431    13.584839    25.264298    5383.7623 
  132000      131.988    362.29081    14.891865   -449.59326    -434.7014    3129.6502   -7842.0347   -4828.8695    22059.855    15.686434    13.584841     25.26428    5383.7602 
  132500      132.488    357.49689    14.694812   -449.37265   -434.67784    2894.3668   -2331.4185   -8660.5394    19675.058    15.686436    13.584843    25.264263    5383.7582 
  133000      132.988    364.53703    14.984195   -449.63885   -434.65465    3373.4273    -7292.975   -6038.6709    23451.928    15.686438    13.584845    25.264245    5383.7561 
  133500      133.488    387.50287    15.928199   -450.55901   -434.63081    2589.1879   -5462.1488   -7978.4647    21208.177    15.686441    13.584847    25.264228     5383.754 
  134000      133.988    354.42083    14.568371   -449.17501   -434.60664    2049.4875   -7132.7398   -5274.1801    18555.382    15.686443    13.584849     25.26421    5383.7519 
  134500      134.488    383.73822    15.773454   -450.35698   -434.58353    1003.5018   -9175.5856   -7339.8536    19525.945    15.686446    13.584851    25.264193    5383.7498 
  135000      134.988    375.48009    15.434006   -449.99367   -434.55967    3191.2722   -5081.2821   -4969.9014        19625    15.686448    13.584853    25.264175    5383.7477 
  135500      135.488    375.08725    15.417859    -449.9552   -434.53735    1819.3664   -8090.9385   -4592.1616    18141.199     15.68645    13.584856    25.264158    5383.7456 
  136000      135.988    359.53823    14.778721   -449.29144   -434.51272    3566.3459   -5472.9616   -6306.9546    22478.954    15.686453    13.584858     25.26414    5383.7435 
  136500      136.488    382.98938    15.742673   -450.23194   -434.48926    2199.6181    -7378.343   -5365.7399    19342.937    15.686455     13.58486    25.264123    5383.7414 
  137000      136.988    350.49032    14.406809   -448.87226   -434.46545    2020.7674   -8164.7398   -6706.7437    20933.786    15.686458    13.584862    25.264105    5383.7393 
  137500      137.488    364.03759    14.963666   -449.40546   -434.44179    2566.8617   -5166.9088   -9161.5774    22029.071     15.68646    13.584864    25.264088    5383.7372 
  138000      137.988    353.84363    14.544646     -448.962   -434.41735    2956.4431   -9634.4244   -4186.0686    22689.822    15.686462    13.584866     25.26407    5383.7351 
  138500      138.488    356.17759    14.640582   -449.03497   -434.39439    2908.7134   -6770.6252    -5252.187    20748.952    15.686465    13.584868    25.264053     5383.733 
  139000      138.988    366.19332    15.052276    -449.4222   -434.36992    3446.6482   -6268.1673   -3806.5768    20414.689    15.686467     13.58487    25.264035    5383.7309 
  139500      139.488    368.00962    15.126935   -449.47203   -434.34509    2778.2021   -4715.4011   -7075.6519    20125.659     15.68647    13.584872    25.264018    5383.7289 
  140000      139.988    367.82013    15.119146   -449.44167   -434.32252    3765.2056   -1491.5299   -3893.0758    16680.223    15.686472    13.584874       25.264    5383.7268 
  140500      140.488    380.51681    15.641039   -449.94037   -434.29933    3008.9088   -4470.1016   -3527.8722      17024.7    15.686474    13.584876    25.263983    5383.7247 
  141000      140.988    398.36354    16.374624   -450.64875   -434.27412      2406.89   -5561.8999   -6255.2441    19037.814    15.686477    13.584878    25.263965    5383.7226 
  141500      141.488    369.00519    15.167857   -449.41831   -434.25045    4321.6117   -2792.6078     -3712.17    19469.613    15.686479     13.58488    25.263948    5383.7205 
  142000      141.988      368.732    15.156628     -449.383   -434.22637    3611.5543   -5262.2657   -6263.2099    22360.139    15.686482    13.584882     25.26393    5383.7184 
  142500      142.488    385.01116    15.825778   -450.02887   -434.20309    1428.1291   -6213.4818   -6439.4226    16937.292    15.686484    13.584884    25.263913    5383.7163 
  143000      142.988    368.54145    15.148795   -449.32671   -434.17791     3356.462   -7591.1322   -4624.5059    22285.024    15.686486    13.584886    25.263895    5383.7142 
  143500      143.488    365.49474    15.023561   -449.17765   -434.15409    3477.4414    -6785.405   -4995.9946    22213.724    15.686489    13.584888    25.263878    5383.7121 
  144000      143.988    380.76833    15.651378   -449.78061   -434.12923     2567.323   -5840.0299    -6724.967    20266.966    15.686491     13.58489     25.26386      5383.71 
  144500      144.488    368.21471    15.135365   -449.24076   -434.10539    2475.8687   -6043.0628   -7611.4276    21082.097    15.686494    13.584892    25.263843    5383.7079 
  145000      144.988    357.61703     14.69975   -448.78057   -434.08082     4282.203   -6476.1657   -2405.8819    21728.657    15.686496    13.584894    25.263825    5383.7058 
  145500      145.488     382.4239     15.71943   -449.77631   -434.05688    4068.8641   -2850.8992   -7382.5861    22440.078    15.686498    13.584897    25.263808    5383.7037 
  146000      145.988    400.18401    16.449454   -450.48222   -434.03277    2847.5439   -4239.6165   -8682.3278    21464.576    15.686501    13.584899     25.26379    5383.7016 
  146500      146.488    373.34326    15.346172   -449.35418   -434.00801    3226.5139   -4745.1087    -5458.545    19883.196    15.686503    13.584901    25.263773    5383.6995 
  147000      146.988    352.91707    14.506559   -448.49025   -433.98369    4488.6972   -4290.3968   -5863.4684    23619.957    15.686506    13.584903    25.263755    5383.6975 
  147500      147.488    392.66144    16.140241   -450.10133   -433.96109    2619.5589   -7421.6824   -8341.0794    23621.439    15.686508    13.584905    25.263738    5383.6954 
  148000      147.988    387.04937    15.909558   -449.84583   -433.93627    2416.0644    -5794.915   -7142.5462    20185.655     15.68651    13.584907     25.26372    5383.6933 
  148500      148.488    372.28594    15.302712   -449.21428   -433.91157    2802.0923   -5426.4235   -7752.1117    21584.812    15.686513    13.584909    25.263703    5383.6912 
  149000      148.988    365.34999    15.017611    -448.9046   -433.88699    2888.4408   -4304.5548   -11268.525    24238.402    15.686515    13.584911    25.263685    5383.6891 
  149500      149.488    390.00938    16.031229   -449.89512   -433.86389    2876.7633   -8299.0907   -5922.8419    22852.222    15.686518    13.584913    25.263668     5383.687 
  150000      149.988    374.81855    15.406814   -449.24564   -433.83882    3857.1598   -5956.9903    -6416.437    23944.907     15.68652    13.584915     25.26365    5383.6849 
  150500      150.488    376.89385    15.492118   -449.30621   -433.81409    3251.4396   -3045.2308   -6638.7868    19438.337    15.686522    13.584917    25.263633    5383.6828 
  151000      150.988    379.16963    15.585664   -449.37611   -433.79045    3178.7757   -3123.7597   -5003.6634     17663.75    15.686525    13.584919    25.263615    5383.6807 
  151500      151.488    381.14681    15.666935   -449.43283    -433.7659    3247.8241   -4367.3839   -5868.2152    19979.071    15.686527    13.584921    25.263598    5383.6786 
  152000      151.988    390.30979    16.043577   -449.78459   -433.74101    2828.9195   -7822.9857     -3554.14    19863.884     15.68653    13.584923     25.26358    5383.6765 
  152500      152.488    374.22567    15.382443   -449.09929   -433.71685    2054.3923   -7986.7313   -6713.2286    20863.137    15.686532    13.584925    25.263563    5383.6744 
  153000      152.988    393.31184    16.166975   -449.86008    -433.6931    2585.6364   -7656.2179   -3274.7546    18687.882    15.686534    13.584927    25.263545    5383.6723 
  153500      153.488    355.27521     14.60349   -448.27144   -433.66795    3960.2841   -6677.5824   -5816.2271    24374.662    15.686537    13.584929    25.263528    5383.6702 
  154000      153.988    396.07357    16.280496   -449.92505   -433.64455    3243.0245   -8606.8303   -5119.6328    23455.537    15.686539    13.584931     25.26351    5383.6682 
  154500      154.488    395.92624     16.27444   -449.89441   -433.61997     3181.023   -7189.3841   -4203.6374    20936.091    15.686542    13.584933    25.263493    5383.6661 
  155000      154.988    371.92733    15.287971   -448.88269   -433.59472    2071.4563     -9196.23   -4822.7981    20233.397    15.686544    13.584935    25.263475     5383.664 
  155500      155.488    373.88056    15.368258   -448.93832   -433.57006     3292.641   -9779.5098    -370.2991    20027.732    15.686546    13.584938    25.263458    5383.6619 
  156000      155.988    386.73361    15.896579   -449.44273   -433.54615    2631.1286   -9570.5029     -5517.82    22981.709    15.686549     13.58494     25.26344    5383.6598 
  156500      156.488    376.75496     15.48641   -449.00663   -433.52022    4167.2847   -4407.8993   -5106.8965     22016.65    15.686551    13.584942    25.263423    5383.6577 
  157000      156.988    386.73209    15.896517   -449.39188   -433.49536    2960.6534   -5707.2765   -7699.9404    22289.177    15.686554    13.584944    25.263405    5383.6556 
  157500      157.488    380.27294    15.631015   -449.10131    -433.4703    3467.6014   -3256.9848   -9531.0711     23190.86    15.686556    13.584946    25.263388    5383.6535 
  158000      157.988    406.10538     16.69285   -450.13878   -433.44593    4171.6416   -7129.5988   -3771.8384    23416.362    15.686558    13.584948     25.26337    5383.6514 
  158500      158.488    381.49634    15.681302   -449.10176   -433.42046    2594.3678   -6477.3521    -5444.386    19704.842    15.686561     13.58495    25.263353    5383.6493 
  159000      158.988    384.13268    15.789669   -449.18634   -433.39668    4712.1916   -6580.0416   -3867.5701    24584.186    15.686563    13.584952    25.263335    5383.6472 
  159500      159.488    379.43741    15.596671   -448.96792   -433.37125    3656.5751   -5757.5392   -6807.8743    23535.139    15.686566    13.584954    25.263318    5383.6451 
  160000      159.988    379.69035    15.607068   -448.95293   -433.34586    3857.5503   -7281.3905   -5522.5117    24376.553    15.686568    13.584956      25.2633     5383.643 
  160500      160.488    401.20814    16.491551   -449.81241   -433.32086    3365.7166   -6415.2655   -6670.9965    23183.412     15.68657    13.584958    25.263283    5383.6409 
  161000      160.988      393.424    16.171586   -449.46758   -433.29599    3266.0251   -7211.0202   -6095.9755    23105.071    15.686573     13.58496    25.263265    5383.6388 
  161500      161.488    405.18177    16.654886   -449.92598    -433.2711     2525.175   -10495.592   -5577.7545    23648.871    15.686575    13.584962    25.263248    5383.6368 
  162000      161.988    391.03021     16.07319   -449.31822   -433.24503    3948.5425    -5610.683   -6482.5374    23938.848    15.686578    13.584964     25.26323    5383.6347 
  162500      162.488    372.56551    15.314203   -448.53268   -433.21847    4315.1527   -5235.7157   -4939.3626    23120.537     15.68658    13.584966    25.263213    5383.6326 
  163000      162.988    376.06426    15.458018   -448.65195   -433.19393    3382.4664   -6336.3725   -3986.1624    20469.934    15.686582    13.584968    25.263195    5383.6305 
  163500      163.488    394.39465    16.211484   -449.38098    -433.1695    3286.3355   -5294.4701   -6205.4139    21358.891    15.686585     13.58497    25.263178    5383.6284 
  164000      163.988    389.15659    15.996175   -449.13985   -433.14367    1893.2728   -5522.4241   -8577.9131    19780.155    15.686587    13.584972     25.26316    5383.6263 
  164500      164.488    384.98231    15.824592   -448.94351   -433.11891    3090.9343    -3240.813   -6726.4911    19240.107     15.68659    13.584974    25.263143    5383.6242 
  165000      164.988    404.88269    16.642592   -449.73669    -433.0941    2821.0294   -4836.1998   -5820.6393    19119.927    15.686592    13.584976    25.263125    5383.6221 
  165500      165.488    354.90813    14.588401   -447.65732   -433.06892    3322.3341   -6907.5983    -4299.905    21174.506    15.686594    13.584979    25.263108      5383.62 
  166000      165.988    397.91227    16.356075   -449.40073   -433.04466    3023.5984   -8233.8757   -2537.1509    19841.822    15.686597    13.584981     25.26309    5383.6179 
  166500      166.488    399.70604    16.429807   -449.44938   -433.01958    3297.6706    -7306.917   -7016.3529    24216.282    15.686599    13.584983    25.263073    5383.6158 
  167000      166.988    378.33004    15.551153   -448.54488   -432.99373    4840.3599   -1906.6164    -6006.022    22433.718    15.686602    13.584985    25.263055    5383.6137 
  167500      167.488    383.81332    15.776541    -448.7445   -432.96796    1732.9573    -5282.071   -6450.4152    16931.358    15.686604    13.584987    25.263038    5383.6116 
  168000      167.988    398.73808     16.39002   -449.33334   -432.94332    4423.3894   -5363.2668     -4879.54    23512.975    15.686606    13.584989     25.26302    5383.6095 
  168500      168.488    378.63004    15.563484   -448.48167   -432.91818    3666.4091    -5507.835    -7607.803    24114.865    15.686609    13.584991    25.263003    5383.6074 
  169000      168.988     387.4881    15.927592   -448.82054   -432.89295    4099.5592   -6627.9981   -4716.1567    23642.832    15.686611    13.584993    25.262985    5383.6054 
  169500      169.488    375.69254    15.442739   -448.30982   -432.86708      4286.78   -3891.7712   -6078.2899    22830.401    15.686614    13.584995    25.262968    5383.6033 
  170000      169.988    386.24416    15.876461    -448.7179   -432.84144    2693.4911   -9260.3745   -4236.2534    21577.101    15.686616    13.584997     25.26295    5383.6012 
  170500      170.488    380.29502    15.631923   -448.44824   -432.81632    3593.1923   -6966.7099   -5734.1662    23480.453    15.686618    13.584999    25.262933    5383.5991 
  171000      170.988    406.89433     16.72528   -449.51747   -432.79219    3306.4498   -5901.2063   -5328.5525    21149.108    15.686621    13.585001    25.262915     5383.597 
  171500      171.488    388.93489    15.987062   -448.75345   -432.76639    2284.8326   -8263.5732   -5821.2737    20939.344    15.686623    13.585003    25.262898    5383.5949 
  172000      171.988    396.86446    16.313005   -449.05378   -432.74077    2699.6813    -3769.251    -6850.095     18718.39    15.686626    13.585005     25.26288    5383.5928 
  172500      172.488    389.51053    16.010724   -448.72606   -432.71534    4377.0986   -3481.5035   -5373.1518    21985.951    15.686628    13.585007    25.262863    5383.5907 
  173000      172.988    389.93441    16.028147   -448.71755    -432.6894    3480.8456     -7608.92   -4154.2086    22205.665     15.68663    13.585009    25.262845    5383.5886 
  173500      173.488    414.66667     17.04476   -449.70983   -432.66507    4242.9791    -4030.281    -4761.122     21520.34    15.686633    13.585011    25.262828    5383.5865 
  174000      173.988    400.69112    16.470299   -449.10974   -432.63944     3744.661    -8738.808    -6221.987    26194.778    15.686635    13.585013     25.26281    5383.5844 
  174500      174.488    390.45536    16.049561   -448.66225   -432.61269    2506.8305   -8738.0057   -5744.6608    22003.158    15.686638    13.585015    25.262793    5383.5823 
  175000      174.988    421.87974    17.341251   -449.92891   -432.58766    3270.6316   -5798.8746   -5652.8577    21263.627     15.68664    13.585017    25.262775    5383.5802 
  175500      175.488    395.50254    16.257024   -448.81876   -432.56174    3448.4033   -4772.8049   -9926.9859    25045.001    15.686642     13.58502    25.262758    5383.5781 
  176000      175.988    396.01519    16.278096   -448.81402   -432.53592    4248.3283   -6841.3612   -4673.7203    24260.066    15.686645    13.585022     25.26274    5383.5761 
  176500      176.488    376.56726    15.478694   -447.98912   -432.51043    5174.6276    -6727.151   -2698.5822    24949.616    15.686647    13.585024    25.262723     5383.574 
  177000      176.988    379.67069     15.60626   -448.09135   -432.48509    3874.5522   -7368.9191   -4302.2351    23294.811     15.68665    13.585026    25.262705    5383.5719 
  177500      177.488    396.95705    16.316811    -448.7757   -432.45889    4435.3026   -4191.1798   -3790.9755    21288.063    15.686652    13.585028    25.262688    5383.5698 
  178000      177.988    379.29328    15.590746   -448.02278   -432.43203    3411.3664   -8052.5778   -7685.3536    25972.031    15.686654     13.58503     25.26267    5383.5677 
  178500      178.488    407.91371    16.767181   -449.17527   -432.40808    3199.0324   -7120.8616   -4619.5122    21337.471    15.686657    13.585032    25.262653    5383.5656 
  179000      178.988    382.24858    15.712223   -448.09416   -432.38194    3062.7097   -4984.0224   -7332.5578    21504.709    15.686659    13.585034    25.262635    5383.5635 
  179500      179.488    368.60609    15.151452   -447.50607   -432.35462    4259.3915   -8197.2435   -551.59816    21527.016    15.686662    13.585036    25.262618    5383.5614 
  180000      179.988    397.92275    16.356506   -448.68554   -432.32903    3973.2406   -5150.9196   -7193.8588      24264.5    15.686664    13.585038      25.2626    5383.5593 
  180500      180.488    395.46166    16.255343   -448.55796   -432.30261    4354.5754   -4269.6997   -5277.9934    22611.419    15.686666     13.58504    25.262583    5383.5572 
  181000      180.988    377.06867    15.499304   -447.77677   -432.27746    4839.7723   -5836.3542   -4874.3466    25230.018    15.686669    13.585042    25.262565    5383.5551 
  181500      181.488     396.5769    16.301185   -448.55274   -432.25156    3407.6155   -8589.5738    -1832.401    20644.821    15.686671    13.585044    25.262548     5383.553 
  182000      181.988     398.5929    16.384052   -448.60899   -432.22494    4862.7618   -5108.3979   -6988.9801    26685.663    15.686674    13.585046     25.26253    5383.5509 
  182500      182.488    413.25053     16.98655    -449.1867   -432.20015    3680.1165   -4888.8924   -5841.6093    21770.851    15.686676    13.585048    25.262513    5383.5488 
  183000      182.988    415.81933     17.09214   -449.26592   -432.17378    4350.5505   -4119.2078   -4571.3694    21742.229    15.686678     13.58505    25.262495    5383.5467 
  183500      183.488    387.75821    15.938695   -448.08568   -432.14698    4967.4667   -2737.7391    -7423.406    25063.545    15.686681    13.585052    25.262478    5383.5447 
  184000      183.988    394.44943    16.213736   -448.33503    -432.1213    4721.4618   -6032.8507    -5897.665    26094.901    15.686683    13.585054     25.26246    5383.5426 
  184500      184.488    384.61714    15.809582   -447.90338    -432.0938    4259.2878   -4668.0908   -5326.2034    22772.158    15.686686    13.585056    25.262443    5383.5405 
  185000      184.988    398.75041    16.390526   -448.45652     -432.066    4022.4106   -5698.3823   -6119.2233    23884.837    15.686688    13.585058    25.262425    5383.5384 
  185500      185.488    388.22565    15.957909   -447.99782   -432.03991    2486.7279   -6368.0688    -5985.638     19813.89     15.68669    13.585061    25.262408    5383.5363 
  186000      185.988    400.82485    16.475796    -448.4898   -432.01401    3085.7485   -4154.2529   -6879.1145    20290.613    15.686693    13.585063     25.26239    5383.5342 
  186500      186.488    394.51342    16.216366   -448.20445   -431.98808    4279.4458   -5414.9914   -3189.6271    21442.956    15.686695    13.585065    25.262373    5383.5321 
  187000      186.988    411.40228    16.910578   -448.87239   -431.96181    4599.2993   -6014.8409    -4573.448    24386.187    15.686698    13.585067    25.262355      5383.53 
  187500      187.488    423.49613    17.407693   -449.34269     -431.935    3792.5715   -8612.2362   -3364.6625    23354.613      15.6867    13.585069    25.262338    5383.5279 
  188000      187.988    389.09898    15.993807   -447.90131    -431.9075    3502.3587   -7230.5043   -4413.2625    22150.843    15.686702    13.585071     25.26232    5383.5258 
  188500      188.488    395.10747    16.240784   -448.12163   -431.88084    2942.5365   -9194.7233   -7623.8026    25646.135    15.686705    13.585073    25.262303    5383.5237 
  189000      188.988    414.02394    17.018341   -448.87522   -431.85688    3103.4798   -4765.9859   -8314.6842     22391.11    15.686707    13.585075    25.262285    5383.5216 
  189500      189.488    392.12783    16.118307    -447.9482   -431.82989     4302.667   -817.78851   -7441.6166    21167.406     15.68671    13.585077    25.262268    5383.5195 
  190000      189.988     399.3943    16.416993   -448.21995   -431.80296     3708.745   -7061.1892   -4255.5708    22442.995    15.686712    13.585079     25.26225    5383.5174 
  190500      190.488    393.66996    16.181696     -447.958    -431.7763    3930.9859   -2553.0551    -3833.726    18179.739    15.686714    13.585081    25.262233    5383.5153 
  191000      190.988    390.31231     16.04368   -447.79363   -431.74995    5157.1032   -3144.8815   -4351.8126    22968.004    15.686717    13.585083    25.262215    5383.5133 
  191500      191.488    418.72018    17.211378    -448.9352   -431.72383    4481.1352   -5380.4146   -6248.2897     25072.11    15.686719    13.585085    25.262198    5383.5112 
  192000      191.988    402.26671    16.535063   -448.23337   -431.69831     4406.797   -717.85703   -8063.5876    22001.836    15.686722    13.585087     25.26218    5383.5091 
  192500      192.488    409.13003    16.817178   -448.48825   -431.67107    3548.4283   -5214.0589   -2792.4714    18651.815    15.686724    13.585089    25.262163     5383.507 
  193000      192.988    417.29743    17.152896   -448.79836   -431.64546    3047.3581   -6811.8181   -6501.2141    22455.107    15.686726    13.585091    25.262145    5383.5049 
  193500      193.488    422.89461    17.382967    -449.0008   -431.61784     4176.237    -7047.871   -2454.9095    22031.492    15.686729    13.585093    25.262128    5383.5028 
  194000      193.988     406.6293    16.714386   -448.30479   -431.59041    3558.3645   -4107.0316   -5929.4266    20711.552    15.686731    13.585095     25.26211    5383.5007 
  194500      194.488    413.81027    17.009558   -448.57394   -431.56439    4168.9261   -1240.8766   -8602.4663    22350.121    15.686734    13.585097    25.262093    5383.4986 
  195000      194.988    438.77651    18.035788   -449.57487   -431.53908    3285.0843   -5436.8333   -6359.4761    21651.562    15.686736    13.585099    25.262075    5383.4965 
  195500      195.488     424.1261    17.433587   -448.94518   -431.51159    4176.6545   -2465.3092   -6239.6063    21234.879    15.686738    13.585102    25.262058    5383.4944 
  196000      195.988     400.7108    16.471108   -447.95568   -431.48457    4810.7008   -6690.1664   -4070.8779    25193.147    15.686741    13.585104     25.26204    5383.4923 
  196500      196.488    418.16163    17.188419   -448.64697   -431.45855    2824.0917   -5428.0382   -7787.5144    21687.828    15.686743    13.585106    25.262023    5383.4902 
  197000      196.988    430.59955    17.699677   -449.13124   -431.43156    4774.7389   -2856.4839   -4311.9351    21492.636    15.686746    13.585108    25.262005    5383.4881 
  197500      197.488    424.66727    17.455832   -448.85979   -431.40396    4104.6687   -3601.0166   -7587.2153    23502.238    15.686748     13.58511    25.261988     5383.486 
  198000      197.988    392.29225    16.125065   -447.50177    -431.3767    4129.7655   -5763.2971   -3192.3474    21344.941     15.68675    13.585112     25.26197    5383.4839 
  198500      198.488    408.89653     16.80758   -448.15736   -431.34978     5281.007   -3180.2628   -4248.6155    23271.899    15.686753    13.585114    25.261953    5383.4819 
  199000      198.988    423.68878    17.415611   -448.73908   -431.32347     3851.283   -6229.2702   -7037.5341    24820.653    15.686755    13.585116    25.261935    5383.4798 
  199500      199.488    420.84054    17.298535    -448.5964   -431.29787    4280.9132    -6245.537   -3415.5601    22503.837    15.686758    13.585118    25.261918    5383.4777 
  200000      199.988    412.05258    16.937308   -448.20738   -431.27007    4687.1873    -4151.964   -5290.0108    23503.537     15.68676     13.58512      25.2619    5383.4756 
  200500      200.488    408.89743    16.807617   -448.05096   -431.24334    4902.6987   -8188.4156   -2643.3537    25539.865    15.686762    13.585122    25.261883    5383.4735 
  201000      200.988    414.27581    17.028694   -448.24443   -431.21574    4210.6821   -4321.6411   -4818.1922     21771.88    15.686765    13.585124    25.261865    5383.4714 
  201500      201.488    395.42852    16.253981   -447.44321   -431.18923    4961.3234    -5113.725   -2872.5275    22870.223    15.686767    13.585126    25.261848    5383.4693 
  202000      201.988     385.7817    15.857451   -447.01813   -431.16068    5104.4577   -3348.4954   -3767.5374    22429.406     15.68677    13.585128     25.26183    5383.4672 
  202500      202.488    408.66503    16.798064   -447.93246    -431.1344    3802.9958   -5919.2448   -4386.5344    21714.767    15.686772     13.58513    25.261813    5383.4651 
  203000      202.988    417.84574    17.175435   -448.28347   -431.10803    4105.3039   -5868.1853     -4842.19    23026.287    15.686774    13.585132    25.261795     5383.463 
  203500      203.488    418.88223    17.218039   -448.29855   -431.08051     4489.365   -4785.7346   -5746.0803     23999.91    15.686777    13.585134    25.261778    5383.4609 
  204000      203.988    406.10054    16.692651   -447.74616   -431.05351    3905.1352   -8489.5435    -3472.383    23677.332    15.686779    13.585136     25.26176    5383.4588 
  204500      204.488    415.04021    17.060114   -448.08653   -431.02642    4469.6233   -3393.5782   -4924.6052    21727.053    15.686782    13.585138    25.261743    5383.4567 
  205000      204.988     425.0142    17.470092   -448.47057   -431.00048    3208.4761   -6240.8076   -8795.4516    24661.687    15.686784     13.58514    25.261725    5383.4546 
  205500      205.488    399.72625    16.430638   -447.40297   -430.97233    4996.2605   -6564.3884   -4063.1702     25616.34    15.686786    13.585143    25.261708    5383.4525 
  206000      205.988    432.69879    17.785965   -448.73199   -430.94602    3955.2637   -8430.9824   -5122.7997    25419.573    15.686789    13.585145     25.26169    5383.4505 
  206500      206.488    427.05818    17.554109   -448.47333   -430.91922     4351.649    -540.1916   -8932.6722    22527.811    15.686791    13.585147    25.261673    5383.4484 
  207000      206.988    429.57299     17.65748   -448.54928    -430.8918    4560.3473   -6398.9374   -4116.9634    24196.943    15.686794    13.585149    25.261655    5383.4463 
  207500      207.488    417.52021    17.162054   -448.02717   -430.86511    4092.1877   -3189.3002   -5090.8716    20556.735    15.686796    13.585151    25.261638    5383.4442 
  208000      207.988    415.91218    17.095956   -447.93362   -430.83767     4560.207   -7562.1978     -1705.07    22947.889    15.686798    13.585153     25.26162    5383.4421 
  208500      208.488    412.49544    16.955512   -447.76461   -430.80909    4370.3924   -6989.1499   -3663.1101    23763.437    15.686801    13.585155    25.261603      5383.44 
  209000      208.988    426.41056    17.527489    -448.3094   -430.78192    4705.0376   -7185.9855   -1895.9362    23197.035    15.686803    13.585157    25.261585    5383.4379 
  209500      209.488    393.43584    16.172072   -446.92668    -430.7546    3006.8057   -6845.3138   -5631.1771    21496.908    15.686806    13.585159    25.261568    5383.4358 
  210000      209.988    400.78493    16.474155   -447.20253   -430.72838    5432.3767   -8341.2344   -2647.1857     27285.55    15.686808    13.585161     25.26155    5383.4337 
  210500      210.488    431.58025    17.739988   -448.44136   -430.70138    5200.0111   -3714.4953   -5290.1965    24604.725     15.68681    13.585163    25.261533    5383.4316 
  211000      210.988    406.88246    16.724792   -447.39746   -430.67267    4205.1932   -7833.3284   -4640.5693    25089.477    15.686813    13.585165    25.261515    5383.4295 
  211500      211.488    407.36977    16.744823   -447.39027   -430.64545    4299.3693   -4271.2563   -6031.2809    23200.645    15.686815    13.585167    25.261498    5383.4274 
  212000      211.988    413.95851    17.015651   -447.63294   -430.61729    4253.1354   -5652.8966   -7799.4217    26211.725    15.686818    13.585169     25.26148    5383.4253 
[...]
  948500      948.488    573.30345    23.565481   -442.13191   -418.56643    9698.4631   -586.69755    308.34626    29373.741    15.690353    13.588189    25.235703    5380.3396 
  949000      948.988    574.87969    23.630272   -442.19327   -418.56299     9810.376   -1780.2392   -1386.7574    32598.125    15.690355    13.588191    25.235685    5380.3375 
  949500      949.488    581.67056    23.909409   -442.47042   -418.56101    10147.166    1253.6874    2439.6803     26748.13    15.690358    13.588193    25.235668    5380.3354 
  950000      949.988    580.18413     23.84831   -442.40654   -418.55823    11026.685   -2648.3161    3767.0458    31961.324     15.69036    13.588195     25.23565    5380.3333 
  950500      950.488    551.14489     22.65466   -441.20898   -418.55432     9628.399   -3774.9075    4315.4903    28344.614    15.690362    13.588197    25.235633    5380.3312 
  951000      950.988     590.3244    24.265123   -442.81931   -418.55419     10741.42   -818.42775   -439.57183    33482.259    15.690365    13.588199    25.235615    5380.3291 
  951500      951.488    558.35081    22.950857   -441.50194   -418.55108    9710.2565    201.71974   -2628.9074    31557.957    15.690367    13.588201    25.235598     5380.327 
  952000      951.988     592.9887    24.374638   -442.92241   -418.54777    10557.477   -3608.3913    1084.5155    34196.306     15.69037    13.588203     25.23558    5380.3249 
  952500      952.488    547.04602    22.486177   -441.03153   -418.54535    9118.8076   -4840.3641    1666.1868      30530.6    15.690372    13.588205    25.235563    5380.3228 
  953000      952.988    569.81372    23.422037   -441.96685   -418.54481     10543.04     2586.083   -1043.5309    30086.567    15.690374    13.588207    25.235545    5380.3207 
  953500      953.488     543.5186    22.341183   -440.88225   -418.54106    9836.6126   -2906.8384   -1710.2471    34126.923    15.690377    13.588209    25.235528    5380.3186 
  954000      953.988    580.67665    23.868555   -442.40806   -418.53951    8241.5842   -1815.2993    1102.7059    25437.346    15.690379    13.588211     25.23551    5380.3165 
  954500      954.488    586.87053    24.123153   -442.66147   -418.53832    9795.9275    2263.7447   -317.92794    27441.966    15.690382    13.588213    25.235493    5380.3144 
  955000      954.988    569.75016    23.419424   -441.95363   -418.53421    9785.7174    1887.5712    -238.6294     27708.21    15.690384    13.588215    25.235475    5380.3123 
  955500      955.488    558.00506    22.936645   -441.46815   -418.53151    11513.374    -1149.298    2374.7919    33314.627    15.690386    13.588218    25.235458    5380.3102 
  956000      955.988    549.37676    22.581981   -441.10793   -418.52595     9572.603   -3015.9603    3255.9167    28477.852    15.690389     13.58822     25.23544    5380.3081 
  956500      956.488    573.41615    23.570114   -442.09475   -418.52464    9307.2317   -287.36564   -1226.2754    29435.336    15.690391    13.588222    25.235423     5380.306 
  957000      956.988    560.96737     23.05841   -441.57814   -418.51973    7358.3608   -2528.8348   -2396.6361    27000.553    15.690394    13.588224    25.235405    5380.3039 
  957500      957.488     597.2106    24.548178   -443.06497   -418.51679    9924.0134    444.43946    1409.9784    27917.623    15.690396    13.588226    25.235388    5380.3018 
  958000      957.988     544.1603     22.36756   -440.87948   -418.51192    8052.3242    1197.6538   -2734.9253    25694.244    15.690398    13.588228     25.23537    5380.2997 
  958500      958.488    581.82116    23.915599   -442.42582   -418.51022    9527.7924     2687.048   -964.23739    26860.567    15.690401     13.58823    25.235353    5380.2976 
  959000      958.988    568.38768     23.36342   -441.86862    -418.5052    10027.421    560.89219   -2354.6197    31875.991    15.690403    13.588232    25.235335    5380.2955 
  959500      959.488     572.1875    23.519611   -442.02199   -418.50238    10324.698    965.90144    -368.5383    30376.732    15.690406    13.588234    25.235318    5380.2934 
  960000      959.988    545.23725    22.411828   -440.91089   -418.49906     9319.287   -1395.7326    4394.8359    24958.758    15.690408    13.588236      25.2353    5380.2914 
  960500      960.488    571.37673    23.486284   -441.98204   -418.49576    10926.052    1167.6291    1807.6292    29802.899     15.69041    13.588238    25.235283    5380.2893 
  961000      960.988    566.55483    23.288081   -441.78187   -418.49378    10383.322   -2298.0692    4491.1425    28956.891    15.690413     13.58824    25.235265    5380.2872 
  961500      961.488    579.99591    23.840573   -442.33127    -418.4907    9657.6915    1260.5649   -4335.5093    32048.019    15.690415    13.588242    25.235248    5380.2851 
  962000      961.988    579.80105    23.832563    -442.3212   -418.48864    9069.3157   -4238.3601   -263.38915    31709.696    15.690418    13.588244     25.23523     5380.283 
  962500      962.488    600.27367    24.674085   -443.15881   -418.48473      10050.9   -3176.7514   -409.77201    33739.223     15.69042    13.588246    25.235213    5380.2809 
  963000      962.988     633.7737    26.051094   -444.53331   -418.48222    9357.4623    1605.3873   -2820.1721    29287.172    15.690422    13.588248    25.235195    5380.2788 
  963500      963.488    581.60983    23.906913   -442.38352   -418.47661    9770.3365     75.14989    562.24856    28673.611    15.690425     13.58825    25.235178    5380.2767 
  964000      963.988    549.78647    22.598822   -441.07086   -418.47204    9447.0409   -3448.7993    1990.4501    29799.472    15.690427    13.588252     25.23516    5380.2746 
  964500      964.488    610.81823    25.107516   -443.57806   -418.47054    9981.8988   -191.73228    1726.5859    28410.843     15.69043    13.588254    25.235143    5380.2725 
  965000      964.988     533.9965     21.94978   -440.41509   -418.46531    9710.6408   -2571.1925    1623.3371    30079.778    15.690432    13.588256    25.235125    5380.2704 
  965500      965.488     548.1501     22.53156   -440.99589   -418.46433    9338.8142   -2205.0888   -156.47956    30378.011    15.690434    13.588259    25.235108    5380.2683 
  966000      965.988    546.77593    22.475075   -440.93513   -418.46005    9615.2994    2012.8772    3193.2892    23639.732    15.690437    13.588261     25.23509    5380.2662 
  966500      966.488    577.44126    23.735565   -442.18947   -418.45391    9295.6738     2816.525    -2201.975    27272.471    15.690439    13.588263    25.235073    5380.2641 
  967000      966.988    568.67152    23.375087   -441.82642   -418.45133    12096.976    5361.4624      1458.98    29470.487    15.690442    13.588265    25.235055     5380.262 
  967500      967.488    559.27672    22.988916   -441.43728   -418.44836     10292.49    272.78903    1712.5949    28892.085    15.690444    13.588267    25.235038    5380.2599 
  968000      967.988    597.68702    24.567761   -443.01076     -418.443    11413.412    610.19399   -1250.0973    34880.138    15.690446    13.588269     25.23502    5380.2578 
  968500      968.488    573.95219    23.592148   -442.03212   -418.43998    10217.601    779.37637   -318.42346    30191.851    15.690449    13.588271    25.235003    5380.2557 
  969000      968.988     569.3181    23.401665   -441.83744   -418.43577    8963.4267   -2509.2596    1875.4903     27524.05    15.690451    13.588273    25.234985    5380.2536 
  969500      969.488    551.30618     22.66129   -441.09102   -418.42973    10897.204   -322.10105    934.26123    32079.451    15.690454    13.588275    25.234968    5380.2515 
  970000      969.988    590.15951    24.258345   -442.68348   -418.42514    9982.3222   -2424.1499    1927.8396    30443.277    15.690456    13.588277     25.23495    5380.2494 
  970500      970.488    601.15866    24.710462   -443.13173   -418.42127    10301.985   -1755.9801   -895.10928    33557.046    15.690458    13.588279    25.234933    5380.2473 
  971000      970.988    574.03166    23.595414   -442.01173   -418.41632    10522.399     1216.893   -1469.8751     31820.18    15.690461    13.588281    25.234915    5380.2452 
  971500      971.488    610.20147    25.082164   -443.49436   -418.41219    9660.8357   -1884.0162    329.23739    30537.286    15.690463    13.588283    25.234898    5380.2431 
  972000      971.988    555.18125    22.820573   -441.22571   -418.40514    11299.479    359.65092    2699.4241    30839.362    15.690466    13.588285     25.23488     5380.241 
  972500      972.488    575.09827    23.639257   -442.04347   -418.40421    10537.347   -567.78982    2829.9711    29349.859    15.690468    13.588287    25.234863    5380.2389 
  973000      972.988    569.97274    23.428573   -441.82967   -418.40109    9370.5999   -1677.8202   -1093.9923    30883.612     15.69047    13.588289    25.234845    5380.2368 
  973500      973.488    584.89282    24.041859   -442.43827   -418.39642    9136.8952   -3413.7944   -2232.1331    33056.613    15.690473    13.588291    25.234828    5380.2347 
  974000      973.988    541.90257    22.274757    -440.6664   -418.39164    12163.241    966.35483    317.49097    35205.876    15.690475    13.588293     25.23481    5380.2326 
  974500      974.488    579.33474    23.813396   -442.20056   -418.38716    10243.885    1161.6194     2495.807    27074.228    15.690478    13.588295    25.234793    5380.2306 
  975000      974.988    555.81484    22.846617   -441.22844   -418.38182    10401.894   -495.10847   -242.46369    31943.253     15.69048    13.588297    25.234775    5380.2285 
  975500      975.488    581.65089    23.908601   -442.28484   -418.37624    9517.9496   -307.53145   -473.83785    29335.218    15.690482      13.5883    25.234758    5380.2264 
  976000      975.988    553.72524    22.760724   -441.13198   -418.37125     10158.43   -1148.5217    1027.1879    30596.624    15.690485    13.588302     25.23474    5380.2243 
  976500      976.488    579.45718    23.818429   -442.18743   -418.36901    9056.4638    1750.5399   -3087.7767    28506.628    15.690487    13.588304    25.234723    5380.2222 
  977000      976.988    553.20206    22.739219   -441.09987   -418.36065    8861.6709    2024.5862   -5253.0494    29813.476     15.69049    13.588306    25.234705    5380.2201 
  977500      977.488    557.55401    22.918105   -441.27684   -418.35874    9828.3345    1804.6258   -812.41658    28492.794    15.690492    13.588308    25.234688     5380.218 
  978000      977.988    556.80347    22.887254   -441.24018   -418.35293    9640.6937    -2002.718   -2809.5475    33734.346    15.690494     13.58831     25.23467    5380.2159 
  978500      978.488    590.29486    24.263909   -442.61133   -418.34742    9916.7325    92.680912   -55.967809    29713.485    15.690497    13.588312    25.234653    5380.2138 
  979000      978.988    573.15375    23.559328   -441.89946   -418.34014    10445.021    1898.5764    -21.37428    29457.861    15.690499    13.588314    25.234635    5380.2117 
  979500      979.488    566.05961    23.267725   -441.60175   -418.33403     8516.739   -2966.9846    -576.5316    29093.733    15.690502    13.588316    25.234618    5380.2096 
  980000      979.988    586.80227    24.120347   -442.44795   -418.32761     9612.941    1148.3988   -1144.3615    28834.786    15.690504    13.588318      25.2346    5380.2075 
  980500      980.488      566.052    23.267412   -441.58929   -418.32188    9842.4192   -1798.8769    1740.7131    29585.421    15.690506     13.58832    25.234583    5380.2054 
  981000      980.988     559.3064    22.990136   -441.30427   -418.31413    10334.725    209.39837    1485.2458    29309.532    15.690509    13.588322    25.234565    5380.2033 
  981500      981.488    561.21276    23.068497   -441.37811   -418.30962     11033.88    1938.5756    505.79015    30657.275    15.690511    13.588324    25.234548    5380.2012 
  982000      981.988    585.97048    24.086156   -442.39005    -418.3039     9995.927   -2509.9855    1907.1662      30590.6    15.690514    13.588326     25.23453    5380.1991 
  982500      982.488     557.5352    22.917332   -441.21564   -418.29831    11395.082    5730.0745   -2041.1378     30496.31    15.690516    13.588328    25.234513     5380.197 
  983000      982.988    577.43009    23.735106   -442.02785   -418.29274    8450.6748    2914.0338   -2958.0406    25396.031    15.690518     13.58833    25.234495    5380.1949 
  983500      983.488    554.01823    22.772768   -441.05746   -418.28469     10007.07    494.19511    376.85677    29150.159    15.690521    13.588332    25.234478    5380.1928 
  984000      983.988    587.29445    24.140578   -442.41849   -418.27792    9716.4417   -178.61369   -384.82493    29712.764    15.690523    13.588334     25.23446    5380.1907 
  984500      984.488    573.25892    23.563651   -441.83418   -418.27053     9814.871   -898.76523   -3837.3191    34180.697    15.690526    13.588336    25.234443    5380.1886 
  985000      984.988    586.02464    24.088382   -442.35274   -418.26436    10291.436    410.88429   -5045.2824    35508.707    15.690528    13.588338    25.234425    5380.1865 
  985500      985.488    567.48915    23.326486   -441.58698   -418.26049    10300.133     982.9054    -2439.971    32357.464     15.69053    13.588341    25.234408    5380.1844 
  986000      985.988    588.42149    24.186904   -442.43671   -418.24981    11242.057   -1618.0834   -100.00701     35444.26    15.690533    13.588343     25.23439    5380.1823 
  986500      986.488    577.62913    23.743287   -441.98922   -418.24593    10096.352    2267.9142    1949.0011    26072.142    15.690535    13.588345    25.234373    5380.1802 
  987000      986.988    557.25367     22.90576   -441.14506    -418.2393    10746.086   -1958.7666     394.2661    33802.759    15.690538    13.588347    25.234355    5380.1781 
  987500      987.488     591.5474    24.315394   -442.54993   -418.23453    11245.731   -569.87203    310.72128    33996.345     15.69054    13.588349    25.234338     5380.176 
  988000      987.988    560.53141     23.04049   -441.26653   -418.22604    9399.2221   -224.96949   -3887.4049    32310.041    15.690542    13.588351     25.23432    5380.1739 
  988500      988.488    582.90742     23.96025   -442.17885    -418.2186    9883.5693   -3104.6961   -1542.1176    34297.522    15.690545    13.588353    25.234303    5380.1719 
  989000      988.988    584.20177    24.013454    -442.2227   -418.20924    7827.5875   -1444.7725    73.926931    24853.608    15.690547    13.588355    25.234285    5380.1698 
  989500      989.488     561.9106    23.097181   -441.29816   -418.20098    10467.114    -3171.745   -108.90617    34681.995     15.69055    13.588357    25.234268    5380.1677 
  990000      989.988    584.55943    24.028155   -442.22253   -418.19438    9258.2608   -4879.9296   -2603.7671    35258.479    15.690552    13.588359     25.23425    5380.1656 
  990500      990.488    585.66532    24.073613   -442.26319   -418.18958    10679.598   -353.53594   -844.71874    33237.048    15.690554    13.588361    25.234233    5380.1635 
  991000      990.988    589.23505    24.220345   -442.40064    -418.1803    10191.935   -2706.1602    1817.8881    31464.077    15.690557    13.588363    25.234215    5380.1614 
  991500      991.488    571.86255    23.506254   -441.68067   -418.17441    11695.026    4450.2858   -2257.4054    32892.197    15.690559    13.588365    25.234198    5380.1593 
  992000      991.988    586.53284    24.109272   -442.27687   -418.16759    9411.8853    -669.3253   -634.39147    29539.373    15.690562    13.588367     25.23418    5380.1572 
  992500      992.488    582.45139    23.941505   -442.10218   -418.16067    11433.371    2835.6453    4672.2499    26792.216    15.690564    13.588369    25.234163    5380.1551 
  993000      992.988    601.54162    24.726204   -442.88186   -418.15566    9349.2036   -2083.7831    515.50768    29615.886    15.690566    13.588371    25.234145     5380.153 
  993500      993.488    556.64355    22.880681   -441.02833   -418.14765    9508.9228    -2786.471   -349.89101    31663.131    15.690569    13.588373    25.234128    5380.1509 
  994000      993.988    585.04873    24.048268   -442.18674   -418.13848    9258.1073   -3321.8692   -775.87253    31872.063    15.690571    13.588375     25.23411    5380.1488 
  994500      994.488    542.14369    22.284668   -440.41524   -418.13057    10437.693    1635.5209    1554.4077     28123.15    15.690574    13.588377    25.234093    5380.1467 
  995000      994.988    546.67711    22.471013   -440.59534   -418.12432    9831.7071   -25.515514   -3122.3195    32642.956    15.690576    13.588379    25.234075    5380.1446 
  995500      995.488    583.73782    23.994383   -442.11031   -418.11593    10349.496    2271.1791   -912.00917    29689.319    15.690578    13.588382    25.234058    5380.1425 
  996000      995.988    596.12698    24.503636   -442.61126   -418.10762    9396.3166   -2666.9652    6487.4616    24368.454    15.690581    13.588384     25.23404    5380.1404 
  996500      996.488     560.3785    23.034205   -441.13407   -418.09987    10759.567    2297.2495   -975.02813    30956.479    15.690583    13.588386    25.234023    5380.1383 
  997000      996.988    554.41329    22.789006   -440.88163   -418.09262    9613.1347   -1314.7317    1444.0309    28710.105    15.690586    13.588388    25.234005    5380.1362 
  997500      997.488    559.78706    23.009894   -441.09584   -418.08595    10590.342   -630.28712    1767.5709    30633.742    15.690588     13.58839    25.233988    5380.1341 
  998000      997.988     574.7067    23.623161   -441.70112   -418.07796     7800.356   -2220.4505    1105.1021    24516.416     15.69059    13.588392     25.23397     5380.132 
  998500      998.488    572.01464    23.512505   -441.58221    -418.0697    10905.988   -1921.0547    1014.8443    33624.175    15.690593    13.588394    25.233953    5380.1299 
  999000      998.988    579.14218    23.805481   -441.86735   -418.06186    9066.0037    1821.6794   -1090.1376    26466.469    15.690595    13.588396    25.233935    5380.1278 
  999500      999.488    572.42503    23.529374   -441.58553   -418.05616    10569.368     111.3592    579.11988    31017.623    15.690598    13.588398    25.233918    5380.1257 
 1000000      999.988    565.82055    23.257899   -441.30399   -418.04609    10186.371    210.88691   -666.51696    31014.745      15.6906      13.5884      25.2339    5380.1236 
 1000012         1000    561.64432    23.086236   -441.13237   -418.04614    9774.3641   -1514.4013    1927.6531     28909.84      15.6906      13.5884      25.2339    5380.1236 
Loop time of 998.997 on 28 procs for 1000000 steps with 319 atoms

Performance: 86.487 ns/day, 0.277 hours/ns, 1001.004 timesteps/s
87.5% CPU use with 28 MPI tasks x no OpenMP threads

MPI task timing breakdown:
Section |  min time  |  avg time  |  max time  |%varavg| %total
---------------------------------------------------------------
Pair    | 780.22     | 846.71     | 929.78     | 114.2 | 84.76
Neigh   | 0.017661   | 0.03054    | 0.039655   |   4.0 |  0.00
Comm    | 58.369     | 140.7      | 204.98     | 273.8 | 14.08
Output  | 0.10047    | 0.10281    | 0.12517    |   1.4 |  0.01
Modify  | 4.4926     | 6.2606     | 8.4157     |  41.8 |  0.63
Other   |            | 5.195      |            |       |  0.52

Nlocal:    11.3929 ave 15 max 5 min
Histogram: 1 0 4 2 2 0 2 4 4 9
Nghost:    691.143 ave 744 max 657 min
Histogram: 5 4 4 4 1 4 1 1 2 2
Neighs:    736.429 ave 1025 max 321 min
Histogram: 1 3 3 2 0 2 4 4 7 2
FullNghs:  1472.86 ave 1965 max 632 min
Histogram: 1 4 2 2 0 2 4 3 5 5

Total # of neighbors = 41240
Ave neighs/atom = 129.279
Neighbor list builds = 441
Dangerous builds = 0

write_restart   POSCAR_1x1x1.rest

#unfix    1
#undump   1
Total wall time: 0:16:39
