LAMMPS (7 Dec 2015)
#----------- Initialize Simulation ------------ restart01
#processors	2 2 2
units		metal
boundary	p p p     ## periodic boundary condition  on x y z axis ##
atom_style atomic
#atom_modify map array sort 0 0.0

read_data	POSCAR_1x1x1.lammps
  triclinic box = (0 0 0) to (15.6335 13.539 25.6538) with tilt (-7.81665 0 0)
  2 by 2 by 7 MPI processor grid
  reading atoms ...
  319 atoms

#----------- Define Potential -----------------
pair_style meam
pair_coeff * * MgAlZn.library.meam Mg Al Zn MgAlZn.parameter.meam Mg Al Zn 	#1=Mg 2=Al 3=Zn	#atoms/mass

#----------- Neighbor List --------------------
neighbor 2.0 bin
neigh_modify delay 10 check yes

#--------------  Run a simulation (minimization) ---------------------------------------
minimize       1.0e-4   1.0e-6   100   1000          #結構優化的條件
WARNING: Resetting reneighboring criteria during minimization (../min.cpp:168)
Neighbor list info ...
  2 neighbor list requests
  update every 1 steps, delay 0 steps, check yes
  max neighbors/atom: 2000, page size: 100000
  master list distance cutoff = 8
  ghost atom cutoff = 8
  binsize = 4 -> bins = 6 4 7
Memory usage per processor = 8.65698 Mbytes
Step Temp E_pair E_mol TotEng Press 
       0            0   -436.62355            0   -436.62355    10422.739 
      13            0   -459.89432            0   -459.89432   -7936.3146 
Loop time of 0.0225856 on 28 procs for 13 steps with 319 atoms

90.8% CPU use with 28 MPI tasks x no OpenMP threads

Minimization stats:
  Stopping criterion = energy tolerance
  Energy initial, next-to-last, final = 
        -436.623547701      -459.85947032     -459.894315306
  Force two-norm initial, final = 22.7846 0.644271
  Force max component initial, final = 5.60699 0.160604
  Final line search alpha, max atom move = 0.292238 0.0469346
  Iterations, force evaluations = 13 22

MPI task timing breakdown:
Section |  min time  |  avg time  |  max time  |%varavg| %total
---------------------------------------------------------------
Pair    | 0.017019   | 0.018704   | 0.020401   |   0.5 | 82.82
Neigh   | 0          | 0          | 0          |   0.0 |  0.00
Comm    | 0.0012887  | 0.0029662  | 0.0046004  |   1.2 | 13.13
Output  | 0          | 0          | 0          |   0.0 |  0.00
Modify  | 0          | 0          | 0          |   0.0 |  0.00
Other   |            | 0.0009149  |            |       |  4.05

Nlocal:    11.3929 ave 17 max 6 min
Histogram: 3 2 2 3 1 8 3 2 3 1
Nghost:    674.357 ave 707 max 653 min
Histogram: 4 1 6 5 2 5 3 0 0 2
Neighs:    726.929 ave 1041 max 383 min
Histogram: 3 1 1 5 1 5 6 0 4 2
FullNghs:  1453.86 ave 2161 max 750 min
Histogram: 2 3 2 3 1 8 3 2 3 1

Total # of neighbors = 40708
Ave neighs/atom = 127.611
Neighbor list builds = 0
Dangerous builds = 0
velocity all  create 600.0 4928459 #rot yes dist gaussian

#--------------  Run a simulation (Relaxation)  ----------------------------------------
fix  1  all  nvt   temp  600.0  600.0  100				#damping constant
#fix  2  all  npt   temp  393.0  393.0  50 iso 0.0 0.0 1000.0
fix  2  all deform 1 x final 0 15.6382 y final 0 13.5431 z final 0 25.6188 xy final -7.819 units lattice
#fix  3  all  npt   temp  393.0  393.0  50 z 0.0 0.0 1000.0

#variable b equal 1
#fix 2 all efield  0.0  0.0  v_b
#compute pot all pe/atom


#----------- Output --------------------------
thermo	 500
timestep  0.001		#1.0 fs
thermo_style	custom step time temp ke pe etotal press pxx pyy pzz lx ly lz vol

dump 1 all custom 10000 dump.eq id type x y z
dump_modify 1 sort  id

run        1000000	#1000 ps
Neighbor list info ...
  2 neighbor list requests
  update every 1 steps, delay 10 steps, check yes
  max neighbors/atom: 2000, page size: 100000
  master list distance cutoff = 8
  ghost atom cutoff = 8
  binsize = 4 -> bins = 6 4 7
Memory usage per processor = 7.56293 Mbytes
Step Time Temp KinEng PotEng TotEng Press Pxx Pyy Pzz Lx Ly Lz Volume 
      13            0          600    24.662836   -459.89432   -435.23148   -3084.9088    -12904.09   -10391.806     14041.17      15.6335       13.539      25.6538    5429.9335 
     500        0.487    311.20554    12.792018   -448.01784   -435.22582      4238.71    -7759.556    -7692.088    28167.774    15.633502    13.539002    25.653783    5429.9315 
    1000        0.987    334.99261    13.769779   -448.99621   -435.22643    3878.2911   -7754.8711   -7680.4582    27070.203    15.633505    13.539004    25.653765    5429.9294 
    1500        1.487    307.96654     12.65888   -447.88365   -435.22477    3621.8221   -9576.0872   -8346.7961     28788.35    15.633507    13.539006    25.653748    5429.9274 
    2000        1.987    315.24464    12.958044   -448.18194    -435.2239    3536.6164   -7793.7568   -9520.6271    27924.233    15.633509    13.539008     25.65373    5429.9253 
    2500        2.487    315.18815    12.955722   -448.17815   -435.22243    3433.6404   -10751.002   -7943.8494    28995.773    15.633512     13.53901    25.653713    5429.9232 
    3000        2.987    314.33444    12.920631   -448.14116   -435.22053    4449.5982   -7765.6134   -8311.0652    29425.473    15.633514    13.539012    25.653695    5429.9212 
    3500        3.487     308.6732    12.687927   -447.90662    -435.2187    4197.2629   -7165.7508      -4805.7    24563.239    15.633516    13.539014    25.653678    5429.9191 
    4000        3.987    324.91956    13.355729   -448.57205   -435.21632     2953.739   -11184.084   -9762.8293     29808.13    15.633519    13.539016     25.65366     5429.917 
    4500        4.487    329.09496    13.527358   -448.74135   -435.21399    4276.8516   -8751.9092   -7122.0272    28704.491    15.633521    13.539018    25.653643     5429.915 
    5000        4.987    306.34823     12.59236   -447.80308   -435.21072    4374.6545   -8162.8153   -6981.0537    28267.833    15.633523     13.53902    25.653625    5429.9129 
    5500        5.487    320.63026    13.179419   -448.38654   -435.20713    4225.3944   -8837.5016   -6564.6545    28078.339    15.633526    13.539022    25.653608    5429.9108 
    6000        5.987      329.946     13.56234   -448.76554    -435.2032    4229.8866   -6429.4341   -9074.7977    28193.892    15.633528    13.539025     25.65359    5429.9088 
    6500        6.487    320.47419    13.173004   -448.37298   -435.19997    4936.5888    -9143.791   -5635.3297    29588.887     15.63353    13.539027    25.653573    5429.9067 
    7000        6.987    321.65814     13.22167   -448.41693   -435.19526    2487.4265   -7626.3757   -8867.4135    23956.069    15.633533    13.539029    25.653555    5429.9046 
    7500        7.487     318.8222    13.105099   -448.29629   -435.19119    3476.0278   -7447.3168   -8396.9689    26272.369    15.633535    13.539031    25.653538    5429.9026 
    8000        7.987    316.74525    13.019727   -448.20619   -435.18646    2503.5316   -10507.877   -6274.3223    24292.795    15.633538    13.539033     25.65352    5429.9005 
    8500        8.487    328.02117     13.48322   -448.66517   -435.18195    3499.4125   -10030.018   -5573.6754    26101.931     15.63354    13.539035    25.653503    5429.8984 
    9000        8.987    314.43682    12.924839   -448.10105   -435.17621    3488.3524   -8633.6541   -9618.3573    28717.069    15.633542    13.539037    25.653485    5429.8964 
    9500        9.487    324.59483    13.342382   -448.51352   -435.17114    4177.4528   -7740.1534   -8699.1352    28971.647    15.633545    13.539039    25.653468    5429.8943 
   10000        9.987    304.75368    12.526816   -447.69116   -435.16434    4663.5188   -6498.0382   -6012.0542    26500.649    15.633547    13.539041     25.65345    5429.8922 
   10500       10.487    327.08935    13.444918   -448.60344   -435.15852    3737.4386   -8884.8004   -7932.4681    28029.584    15.633549    13.539043    25.653433    5429.8902 
   11000       10.987    332.26985    13.657861    -448.8099   -435.15204    4754.1119   -6429.7578   -6630.2777    27322.371    15.633552    13.539045    25.653415    5429.8881 
   11500       11.487    322.70347    13.264638    -448.4089   -435.14427     4232.832   -7379.2181   -9275.7059     29353.42    15.633554    13.539047    25.653398     5429.886 
   12000       11.987     313.8005    12.898684   -448.03608    -435.1374    3314.1176   -10295.865   -5777.8879    26016.106    15.633556    13.539049     25.65338     5429.884 
   12500       12.487    321.46789     13.21385    -448.3432   -435.12935    4287.4813   -9557.1044   -7236.8083    29656.357    15.633559    13.539051    25.653363    5429.8819 
   13000       12.987    329.95616    13.562758   -448.68406    -435.1213    3925.0428    -7578.248   -7259.3612    26612.738    15.633561    13.539053    25.653345    5429.8798 
   13500       13.487    340.70571    14.004615   -449.11835   -435.11373    2887.3956   -9013.1215   -8280.8395    25956.148    15.633563    13.539055    25.653328    5429.8778 
   14000       13.987    325.10846    13.363494   -448.46865   -435.10515    3783.6573   -9686.1441   -5796.2198    26833.336    15.633566    13.539057     25.65331    5429.8757 
   14500       14.487     317.7439    13.060776   -448.15686   -435.09609    3215.0643   -10198.371   -8587.7956    28431.359    15.633568    13.539059    25.653293    5429.8736 
   15000       14.987     306.7854     12.61033   -447.69724   -435.08691    3882.4809   -5141.1685   -7215.4909    24004.102     15.63357    13.539061    25.653275    5429.8716 
   15500       15.487    308.19318    12.668196   -447.74546   -435.07726    4402.4614    -8537.434     -8829.02    30573.838    15.633573    13.539063    25.653258    5429.8695 
   16000       15.987    317.80981    13.063485    -448.1299   -435.06641    4181.5544   -8671.2265   -9027.8259    30243.716    15.633575    13.539066     25.65324    5429.8675 
   16500       16.487    319.55669     13.13529   -448.19239    -435.0571    3783.8718    -9967.922   -8100.1722     29419.71    15.633577    13.539068    25.653223    5429.8654 
   17000       16.987    315.11387    12.952669   -447.99852   -435.04585    2890.9458   -7091.8666   -8797.3202    24562.024     15.63358     13.53907    25.653205    5429.8633 
   17500       17.487    335.91805    13.807819   -448.84383   -435.03601    3773.8509   -9885.4747    -4663.352    25870.379    15.633582    13.539072    25.653188    5429.8613 
   18000       17.987    341.22397    14.025918   -449.05039   -435.02448    3186.5293   -8817.4446   -7803.4039    26180.436    15.633585    13.539074     25.65317    5429.8592 
   18500       18.487    337.50073    13.872875   -448.88664   -435.01377    3179.9012   -7292.3649   -8039.0413     24871.11    15.633587    13.539076    25.653153    5429.8571 
   19000       18.987    316.38976    13.005114   -448.00658   -435.00146      3503.16   -8667.2459   -6751.2644     25927.99    15.633589    13.539078    25.653135    5429.8551 
   19500       19.487     322.7798    13.267775   -448.25753   -434.98976    4181.0167   -10750.651   -4562.8276    27856.529    15.633592     13.53908    25.653118     5429.853 
   20000       19.987    330.71256    13.593849   -448.57166   -434.97781    4942.7171    -8417.317   -6273.1422     29518.61    15.633594    13.539082      25.6531    5429.8509 
   20500       20.487    336.54292    13.833504    -448.7994    -434.9659    3438.8659   -9277.3149   -6153.6892    25747.602    15.633596    13.539084    25.653083    5429.8489 
   21000       20.987    332.88794    13.683268   -448.63612   -434.95285    4609.1238   -7611.8261   -7049.2409    28488.438    15.633599    13.539086    25.653065    5429.8468 
   21500       21.487    307.50348    12.639846   -447.57992   -434.94007     3158.424   -8963.7015   -7592.7668     26031.74    15.633601    13.539088    25.653048    5429.8447 
   22000       21.987    312.25755    12.835261   -447.76173   -434.92647    4949.9841   -7146.2507   -6226.7179    28222.921    15.633603     13.53909     25.65303    5429.8427 
   22500       22.487    319.51066    13.133398    -448.0466   -434.91321    5113.8661    -8454.653   -6025.1614    29821.413    15.633606    13.539092    25.653013    5429.8406 
   23000       22.987    332.76757     13.67832   -448.57752    -434.8992    4620.1264   -6785.4338   -5867.7871      26513.6    15.633608    13.539094    25.652995    5429.8385 
   23500       23.487    335.57624    13.793769   -448.67892   -434.88516    4042.2214   -7543.7368   -7364.6292     27035.03     15.63361    13.539096    25.652978    5429.8365 
   24000       23.987    343.11163    14.103509   -448.97539   -434.87188     4075.016    -8242.208   -5404.6656    25871.922    15.633613    13.539098     25.65296    5429.8344 
   24500       24.487    307.15134    12.625372   -447.48107    -434.8557    4931.2786   -9403.2503   -4065.5247    28262.611    15.633615      13.5391    25.652943    5429.8323 
   25000       24.987    327.89728    13.478128   -448.32002   -434.84189    4621.2724   -10778.756   -4921.5561     29564.13    15.633617    13.539102    25.652925    5429.8303 
   25500       25.487    349.02118     14.34642   -449.17351   -434.82709    4840.3007   -8157.1842   -7021.3478    29699.434     15.63362    13.539104    25.652908    5429.8282 
   26000       25.987    322.14804    13.241807   -448.05299   -434.81118    4163.2716   -8459.2537   -7612.0092    28561.078    15.633622    13.539107     25.65289    5429.8261 
   26500       26.487    322.88049    13.271914   -448.06792     -434.796    4204.7335   -10029.657   -7160.3631    29804.221    15.633624    13.539109    25.652873    5429.8241 
   27000       26.987    316.31845    13.002183   -447.78172   -434.77954    4253.4705   -8351.7859   -6672.4421    27784.639    15.633627    13.539111    25.652855     5429.822 
   27500       27.487    320.03171    13.154816   -447.91868   -434.76386    4070.7087   -6890.1688   -8523.2466    27625.541    15.633629    13.539113    25.652838    5429.8199 
   28000       27.987    318.66111    13.098478   -447.84567   -434.74719    3392.5178   -9403.1786   -6150.7138    25731.446    15.633632    13.539115     25.65282    5429.8179 
   28500       28.487       330.18    13.571958    -448.3034   -434.73144    4545.3265   -9915.2661    -7060.015    30611.261    15.633634    13.539117    25.652803    5429.8158 
   29000       28.987    329.58902    13.547666   -448.26216    -434.7145    4491.4794   -9364.3954   -8676.9041    31515.738    15.633636    13.539119    25.652785    5429.8137 
   29500       29.487    329.79043    13.555945   -448.25358   -434.69764    4018.7197   -9375.7039   -5188.1346    26619.998    15.633639    13.539121    25.652768    5429.8117 
   30000       29.987    317.39059    13.046253   -447.72712   -434.68087    4865.5667   -8994.5149    -5246.502    28837.717    15.633641    13.539123     25.65275    5429.8096 
   30500       30.487    316.68137    13.017101   -447.67982   -434.66272    3876.0039    -5215.537   -8845.1773    25688.726    15.633643    13.539125    25.652733    5429.8075 
   31000       30.987    330.05681    13.566895   -448.21228   -434.64539    3211.2148   -13211.794    -6044.872     28890.31    15.633646    13.539127    25.652715    5429.8055 
   31500       31.487     322.6747    13.263455   -447.89053   -434.62707    4440.6878   -9333.2386   -7260.4746    29915.776    15.633648    13.539129    25.652698    5429.8034 
   32000       31.987    342.14833    14.063913   -448.67377   -434.60986    4019.3511   -9824.1945   -7700.8786    29583.126     15.63365    13.539131     25.65268    5429.8013 
   32500       32.487    309.80071    12.734273   -447.32541   -434.59113    4524.6651   -10291.729   -7098.4095    30964.134    15.633653    13.539133    25.652663    5429.7993 
   33000       32.987    331.65295    13.632504    -448.2057   -434.57319    3642.2407    -10839.11   -7274.5864    29040.418    15.633655    13.539135    25.652645    5429.7972 
   33500       33.487    322.49902    13.256234   -447.81052   -434.55429    3737.7948   -6877.6996   -9569.5921    27660.676    15.633657    13.539137    25.652628    5429.7951 
   34000       33.987    315.89362    12.984721     -447.521   -434.53628    4077.7763   -7925.4696   -9639.0493    29797.848     15.63366    13.539139     25.65261    5429.7931 
   34500       34.487    329.76472    13.554888   -448.07319    -434.5183    4675.5092   -6624.8661   -9744.1838    30395.577    15.633662    13.539141    25.652593     5429.791 
   35000       34.987    334.96817    13.768775   -448.26802   -434.49925    4246.8347   -4900.6706   -10393.969    28035.143    15.633664    13.539143    25.652575    5429.7889 
   35500       35.487     337.9465    13.891198   -448.37162   -434.48042    4185.7638   -8988.1442   -5053.4671    26598.903    15.633667    13.539145    25.652558    5429.7869 
   36000       35.987    342.41411    14.074838   -448.53605   -434.46121    3877.9198   -11663.069     -6710.08    30006.908    15.633669    13.539148     25.65254    5429.7848 
   36500       36.487    315.17853    12.955327   -447.39702    -434.4417     5469.555    -6988.738    -8863.502    32260.905    15.633671     13.53915    25.652523    5429.7828 
   37000       36.987    328.60486    13.507213    -447.9299   -434.42269    4868.2165   -6480.8575   -9949.2318    31034.739    15.633674    13.539152    25.652505    5429.7807 
   37500       37.487     330.7381    13.594899   -447.99913   -434.40423    5903.7354   -8561.6162   -6530.7271    32803.549    15.633676    13.539154    25.652488    5429.7786 
   38000       37.987     316.2309    12.998585   -447.38242   -434.38384    5081.6523   -9520.7829   -8026.8832    32792.623    15.633679    13.539156     25.65247    5429.7766 
   38500       38.487    313.65443    12.892679   -447.25712   -434.36444    4990.4776   -9035.5069   -8039.7266    32046.666    15.633681    13.539158    25.652453    5429.7745 
   39000       38.987    323.75417    13.307826   -447.65307   -434.34524    5882.7402   -5753.0869   -9674.1513    33075.459    15.633683     13.53916    25.652435    5429.7724 
   39500       39.487    320.35186    13.167976   -447.49354   -434.32557    4976.1453   -7217.9458   -6795.0259    28941.408    15.633686    13.539162    25.652418    5429.7704 
   40000       39.987    333.17552    13.695088   -448.00289    -434.3078    3364.7779   -9016.3998   -7199.4852    26310.219    15.633688    13.539164      25.6524    5429.7683 
   40500       40.487    321.33353    13.208327   -447.49616   -434.28783    3873.4527   -8249.7947   -5056.1662    24926.319     15.63369    13.539166    25.652383    5429.7662 
   41000       40.987     334.7407    13.759425   -448.02917   -434.26974    4803.6677   -9777.7632   -7804.8451    31993.611    15.633693    13.539168    25.652365    5429.7642 
   41500       41.487    329.26053    13.534164   -447.78406   -434.24989    4455.6872   -8619.6792   -8586.9063    30573.647    15.633695     13.53917    25.652348    5429.7621 
   42000       41.987     333.9134    13.725419   -447.95622    -434.2308    3774.6066   -7948.4329   -9109.0932    28381.346    15.633697    13.539172     25.65233      5429.76 
   42500       42.487    348.51908    14.325781   -448.53796   -434.21217    3699.4219   -12591.272    -8175.763      31865.3      15.6337    13.539174    25.652313     5429.758 
   43000       42.987    339.04513    13.936357   -448.12874   -434.19238    4323.5222    -9309.722   -4197.5836    26477.872    15.633702    13.539176    25.652295    5429.7559 
   43500       43.487    345.69582    14.209732   -448.38335   -434.17361    5013.6315   -7593.1282   -9602.0639    32236.087    15.633704    13.539178    25.652278    5429.7538 
   44000       43.987    334.93248    13.767308    -447.9217   -434.15439    4297.5886   -9503.9808   -8498.9181    30895.665    15.633707     13.53918     25.65226    5429.7518 
   44500       44.487    338.68158    13.921414   -448.05651    -434.1351    4065.1836   -8647.8548   -10492.992    31336.398    15.633709    13.539182    25.652243    5429.7497 
   45000       44.987    336.95369    13.850389   -447.96655   -434.11616    5418.7355   -6144.5254   -8363.7646    30764.497    15.633711    13.539184    25.652225    5429.7476 
   45500       45.487    316.96099    13.028595    -447.1252   -434.09661    4413.9451   -7383.4951   -8263.1725    28888.503    15.633714    13.539186    25.652208    5429.7456 
   46000       45.987    350.16686    14.393513   -448.47182   -434.07831    4153.8756   -8276.9464    -8067.447     28806.02    15.633716    13.539189     25.65219    5429.7435 
   46500       46.487    324.79991    13.350811   -447.41027   -434.05946    4825.7446   -8639.2578   -9624.0116    32740.503    15.633718    13.539191    25.652173    5429.7414 
   47000       46.987    335.20118    13.778353   -447.81888   -434.04053    4148.7013   -7700.1328   -8852.9005    28999.137    15.633721    13.539193    25.652155    5429.7394 
   47500       47.487    323.57353    13.300401   -447.32257   -434.02216    3607.3686   -8846.5076   -8796.3476    28464.961    15.633723    13.539195    25.652138    5429.7373 
   48000       47.987    334.75821    13.760145    -447.7638   -434.00366    3954.2616   -7309.3812   -10119.585    29291.751    15.633726    13.539197     25.65212    5429.7352 
   48500       48.487    328.95432    13.521577   -447.50636   -433.98478    3946.8246   -7794.9585   -7021.6098    26657.042    15.633728    13.539199    25.652103    5429.7332 
   49000       48.987    335.75659    13.801183   -447.76794   -433.96676    4144.5528   -5920.8829   -8493.5199    26848.061     15.63373    13.539201    25.652085    5429.7311 
   49500       49.487    332.52445    13.668326   -447.61632   -433.94799    4489.7014   -9005.5726   -7049.2302    29523.907    15.633733    13.539203    25.652068     5429.729 
   50000       49.987    336.22887    13.820596   -447.75053   -433.92993    4784.6838   -8812.5631   -5135.4789    28302.093    15.633735    13.539205     25.65205     5429.727 
   50500       50.487    322.09891    13.239787   -447.15101   -433.91123    4516.0045   -5378.2274   -7492.7789     26419.02    15.633737    13.539207    25.652033    5429.7249 
   51000       50.987    352.95864    14.508268   -448.40244   -433.89418    4193.8937   -8656.0984   -8276.8794    29514.659     15.63374    13.539209    25.652015    5429.7228 
   51500       51.487    323.64192    13.303213   -447.17863   -433.87542    4075.8586   -8576.1405    -7191.694     27995.41    15.633742    13.539211    25.651998    5429.7208 
   52000       51.987    337.56479    13.875508   -447.73348   -433.85798    3048.3582   -9905.5165    -6714.042    25764.633    15.633744    13.539213     25.65198    5429.7187 
   52500       52.487    322.30343    13.248194   -447.08855   -433.84036    4317.9589   -10243.061   -5532.2067    28729.144    15.633747    13.539215    25.651963    5429.7166 
   53000       52.987    339.95498    13.973756   -447.79692   -433.82316    5833.2099   -7730.0487   -3865.1847    29094.863    15.633749    13.539217    25.651945    5429.7146 
   53500       53.487    343.97435    14.138971   -447.94317    -433.8042    4403.2026   -8626.8185   -5905.3466    27741.773    15.633751    13.539219    25.651928    5429.7125 
   54000       53.987    329.81387    13.556909   -447.34356   -433.78665    4488.8133   -8310.9482   -8564.0067    30341.395    15.633754    13.539221     25.65191    5429.7104 
   54500       54.487     335.4268    13.787627    -447.5572   -433.76957    4962.3487    -8896.649   -5962.7307    29746.426    15.633756    13.539223    25.651893    5429.7084 
   55000       54.987     326.8454    13.434891   -447.18786   -433.75297    4250.6443   -9976.1536   -6469.6375    29197.724    15.633758    13.539225    25.651875    5429.7063 
   55500       55.487    360.62375     14.82334   -448.55926   -433.73592    4178.4854   -9479.1166   -8039.6498    30054.223    15.633761    13.539227    25.651858    5429.7042 
   56000       55.987    358.34711     14.72976    -448.4484   -433.71864    4794.4084    -7464.355   -8238.8362    30086.416    15.633763     13.53923     25.65184    5429.7022 
   56500       56.487    364.11447    14.966826   -448.66849   -433.70167    3743.4662   -10667.016   -8245.9857      30143.4    15.633765    13.539232    25.651823    5429.7001 
   57000       56.987    337.96865    13.892109    -447.5769   -433.68479     5600.045   -8101.2315   -5232.0111    30133.378    15.633768    13.539234    25.651805    5429.6981 
   57500       57.487    321.23437    13.204251   -446.87171   -433.66746    4445.2322   -9180.8117   -7543.5797    30060.088     15.63377    13.539236    25.651788     5429.696 
   58000       57.987    351.47643    14.447343    -448.0992   -433.65186    5394.8931     -7249.86   -5457.9262    28892.466    15.633773    13.539238     25.65177    5429.6939 
   58500       58.487     339.4188    13.951717   -447.58707   -433.63535    4679.5399   -7901.0059   -7844.3687    29783.994    15.633775     13.53924    25.651753    5429.6919 
   59000       58.987    327.19597    13.449301   -447.06797   -433.61867    5722.5756   -6677.4934   -6623.1927    30468.413    15.633777    13.539242    25.651735    5429.6898 
   59500       59.487    337.49537    13.872655   -447.47489   -433.60223    6040.1037   -4502.3145   -9551.1879    32173.813     15.63378    13.539244    25.651718    5429.6877 
   60000       59.987    351.39339    14.443929   -448.02996   -433.58603    4036.2898   -7728.2159   -8997.9091    28834.994    15.633782    13.539246      25.6517    5429.6857 
   60500       60.487    333.46415    13.706953   -447.27552   -433.56857    4703.2315   -9372.9719   -4947.4442    28430.111    15.633784    13.539248    25.651683    5429.6836 
   61000       60.987    350.56822     14.41001    -447.9627   -433.55269    4248.3083   -11579.003   -3126.6868    27450.614    15.633787     13.53925    25.651665    5429.6815 
   61500       61.487    340.07125    13.978536   -447.51451   -433.53598    4218.8309   -9876.2794   -7890.5874     30423.36    15.633789    13.539252    25.651648    5429.6795 
   62000       61.987    326.41529    13.417211   -446.93639   -433.51918    5237.9837   -8516.1406   -4884.6326    29114.724    15.633791    13.539254     25.65163    5429.6774 
   62500       62.487    356.74293     14.66382   -448.16795   -433.50413     3410.306   -7203.5696   -9306.1121      26740.6    15.633794    13.539256    25.651613    5429.6753 
   63000       62.987    352.45739    14.487664   -447.97564   -433.48797    5690.0162   -6242.9746   -6179.9706    29492.994    15.633796    13.539258    25.651595    5429.6733 
   63500       63.487    317.59234    13.054546   -446.52535    -433.4708    6493.8133    -5688.581   -6095.2356    31265.257    15.633798     13.53926    25.651578    5429.6712 
   64000       63.987    355.07611    14.595306   -448.05103   -433.45573    3532.5874   -7300.8376   -6663.3634    24561.963    15.633801    13.539262     25.65156    5429.6691 
   64500       64.487    350.25522    14.397145   -447.83659   -433.43944    3882.8793   -10271.216   -7570.7996    29490.653    15.633803    13.539264    25.651543    5429.6671 
   65000       64.987    315.52954    12.969755   -446.39277   -433.42301    5345.8101   -6743.6864    -8319.945    31101.062    15.633805    13.539266    25.651525     5429.665 
   65500       65.487     336.8314    13.845362   -447.25323   -433.40786    5143.7374   -9080.5249    -5982.486    30494.223    15.633808    13.539268    25.651508    5429.6629 
   66000       65.987    325.36714    13.374127   -446.76562   -433.39149    5594.8227   -7596.7246   -6576.3446    30957.537     15.63381    13.539271     25.65149    5429.6609 
   66500       66.487    337.60102    13.876998   -447.25224   -433.37525    4581.2751   -6899.5703   -6108.7257    26752.121    15.633812    13.539273    25.651473    5429.6588 
   67000       66.987    346.48753    14.242275   -447.60203   -433.35976    4431.2044   -12273.941   -6075.0035    31642.558    15.633815    13.539275    25.651455    5429.6567 
   67500       67.487    327.44134    13.459387    -446.8026   -433.34322    5975.1369   -9753.5241   -5819.4486    33498.384    15.633817    13.539277    25.651438    5429.6547 
   68000       67.987    322.86889    13.271437    -446.5985   -433.32706    4183.9605   -8314.0744   -8711.2671    29577.223     15.63382    13.539279     25.65142    5429.6526 
   68500       68.487    355.26732    14.603166   -447.91569   -433.31252    4789.4323   -6891.7443   -8338.3841    29598.425    15.633822    13.539281    25.651403    5429.6505 
   69000       68.987    342.47066    14.077163   -447.37381   -433.29664     5490.161   -5621.7642    -7122.931    29215.178    15.633824    13.539283    25.651385    5429.6485 
   69500       69.487    354.95572    14.590358   -447.87024   -433.27989    4358.7997   -10638.181   -2369.3801     26083.96    15.633827    13.539285    25.651368    5429.6464 
   70000       69.987    334.83806    13.763427   -447.02698   -433.26355    3735.3385   -12023.002    -5830.311    29059.329    15.633829    13.539287     25.65135    5429.6443 
   70500       70.487    334.19892    13.737155   -446.98555    -433.2484    3541.3123   -10497.761   -7387.0033    28508.701    15.633831    13.539289    25.651333    5429.6423 
   71000       70.987    339.15781    13.940989   -447.17344   -433.23245    3598.0212   -9470.1144   -6507.2651    26771.443    15.633834    13.539291    25.651315    5429.6402 
   71500       71.487    327.05526    13.443517   -446.65977   -433.21625      5389.56   -7535.2014   -7997.8273    31701.709    15.633836    13.539293    25.651298    5429.6381 
   72000       71.987    335.02514    13.771117   -446.97168   -433.20056    3981.3278   -8605.8412   -6933.5504    27483.375    15.633838    13.539295     25.65128    5429.6361 
   72500       72.487    348.11369    14.309118   -447.49325   -433.18413    3796.2643   -9883.7534   -7455.8401    28728.386    15.633841    13.539297    25.651263     5429.634 
   73000       72.987    351.96752    14.467529    -447.6363   -433.16877    5292.7271   -7464.8477   -6763.3975    30106.426    15.633843    13.539299    25.651245    5429.6319 
   73500       73.487    348.86137    14.339851   -447.49163   -433.15178    5265.1352   -6245.4868    -7677.812    29718.704    15.633845    13.539301    25.651228    5429.6299 
   74000       73.987    335.47098    13.789443   -446.92472   -433.13527    4473.2393   -8446.0913   -8403.9662    30269.775    15.633848    13.539303     25.65121    5429.6278 
   74500       74.487    346.97959    14.262501   -447.38231   -433.11981    6252.2714   -8529.5083   -4771.5075     32057.83     15.63385    13.539305    25.651193    5429.6257 
   75000       74.987    345.14356    14.187032   -447.29121   -433.10417    4920.2919   -11962.185   -5632.5537    32355.614    15.633852    13.539307    25.651175    5429.6237 
   75500       75.487    338.33702    13.907251   -446.99469   -433.08744    6844.0697   -7288.1226   -4147.3391    31967.671    15.633855    13.539309    25.651158    5429.6216 
   76000       75.987    361.89273    14.875502   -447.94737   -433.07187    4263.7371   -7307.5374   -5380.6319    25479.381    15.633857    13.539312     25.65114    5429.6195 
   76500       76.487    330.62872    13.590403   -446.64518   -433.05477    4931.8322   -8805.8626    -5791.495    29392.854    15.633859    13.539314    25.651123    5429.6175 
   77000       76.987    357.33032    14.687965   -447.72688   -433.03892    4298.4551   -9618.7189   -8692.2145    31206.299    15.633862    13.539316    25.651105    5429.6154 
   77500       77.487    342.13506    14.063368   -447.08631   -433.02294    5334.5096   -5783.3744   -5174.2998    26961.203    15.633864    13.539318    25.651088    5429.6133 
   78000       77.987    352.98298    14.509269   -447.51539   -433.00612    5641.1231    -8189.633   -7037.2162    32150.219    15.633867     13.53932     25.65107    5429.6113 
   78500       78.487    330.96899    13.604389   -446.59347   -432.98908    5513.2452   -8607.7857    -7859.699     33007.22    15.633869    13.539322    25.651053    5429.6092 
   79000       78.987    320.63281    13.179524   -446.15206   -432.97254    5352.6018   -8063.6344   -6639.5416    30760.981    15.633871    13.539324    25.651035    5429.6071 
   79500       79.487    352.03291    14.470217   -447.42605   -432.95583    4816.8018   -8730.2895   -7663.4857    30844.181    15.633874    13.539326    25.651018    5429.6051 
   80000       79.987    336.45429    13.829862   -446.76802   -432.93816    5556.6941   -6510.3341   -7562.6073    30743.024    15.633876    13.539328       25.651     5429.603 
   80500       80.487    372.56681    15.314257   -448.23626     -432.922    3742.4732   -6359.0858   -10401.029    27987.535    15.633878     13.53933    25.650983     5429.601 
   81000       80.987    349.74667    14.376241    -447.2809   -432.90465    5141.9301   -9945.8084    -4640.742    30012.341    15.633881    13.539332    25.650965    5429.5989 
   81500       81.487    349.51008    14.366516   -447.25431    -432.8878    5412.1574    -6798.627   -6794.0072    29829.107    15.633883    13.539334    25.650948    5429.5968 
   82000       81.987    341.18182    14.024185   -446.89431   -432.87012    5106.3193   -8005.8599   -8931.8657    32256.684    15.633885    13.539336     25.65093    5429.5948 
   82500       82.487    365.00077    15.003257   -447.85628   -432.85302    4620.5613   -8435.6139   -6776.6324     29073.93    15.633888    13.539338    25.650913    5429.5927 
   83000       82.987    350.27442    14.397934   -447.23397   -432.83604    5654.4529   -6759.6574   -6770.1879    30493.204     15.63389     13.53934    25.650895    5429.5906 
   83500       83.487    349.50798     14.36643   -447.18516   -432.81873    6285.9662   -7513.0911   -4942.2978    31313.287    15.633892    13.539342    25.650878    5429.5886 
   84000       83.987    373.90008     15.36906   -448.17073   -432.80167    4939.5968   -3550.1004   -10258.396    28627.286    15.633895    13.539344     25.65086    5429.5865 
   84500       84.487    358.15415    14.721828   -447.50503    -432.7832    5293.0088   -8209.8848    -6524.015    30612.926    15.633897    13.539346    25.650843    5429.5844 
   85000       84.987    352.54495    14.491264   -447.25655   -432.76529    4975.9813   -8691.8181   -3972.5101    27592.272    15.633899    13.539348    25.650825    5429.5824 
   85500       85.487    359.50716    14.777443   -447.52533   -432.74789    5330.2864   -8198.1349   -8574.8062      32763.8    15.633902     13.53935    25.650808    5429.5803 
   86000       85.987    364.47211    14.981526   -447.71183   -432.73031    4702.9697   -8068.7158   -5523.0838    27700.709    15.633904    13.539353     25.65079    5429.5782 
   86500       86.487    342.00621    14.058072   -446.77006   -432.71199    5497.3291   -7965.0847   -6819.7749    31276.847    15.633906    13.539355    25.650773    5429.5762 
   87000       86.987    356.70015    14.662062   -447.35703   -432.69497    4432.0351   -8577.3099   -7677.8031    29551.218    15.633909    13.539357    25.650755    5429.5741 
   87500       87.487    325.56263    13.382163   -446.05797   -432.67581    5254.1437   -6977.4189   -5353.3811    28093.231    15.633911    13.539359    25.650738     5429.572 
   88000       87.987    356.97441    14.673335   -447.33179   -432.65846    4869.8659   -7083.0126   -6816.7152    28509.326    15.633914    13.539361     25.65072      5429.57 
   88500       88.487    354.81684    14.584649   -447.22438   -432.63973    6124.4846   -6759.6404    -6557.881    31690.975    15.633916    13.539363    25.650703    5429.5679 
   89000       88.987    341.73255    14.046823   -446.66762    -432.6208     7178.762   -5074.2289   -5310.7126    31921.228    15.633918    13.539365    25.650685    5429.5658 
   89500       89.487    357.76478    14.705823   -447.30933   -432.60351    5401.1676   -8810.9627   -5771.5273    30785.993    15.633921    13.539367    25.650668    5429.5638 
   90000       89.987    353.82266    14.543783   -447.12836   -432.58458    5712.5162   -6765.0422   -5183.6136    29086.204    15.633923    13.539369     25.65065    5429.5617 
   90500       90.487    341.51202    14.037758   -446.60377   -432.56601    5271.1802   -6079.7887   -8519.6061    30412.935    15.633925    13.539371    25.650633    5429.5596 
   91000       90.987    349.14691    14.351588    -446.8991   -432.54751    5833.6091     -6485.09   -6779.2158    30765.133    15.633928    13.539373    25.650615    5429.5576 
   91500       91.487    346.99516    14.263141   -446.79166   -432.52852    4718.6559   -8820.1914   -9486.1894    32462.348     15.63393    13.539375    25.650598    5429.5555 
   92000       91.987    346.74509    14.252862   -446.76338   -432.51052    5947.7929   -8421.0823   -3995.1521    30259.613    15.633932    13.539377     25.65058    5429.5534 
   92500       92.487    348.29519    14.316578   -446.80848    -432.4919    5242.4576   -6477.9946   -8678.1646    30883.532    15.633935    13.539379    25.650563    5429.5514 
   93000       92.987    350.15717    14.393115   -446.86533   -432.47221    5480.1691   -7848.5345   -7405.5716    31694.613    15.633937    13.539381    25.650545    5429.5493 
   93500       93.487    340.51636    13.996832   -446.45103    -432.4542    5592.7983   -5736.1132   -6242.5451    28757.053    15.633939    13.539383    25.650528    5429.5472 
   94000       93.987    358.70974    14.744666   -447.17876   -432.43409    5964.3168   -7380.8107   -6440.1309    31713.892    15.633942    13.539385     25.65051    5429.5452 
   94500       94.487    362.33389    14.893635   -447.30911   -432.41548    5616.1293   -9205.3894   -6355.2563    32409.034    15.633944    13.539387    25.650493    5429.5431 
   95000       94.987    356.28746    14.645098   -447.03957   -432.39448    4728.8759   -10699.082    -2626.454    27512.164    15.633946    13.539389    25.650475     5429.541 
   95500       95.487    352.93028    14.507102   -446.88274   -432.37564    4706.4644   -8280.6031   -6628.9336     29028.93    15.633949    13.539391    25.650458     5429.539 
   96000       95.987    352.25953    14.479532   -446.83547   -432.35594    5173.5052   -6104.5545   -9021.6103     30646.68    15.633951    13.539394     25.65044    5429.5369 
   96500       96.487    342.16818    14.064729   -446.40078   -432.33605    5575.2115   -4979.5792   -7523.4351    29228.649    15.633953    13.539396    25.650423    5429.5348 
   97000       96.987    353.16221    14.516636   -446.83352   -432.31688     5566.516   -8193.2231   -7181.4775    32074.249    15.633956    13.539398    25.650405    5429.5328 
   97500       97.487    353.14799    14.516052   -446.81255    -432.2965    5656.3319   -8265.9062   -7631.6101    32866.512    15.633958      13.5394    25.650388    5429.5307 
   98000       97.987    341.34625    14.030944   -446.30843   -432.27748    6992.4711   -10062.392   -3093.7391    34133.545    15.633961    13.539402     25.65037    5429.5286 
   98500       98.487    349.53741     14.36764    -446.6242   -432.25656    6384.4162   -7600.0194    -9020.754    35774.022    15.633963    13.539404    25.650353    5429.5266 
   99000       98.987    352.27425    14.480136   -446.71703   -432.23689    6433.9752   -6517.7189   -8389.8983    34209.543    15.633965    13.539406    25.650335    5429.5245 
   99500       99.487    372.36183    15.305831   -447.52282   -432.21699    5194.5895   -6573.7482   -8329.2199    30486.736    15.633968    13.539408    25.650318    5429.5224 
  100000       99.987    364.85301    14.997183   -447.19388    -432.1967    5159.8836   -7401.0018   -6390.0571     29270.71     15.63397     13.53941      25.6503    5429.5204 
  100500      100.487    355.76814    14.623752   -446.80037   -432.17662    6607.3232   -3691.5466   -9414.2933     32927.81    15.633972    13.539412    25.650283    5429.5183 
  101000      100.987    353.35588    14.524597   -446.68065   -432.15606    5041.4695   -9315.7903   -5624.4108    30064.609    15.633975    13.539414    25.650265    5429.5162 
  101500      101.487    375.82562    15.448209    -447.5852   -432.13699    4590.2375   -6927.0018   -10320.925    31018.639    15.633977    13.539416    25.650248    5429.5142 
  102000      101.987    374.51955    15.394524   -447.51124   -432.11672    3785.8911   -9990.6877   -5962.7517    27311.113    15.633979    13.539418     25.65023    5429.5121 
  102500      102.487    362.98099    14.920234   -447.01626   -432.09603    4619.0966   -5845.4612   -7832.2319    27534.983    15.633982     13.53942    25.650213      5429.51 
  103000      102.987    364.88699     14.99858   -447.07362   -432.07505    5106.4028   -8987.6103   -7423.7736    31730.592    15.633984    13.539422    25.650195     5429.508 
  103500      103.487    357.04272    14.676143   -446.73035   -432.05421    6748.9678   -5853.2319   -3954.8851     30055.02    15.633986    13.539424    25.650178    5429.5059 
  104000      103.987    342.29483    14.069935   -446.10337   -432.03343    5312.4663   -9618.1118    -3048.078    28603.589    15.633989    13.539426     25.65016    5429.5038 
  104500      104.487    339.25124    13.944829   -445.95724   -432.01242     5782.406   -8788.6746   -6536.3484    32672.241    15.633991    13.539428    25.650143    5429.5018 
  105000      104.987    337.99625    13.893243   -445.88382   -431.99058    5253.4909   -6628.4159   -5334.2915     27723.18    15.633993     13.53943    25.650125    5429.4997 
  105500      105.487    349.11658    14.350341   -446.32089   -431.97055    5446.7733   -3824.9524   -9493.2642    29658.536    15.633996    13.539432    25.650108    5429.4976 
  106000      105.987    350.08714    14.390236    -446.3401   -431.94986    6373.2906   -4834.0864   -6234.2838    30188.242    15.633998    13.539435     25.65009    5429.4956 
  106500      106.487    356.38122    14.648952    -446.5776   -431.92865    6089.2018    -9226.784   -6558.0679    34052.457       15.634    13.539437    25.650073    5429.4935 
  107000      106.987    377.90542    15.533699   -447.44174   -431.90804    4768.8615   -7495.2345   -6674.3231    28476.142    15.634003    13.539439    25.650055    5429.4914 
  107500      107.487    382.18126    15.709456   -447.59652   -431.88707    5004.0221     -8381.63   -7257.6618    30651.358    15.634005    13.539441    25.650038    5429.4894 
  108000      107.987     360.6859    14.825895   -446.69166   -431.86576     5480.426   -6911.5541   -5737.9607    29090.793    15.634008    13.539443     25.65002    5429.4873 
  108500      108.487    366.33636    15.058156     -446.903   -431.84485    5903.2643   -4999.1068   -7447.3097    30156.209     15.63401    13.539445    25.650003    5429.4853 
  109000      108.987     355.2623     14.60296   -446.42521   -431.82225     6138.041   -8299.5874    -6519.414    33233.124    15.634012    13.539447    25.649985    5429.4832 
  109500      109.487    363.19088    14.928862   -446.72919   -431.80033    5765.8899   -6573.8439   -6236.2266     30107.74    15.634015    13.539449    25.649968    5429.4811 
  110000      109.987    365.53144     15.02507   -446.80288   -431.77781    5459.4956   -10750.902   -5401.0074    32530.396    15.634017    13.539451     25.64995    5429.4791 
  110500      110.487    369.86661    15.203266   -446.95952   -431.75625     4974.947   -8963.2712   -5203.5189    29091.631    15.634019    13.539453    25.649933     5429.477 
  111000      110.987    351.46166    14.446735   -446.18227   -431.73553    6655.8403    -7977.052   -7370.7288    35315.302    15.634022    13.539455    25.649915    5429.4749 
  111500      111.487    345.91204     14.21862   -445.93129   -431.71267    5553.8974   -6073.4409   -10436.935    33172.068    15.634024    13.539457    25.649898    5429.4729 
  112000      111.987    379.64374    15.605152   -447.29673   -431.69158    5809.0131   -7671.0972   -5432.1158    30530.252    15.634026    13.539459     25.64988    5429.4708 
  112500      112.487    364.59795    14.986699   -446.65599   -431.66929    5371.1105    -6404.469   -9495.7572    32013.558    15.634029    13.539461    25.649863    5429.4687 
  113000      112.987     378.9281    15.575736   -447.22334    -431.6476    4443.4691   -10327.792   -7190.6321    30848.832    15.634031    13.539463    25.649845    5429.4667 
  113500      113.487    361.85518    14.873958   -446.50013   -431.62617    6185.5782   -4929.7375   -6793.3301    30279.802    15.634033    13.539465    25.649828    5429.4646 
  114000      113.987    373.09687    15.336045   -446.94024    -431.6042    5620.7874   -3847.2624   -8621.8428    29331.467    15.634036    13.539467     25.64981    5429.4625 
  114500      114.487    361.35051    14.853214   -446.43498   -431.58177    5733.0536   -7749.6902   -4236.6725    29185.523    15.634038    13.539469    25.649793    5429.4605 
  115000      114.987    379.78956    15.611146   -447.17229   -431.56114    5574.6716   -6635.8937   -9237.9393    32597.848     15.63404    13.539471    25.649775    5429.4584 
  115500      115.487    359.30822    14.769266   -446.30735   -431.53809    5246.5291   -8513.8856   -7238.7681    31492.241    15.634043    13.539473    25.649758    5429.4563 
  116000      115.987    379.82343    15.612538   -447.12825   -431.51571    5285.6677   -7200.3597   -7611.2404    30668.603    15.634045    13.539476     25.64974    5429.4543 
  116500      116.487    355.21816    14.601145   -446.09373   -431.49258    6477.3492   -8461.3397   -4421.8339    32315.221    15.634047    13.539478    25.649723    5429.4522 
  117000      116.987    339.49304    13.954768   -445.42444   -431.46967    4864.0887   -8775.2566   -8440.1303    31807.653     15.63405     13.53948    25.649705    5429.4501 
  117500      117.487    362.27353    14.891154   -446.33838   -431.44722     6310.678   -8056.1259   -7517.6049    34505.765    15.634052    13.539482    25.649688    5429.4481 
  118000      117.987    360.27809    14.809132   -446.23361   -431.42448    5573.6189   -8046.6751   -4408.7734    29176.305    15.634055    13.539484     25.64967     5429.446 
  118500      118.487    373.83367    15.366331   -446.76845   -431.40212     6170.153   -5195.6954   -7346.3761    31052.531    15.634057    13.539486    25.649653    5429.4439 
  119000      118.987    364.11693    14.966927   -446.34668   -431.37976    5767.7257   -7076.1755   -9498.8689    33878.222    15.634059    13.539488    25.649635    5429.4419 
  119500      119.487    380.76126    15.651087   -447.00847   -431.35738    4733.5514   -7964.3972   -7229.4487      29394.5    15.634062     13.53949    25.649618    5429.4398 
  120000      119.987    358.19131    14.723356   -446.05758   -431.33423    5595.8873   -6671.3198   -4093.3602    27552.342    15.634064    13.539492      25.6496    5429.4377 
  120500      120.487     359.2888    14.768468    -446.0802   -431.31173    6169.8492   -7844.9304   -6282.4093    32636.887    15.634066    13.539494    25.649583    5429.4357 
  121000      120.987    383.75855     15.77429   -447.06366   -431.28937    5358.8562   -5358.6043   -10116.473    31551.646    15.634069    13.539496    25.649565    5429.4336 
  121500      121.487    374.78572    15.405465   -446.67167    -431.2662    5532.9468   -7218.2158   -2770.7165    26587.773    15.634071    13.539498    25.649548    5429.4315 
  122000      121.987    362.21597    14.888788   -446.13215   -431.24336    5877.5702   -9509.2494    -5044.025    32185.985    15.634073      13.5395     25.64953    5429.4295 
  122500      122.487    355.01441     14.59277   -445.81273   -431.21996    6281.1088   -10136.784    -2955.536    31935.646    15.634076    13.539502    25.649513    5429.4274 
  123000      122.987    355.65885    14.619259   -445.81576   -431.19651    5998.2343   -6319.4467   -6833.1615    31147.311    15.634078    13.539504    25.649495    5429.4253 
  123500      123.487    360.41728    14.814853   -445.98938   -431.17452     5976.738   -6380.7409   -4632.2806    28943.236     15.63408    13.539506    25.649478    5429.4233 
  124000      123.987    370.90471    15.245937   -446.39765   -431.15171     6352.679    -9044.859   -6460.7692    34563.665    15.634083    13.539508     25.64946    5429.4212 
  124500      124.487    353.75171    14.540867   -445.66979   -431.12893    5844.5721   -5874.9063    -7687.489    31096.112    15.634085     13.53951    25.649443    5429.4191 
  125000      124.987    370.29547    15.220894   -446.32514   -431.10425    6290.5309   -6876.0562   -6399.7296    32147.379    15.634087    13.539512    25.649425    5429.4171 
  125500      125.487    361.18092    14.846243   -445.92757   -431.08132    5682.6232   -6489.6364   -9506.5663    33044.072     15.63409    13.539514    25.649408     5429.415 
  126000      125.987    357.86692    14.710022   -445.76858   -431.05856     6681.508   -6798.6552   -6244.4779    33087.657    15.634092    13.539517     25.64939    5429.4129 
  126500      126.487    375.29058    15.426217   -446.46152   -431.03531    5281.7721   -8104.0164   -551.72174    24501.054    15.634094    13.539519    25.649373    5429.4109 
  127000      126.987    371.18224    15.257344   -446.26954   -431.01219     6162.911   -7238.6129   -7768.0819    33495.428    15.634097    13.539521    25.649355    5429.4088 
  127500      127.487    383.95785    15.782482   -446.77203   -430.98955    7389.5834   -3982.3399   -4165.8445    30316.935    15.634099    13.539523    25.649338    5429.4067 
  128000      127.987    370.56838    15.232112   -446.19847   -430.96636    4472.8753   -6266.7502   -5924.0897    25609.466    15.634102    13.539525     25.64932    5429.4047 
  128500      128.487    378.50422    15.558312   -446.50173   -430.94342    5372.5465   -10178.999   -7114.4478    33411.087    15.634104    13.539527    25.649303    5429.4026 
  129000      128.987     367.4983    15.105917   -446.02566   -430.91975    5806.4895   -7253.9809   -9360.5923    34034.042    15.634106    13.539529    25.649285    5429.4005 
  129500      129.487    360.29597    14.809867   -445.70503   -430.89516    6212.9622    -6088.293   -6329.0661    31056.246    15.634109    13.539531    25.649268    5429.3985 
  130000      129.987    378.23389    15.547201   -446.41966   -430.87246    5306.4013   -5604.1871   -7472.5308    28995.922    15.634111    13.539533     25.64925    5429.3964 
  130500      130.487    366.47289    15.063768   -445.91209   -430.84833    6298.5375   -7780.3264   -6275.0102    32950.949    15.634113    13.539535    25.649233    5429.3943 
  131000      130.987    362.83532    14.914246    -445.7393   -430.82506    5889.3422   -3302.7722   -6525.9168    27496.716    15.634116    13.539537    25.649215    5429.3923 
  131500      131.487    375.10816    15.418718   -446.22043   -430.80171    7646.4488   -6227.1768   -6486.7076    35653.231    15.634118    13.539539    25.649198    5429.3902 
  132000      131.987    389.53346    16.011666   -446.78984   -430.77818    5947.9745   -7438.2678   -5083.0772    30365.268     15.63412    13.539541     25.64918    5429.3881 
  132500      132.487     376.2873    15.467186    -446.2216   -430.75442    6082.0934   -8013.0633    -6608.789    32868.132    15.634123    13.539543    25.649163    5429.3861 
  133000      132.987    367.03259    15.086774   -445.81707    -430.7303     7262.059   -7298.2933   -3844.9792     32929.45    15.634125    13.539545    25.649145     5429.384 
  133500      133.487    370.86833    15.244441   -445.95067   -430.70623    5949.6066   -6991.5667   -5373.6187    30214.005    15.634127    13.539547    25.649128    5429.3819 
  134000      133.987    374.69236    15.401627   -446.08486   -430.68323    5946.6804   -5061.4522   -6183.1427    29084.636     15.63413    13.539549     25.64911    5429.3799 
  134500      134.487    367.40731    15.102177   -445.76111   -430.65894    6157.5868   -8541.6054   -7224.1977    34238.564    15.634132    13.539551    25.649093    5429.3778 
  135000      134.987    367.25568    15.095944    -445.7319   -430.63596    6374.5146    -9807.921   -4475.6281    33407.093    15.634134    13.539553    25.649075    5429.3757 
  135500      135.487    367.34264    15.099519   -445.71124   -430.61172    6484.0832   -5835.7382   -6540.6982    31828.686    15.634137    13.539555    25.649058    5429.3737 
  136000      135.987    350.39902    14.403056   -444.99054   -430.58748    7008.3141   -5849.0429    -5755.332    32629.317    15.634139    13.539558     25.64904    5429.3716 
  136500      136.487    368.10671    15.130926   -445.69505   -430.56412    6659.4112    -7743.444   -6132.3284    33854.006    15.634141     13.53956    25.649023    5429.3695 
  137000      136.987    383.33875    15.757034   -446.29748   -430.54045    6083.2989   -5915.3964   -4171.2586    28336.552    15.634144    13.539562    25.649005    5429.3675 
  137500      137.487    364.24691    14.972269   -445.48846   -430.51619    6516.0013   -5491.1992   -4935.8673     29975.07    15.634146    13.539564    25.648988    5429.3654 
  138000      137.987    385.56543    15.848561   -446.34158   -430.49301    6234.2603   -6109.1138   -4939.9064    29751.801    15.634149    13.539566     25.64897    5429.3633 
  138500      138.487    373.45464    15.350751   -445.82038   -430.46963    5907.7492   -6419.1384   -5721.0968    29863.483    15.634151    13.539568    25.648953    5429.3613 
  139000      138.987    377.84074     15.53104   -445.97701   -430.44597    5196.3931   -9169.1349   -3764.8804    28523.195    15.634153     13.53957    25.648935    5429.3592 
  139500      139.487    397.59564     16.34306   -446.76512   -430.42206    5184.9597   -7995.6298   -2923.4359    26473.945    15.634156    13.539572    25.648918    5429.3571 
  140000      139.987    379.36478    15.593685   -445.99236   -430.39868    5568.1678   -5946.9509   -5816.2536    28467.708    15.634158    13.539574      25.6489    5429.3551 
  140500      140.487    397.69321     16.34707   -446.72191   -430.37484    5528.2494    -8564.897   -3125.3747     28275.02     15.63416    13.539576    25.648883     5429.353 
  141000      140.987    370.89346    15.245474   -445.59673   -430.35126    8201.9497   -4121.5436   -5567.1207    34294.513    15.634163    13.539578    25.648865    5429.3509 
  141500      141.487    373.20176    15.340356   -445.66829   -430.32793    6234.8222   -7877.9867    -6607.702    33190.155    15.634165     13.53958    25.648848    5429.3489 
  142000      141.987     384.2795    15.795704   -446.09907   -430.30337    5713.9933   -9943.2497   -4912.3484    31997.578    15.634167    13.539582     25.64883    5429.3468 
  142500      142.487    389.41215     16.00668   -446.28665   -430.27997    5430.9704   -5559.9348   -7452.5445    29305.391     15.63417    13.539584    25.648813    5429.3447 
  143000      142.987     374.2441    15.383201    -445.6377    -430.2545    7113.6064   -5543.6716   -4209.0204    31093.511    15.634172    13.539586    25.648795    5429.3427 
  143500      143.487    378.46146    15.556555   -445.78703   -430.23047    6854.9705   -7724.7653     -4162.06    32451.737    15.634174    13.539588    25.648778    5429.3406 
  144000      143.987    365.85887    15.038529   -445.24426   -430.20573    6242.5648   -6208.1551   -6687.3235    31623.173    15.634177     13.53959     25.64876    5429.3386 
  144500      144.487    382.88297      15.7383   -445.92005   -430.18175    6728.1625   -4166.9999   -6636.3833    30987.871    15.634179    13.539592    25.648743    5429.3365 
  145000      144.987    399.32671    16.414215   -446.57284   -430.15863     4746.325   -8873.8243   -4956.2298    28069.029    15.634181    13.539594    25.648725    5429.3344 
  145500      145.487    373.37302    15.347396   -445.48157   -430.13418    5916.1563   -7684.0349   -4968.1667     30400.67    15.634184    13.539596    25.648708    5429.3324 
  146000      145.987    359.49047    14.776757   -444.88627   -430.10951    6189.5209   -7837.8045    -3174.675    29581.042    15.634186    13.539599     25.64869    5429.3303 
  146500      146.487    380.01428    15.620383   -445.70555   -430.08516    5922.5784   -4784.8929   -6422.7048    28975.333    15.634188    13.539601    25.648673    5429.3282 
  147000      146.987    380.26776    15.630802   -445.69213   -430.06133    7683.7046   -6999.3792   -4170.3619    34220.855    15.634191    13.539603    25.648655    5429.3262 
  147500      147.487    387.93262    15.945864   -445.98298   -430.03712    6062.3097   -8141.0061   -5705.4348     32033.37    15.634193    13.539605    25.648638    5429.3241 
  148000      147.987     403.5081     16.58609   -446.59832   -430.01223    4815.7723   -6465.9509   -7771.6582    28684.926    15.634196    13.539607     25.64862     5429.322 
  148500      148.487    349.87805    14.381641   -444.36892   -429.98728    6513.8518   -7124.2077   -6673.3453    33339.108    15.634198    13.539609    25.648603      5429.32 
  149000      148.987    379.21564    15.587555   -445.55012   -429.96257    6448.6168   -6211.4353   -4001.6466    29558.932      15.6342    13.539611    25.648585    5429.3179 
  149500      149.487    398.26591    16.370611   -446.30949   -429.93888     5370.767   -5520.0826   -7572.3758     29204.76    15.634203    13.539613    25.648568    5429.3158 
  150000      149.987    397.42099    16.335881   -446.25019   -429.91431    5542.5991   -8435.2824   -7003.1652    32066.245    15.634205    13.539615     25.64855    5429.3138 
  150500      150.487     385.8302    15.859445   -445.74902   -429.88958    7357.0893   -5988.0707   -6599.4471    34658.786    15.634207    13.539617    25.648533    5429.3117 
  151000      150.987    366.21889    15.053327   -444.91884   -429.86551    6810.5204   -7466.8382   -6269.7611    34168.161     15.63421    13.539619    25.648515    5429.3096 
  151500      151.487    359.26548    14.767509   -444.60794   -429.84043    7308.5313   -6234.5324   -4112.0761    32272.203    15.634212    13.539621    25.648498    5429.3076 
  152000      151.987     389.1086    15.994202   -445.81066   -429.81645    6186.5603   -8408.6958   -6353.3577    33321.734    15.634214    13.539623     25.64848    5429.3055 
  152500      152.487    368.55575    15.149383   -444.94077   -429.79139    5812.3317   -6007.5471   -7809.8383    31254.381    15.634217    13.539625    25.648463    5429.3034 
  153000      152.987    376.22378    15.464575   -445.23189   -429.76731    5647.8049   -9262.8753   -6221.5144    32427.804    15.634219    13.539627    25.648445    5429.3014 
  153500      153.487    378.37482    15.552993   -445.29598   -429.74299     7470.534   -3642.5315   -9034.1442    35088.278    15.634221    13.539629    25.648428    5429.2993 
  154000      153.987    378.23619    15.547295   -445.26586   -429.71856    7330.9786   -6354.0441   -5251.1222    33598.102    15.634224    13.539631     25.64841    5429.2972 
  154500      154.487     382.7314    15.732069   -445.42577    -429.6937    7144.1322   -8185.0253    -6574.217    36191.639    15.634226    13.539633    25.648393    5429.2952 
  155000      154.987    404.69636    16.634933   -446.30402   -429.66908    4296.4846   -8137.9071   -7077.8831    28105.244    15.634228    13.539635    25.648375    5429.2931 
  155500      155.487    403.68634    16.593416   -446.23778   -429.64437    7274.6434    -8932.223   -6772.8712    37529.024    15.634231    13.539637    25.648358     5429.291 
  156000      155.987    398.32931    16.373217   -445.99258   -429.61936    4834.9746   -10209.097   -7817.0616    32531.082    15.634233     13.53964     25.64834     5429.289 
  156500      156.487    403.72917    16.595177   -446.18968    -429.5945    5371.5495   -8609.6677   -5872.8886    30597.205    15.634235    13.539642    25.648323    5429.2869 
  157000      156.987    377.74013    15.526905   -445.09628   -429.56937    5534.6566   -7538.1067   -7176.4843    31318.561    15.634238    13.539644    25.648305    5429.2848 
  157500      157.487    377.68012    15.524438    -445.0683   -429.54386    7169.6439   -3641.6239   -7785.6871    32936.243     15.63424    13.539646    25.648288    5429.2828 
  158000      157.987    384.85387    15.819313   -445.33815   -429.51883    7481.8279   -8115.7504   -2779.1169    33340.351    15.634243    13.539648     25.64827    5429.2807 
  158500      158.487    395.66933    16.263879   -445.75755   -429.49367    5589.3781   -7482.1251   -5411.4136    29661.673    15.634245     13.53965    25.648253    5429.2786 
  159000      158.987    385.98636    15.865864   -445.33485   -429.46898     6032.197   -8228.2706   -3192.4698    29517.331    15.634247    13.539652    25.648235    5429.2766 
  159500      159.487    399.18722    16.408481   -445.85292   -429.44444    5545.3105   -8184.6089   -4066.9453    28887.486     15.63425    13.539654    25.648218    5429.2745 
  160000      159.987    389.36241    16.004635   -445.42352   -429.41888    7783.6676   -5368.3137   -6606.7745    35326.091    15.634252    13.539656      25.6482    5429.2724 
  160500      160.487    377.87659    15.532514   -444.92663   -429.39412    8044.6401   -4288.4568    -5736.202    34158.579    15.634254    13.539658    25.648183    5429.2704 
  161000      160.987    393.51578    16.175358   -445.54474   -429.36938     7781.937   -5275.7062   -4314.5968    32936.114    15.634257     13.53966    25.648165    5429.2683 
  161500      161.487    376.75566    15.486438    -444.8306   -429.34416    5659.7263   -6817.9175   -7535.2194    31332.316    15.634259    13.539662    25.648148    5429.2662 
  162000      161.987    391.52705    16.093612   -445.41287   -429.31925     6673.015   -7147.2718   -5000.4561    32166.773    15.634261    13.539664     25.64813    5429.2642 
  162500      162.487    388.62313    15.974247   -445.26776   -429.29351    6931.0721     -4533.94   -6962.4893    32289.646    15.634264    13.539666    25.648113    5429.2621 
  163000      162.987    393.10934    16.158652   -445.42763   -429.26897    7220.6626   -3629.7522   -7079.7508    32371.491    15.634266    13.539668    25.648095      5429.26 
  163500      163.487    402.57377    16.547685    -445.7926   -429.24491     6790.578   -3936.8152   -6439.7775    30748.327    15.634268     13.53967    25.648078     5429.258 
  164000      163.987    405.70665    16.676461    -445.8952   -429.21874     7880.638   -2605.2883   -5842.5711    32089.773    15.634271    13.539672     25.64806    5429.2559 
  164500      164.487    360.07233    14.800675   -443.99261   -429.19193    7553.4128   -7029.2119   -5331.2292     35020.68    15.634273    13.539674    25.648043    5429.2538 
  165000      164.987    386.01711    15.867128   -445.03497   -429.16784    6345.8488   -6455.3656   -6981.2494    32474.161    15.634275    13.539676    25.648025    5429.2518 
  165500      165.487     382.9819    15.742366   -444.88461   -429.14225    6479.3126   -7883.0539   -6244.2601    33565.252    15.634278    13.539678    25.648008    5429.2497 
  166000      165.987     383.1859    15.750751   -444.86747   -429.11672    7678.0436   -8663.9357   -5191.8984    36889.965     15.63428    13.539681     25.64799    5429.2476 
  166500      166.487    391.13487    16.077492   -445.16921   -429.09171    7365.1966   -4176.4722   -5945.4202    32217.482    15.634282    13.539683    25.647973    5429.2456 
  167000      166.987    374.83566    15.407517   -444.47404   -429.06652    7580.2568   -5667.6557   -5983.0088    34391.435    15.634285    13.539685    25.647955    5429.2435 
  167500      167.487    397.08076    16.321896   -445.36415   -429.04225    5594.8232   -9905.4197   -4787.1067    31476.996    15.634287    13.539687    25.647938    5429.2414 
  168000      167.987    380.59238    15.644145   -444.66047   -429.01632    7898.2174   -5036.5882   -2683.2465    31414.487     15.63429    13.539689     25.64792    5429.2394 
  168500      168.487    413.38649    16.992139   -445.98365   -428.99151    7249.7197   -4504.9921   -4001.4144    30255.566    15.634292    13.539691    25.647903    5429.2373 
  169000      168.987    392.84709    16.147872   -445.11417    -428.9663    8343.0173   -4797.9403    -4079.377    33906.369    15.634294    13.539693    25.647885    5429.2352 
  169500      169.487    405.71857    16.676951   -445.61738   -428.94043     5909.341   -6127.3898   -6647.7601    30503.173    15.634297    13.539695    25.647868    5429.2332 
  170000      169.987    400.57679    16.465599   -445.38154   -428.91594    5833.8367   -8641.4114   -8433.8206    34576.742    15.634299    13.539697     25.64785    5429.2311 
  170500      170.487    369.42033    15.184922   -444.07585   -428.89093    8670.4116   -2759.3858   -7866.2762    36636.897    15.634301    13.539699    25.647833     5429.229 
  171000      170.987    403.71355    16.594535   -445.46014   -428.86561    5683.1037   -6888.3489    -4577.929    28515.589    15.634304    13.539701    25.647815     5429.227 
  171500      171.487    376.44128    15.473516   -444.31261   -428.83909    7127.0572   -4888.9911   -6116.6365    32386.799    15.634306    13.539703    25.647798    5429.2249 
  172000      171.987    403.62015    16.590696    -445.4061   -428.81541    7001.7339   -9094.0203   -4628.6653    34727.887    15.634308    13.539705     25.64778    5429.2228 
  172500      172.487    398.25228    16.370051   -445.15926   -428.78921    6305.1207   -9165.8058   -4642.4174    32723.585    15.634311    13.539707    25.647763    5429.2208 
  173000      172.987    395.21475    16.245194    -445.0092   -428.76401     7983.105   -3897.7912   -2975.9115    30823.018    15.634313    13.539709    25.647745    5429.2187 
  173500      173.487    417.49017    17.160819   -445.89915   -428.73834    6253.2176   -8597.8653   -4520.0454    31877.563    15.634315    13.539711    25.647728    5429.2166 
  174000      173.987     407.5375    16.751717   -445.46352    -428.7118    6147.3442   -7559.9762   -3903.1667    29905.175    15.634318    13.539713     25.64771    5429.2146 
  174500      174.487    391.13344    16.077433   -444.76303   -428.68559    7188.9353    -7677.214   -1179.3506    30423.371     15.63432    13.539715    25.647693    5429.2125 
  175000      174.987    405.39334    16.663582    -445.3234   -428.65982    7247.9154   -8217.5154   -6772.5311    36733.793    15.634322    13.539717    25.647675    5429.2104 
  175500      175.487    388.25431    15.959087   -444.59339    -428.6343    7121.9761   -8636.5556   -5638.7815    35641.265    15.634325    13.539719    25.647658    5429.2084 
  176000      175.987    402.10663    16.528483   -445.13727   -428.60878    7879.6251   -4325.0891    -5512.418    33476.383    15.634327    13.539722     25.64764    5429.2063 
  176500      176.487    387.62706    15.933304   -444.51555   -428.58225    5870.0126   -6830.2536   -5043.1334    29483.425    15.634329    13.539724    25.647623    5429.2042 
  177000      176.987    392.60147    16.137776   -444.69441   -428.55664    7187.3176   -7405.8686   -5010.1078    33977.929    15.634332    13.539726    25.647605    5429.2022 
  177500      177.487    415.65233    17.085275   -445.61628   -428.53101    6589.1552   -6684.6574   -8202.7533    34654.876    15.634334    13.539728    25.647588    5429.2001 
  178000      177.987    383.33945    15.757063   -444.26189   -428.50483    7308.4765   -8480.2655   -3521.4833    33927.178    15.634337     13.53973     25.64757     5429.198 
  178500      178.487    389.02437     15.99074   -444.46983   -428.47909    7740.1326   -4279.7605   -5122.1312    32622.289    15.634339    13.539732    25.647553     5429.196 
  179000      178.987    415.45683    17.077239   -445.53105   -428.45381    5758.3556    -7702.375   -5726.8987     30704.34    15.634341    13.539734    25.647535    5429.1939 
  179500      179.487    398.59238    16.384031   -444.81187   -428.42784     6538.548   -7033.4874   -4066.5551    30715.686    15.634344    13.539736    25.647518    5429.1918 
  180000      179.987    402.29313    16.536149   -444.93797   -428.40182    8195.9771   -4405.8047   -3536.7861    32530.522    15.634346    13.539738      25.6475    5429.1898 
  180500      180.487    403.27887    16.576668   -444.95343   -428.37676    7003.5683   -5076.5288   -4841.7157    30928.949    15.634348     13.53974    25.647483    5429.1877 
  181000      180.987    410.22197    16.862062   -445.21248   -428.35042    5999.6362   -8266.7446   -758.69816    27024.351    15.634351    13.539742    25.647465    5429.1856 
  181500      181.487    416.94671     17.13848   -445.46362   -428.32514    6206.1734   -8051.5843   -3676.3548    30346.459    15.634353    13.539744    25.647448    5429.1836 
  182000      181.987    417.48625    17.160658   -445.45965     -428.299     6618.029   -4148.1233   -7969.9786    31972.189    15.634355    13.539746     25.64743    5429.1815 
  182500      182.487    405.09024    16.651123   -444.92291   -428.27178      6933.06   -7735.7091   -6339.9388    34874.828    15.634358    13.539748    25.647413    5429.1794 
  183000      182.987     402.6297    16.549984   -444.79612   -428.24614    6932.0583   -4012.4841   -4361.1248    29169.784     15.63436     13.53975    25.647395    5429.1774 
  183500      183.487    410.91691    16.890627   -445.11039   -428.21977     6683.016   -6431.0842   -7326.7748    33806.907    15.634362    13.539752    25.647378    5429.1753 
  184000      183.987     400.3804    16.457527   -444.65088   -428.19335     7166.183   -4263.0631   -7097.8666    32859.479    15.634365    13.539754     25.64736    5429.1732 
  184500      184.487     382.9912    15.742748   -443.91028   -428.16753    7067.7645   -7453.0195   -1977.5585    30633.871    15.634367    13.539756    25.647343    5429.1712 
  185000      184.987    388.74022     15.97906   -444.12182   -428.14276    7979.1316   -5260.0676   -1825.4634    31022.926    15.634369    13.539758    25.647325    5429.1691 
  185500      185.487    403.17478    16.572389   -444.68954   -428.11715    6149.0353   -7425.7561      -3245.8    29118.662    15.634372     13.53976    25.647308     5429.167 
  186000      185.987    394.59482    16.219712   -444.30986   -428.09015    7935.2064   -2474.9337   -5224.7651    31505.318    15.634374    13.539763     25.64729     5429.165 
  186500      186.487     419.7154    17.252287    -445.3163   -428.06401    8512.8512   -1659.7158   -4214.4036    31412.673    15.634376    13.539765    25.647273    5429.1629 
  187000      186.987     393.1259    16.159332    -444.1969   -428.03757    8336.7593   -2559.3969   -4868.1194    32437.794    15.634379    13.539767    25.647255    5429.1608 
  187500      187.487    409.40948    16.828665   -444.84042   -428.01175    7153.2397   -6914.8946    -4563.226     32937.84    15.634381    13.539769    25.647238    5429.1588 
  188000      187.987    388.38797    15.964581   -443.94946   -427.98488     7236.662   -2531.8054   -5594.8925    29836.684    15.634384    13.539771     25.64722    5429.1567 
  188500      188.487    391.51523    16.093126   -444.05125   -427.95812    6769.6609   -5012.7363   -5338.6676    30660.387    15.634386    13.539773    25.647203    5429.1546 
  189000      188.987    400.51771    16.463171   -444.39479   -427.93162    7167.1346   -3150.8643   -5111.7534    29764.022    15.634388    13.539775    25.647185    5429.1526 
  189500      189.487    399.96902    16.440617   -444.34603   -427.90541    7788.3701   -6920.0171   -2149.4804    32434.608    15.634391    13.539777    25.647168    5429.1505 
  190000      189.987    406.84852    16.723397   -444.60187   -427.87847     7683.107    -1625.277   -4464.9136    29139.512    15.634393    13.539779     25.64715    5429.1484 
  190500      190.487    414.98618    17.057893   -444.91097   -427.85308    8430.4504   -3118.3241   -3957.1392    32366.814    15.634395    13.539781    25.647133    5429.1464 
  191000      190.987    436.99363    17.962504   -445.79047   -427.82797    6068.3258   -5987.2264   -4019.9909    28212.195    15.634398    13.539783    25.647115    5429.1443 
  191500      191.487    384.57745    15.807951   -443.60869   -427.80074    7805.1211   -6825.6086    -4636.357    34877.329      15.6344    13.539785    25.647098    5429.1422 
  192000      191.987    401.97877    16.523227   -444.29735   -427.77413    8707.7173   -3520.7295   -6415.4709    36059.352    15.634402    13.539787     25.64708    5429.1402 
  192500      192.487    426.65596    17.537576     -445.286   -427.74843    6833.2282   -3941.9877   -5344.9632    29786.636    15.634405    13.539789    25.647063    5429.1381 
  193000      192.987    422.63516    17.372303   -445.09393   -427.72163    4589.0937   -3548.5424   -7922.5904    25238.414    15.634407    13.539791    25.647045     5429.136 
  193500      193.487     424.2445    17.438454   -445.13205    -427.6936    5584.2745   -7471.3621   -4408.2325    28632.418    15.634409    13.539793    25.647028     5429.134 
  194000      193.987    414.73275    17.047476   -444.71612   -427.66864    7465.7467     -3567.82   -4438.1684    30403.228    15.634412    13.539795     25.64701    5429.1319 
  194500      194.487    371.21039    15.258502     -442.899    -427.6405    8285.2079   -6702.5876   -4953.0848    36511.296    15.634414    13.539797    25.646993    5429.1298 
  195000      194.987    402.02797    16.525249   -444.13997   -427.61472    8152.2064   -6175.4333    -5654.373    36286.426    15.634416    13.539799    25.646975    5429.1278 
  195500      195.487    428.51833    17.614129   -445.20301   -427.58888    8149.2143   -3356.9677   -4462.2996     32266.91    15.634419    13.539801    25.646958    5429.1257 
  196000      195.987    398.34745    16.373963   -443.93561   -427.56165    7876.9892   -4215.1425   -6450.9092    34297.019    15.634421    13.539804     25.64694    5429.1236 
  196500      196.487    424.70749    17.457485   -444.99224   -427.53475    8617.2443   -3206.0476   -5172.6154    34230.396    15.634423    13.539806    25.646923    5429.1216 
  197000      196.987    395.08055    16.239678   -443.74773   -427.50806    7191.6847   -4979.6489   -1594.0689    28148.772    15.634426    13.539808    25.646905    5429.1195 
  197500      197.487    428.63612     17.61897   -445.10041   -427.48144    7024.7232   -9226.4495   -6328.2873    36628.906    15.634428     13.53981    25.646888    5429.1174 
  198000      197.987    395.77888    16.268383   -443.72304   -427.45466    8298.7838   -6605.0902   -4105.7426    35607.184    15.634431    13.539812     25.64687    5429.1154 
  198500      198.487    402.41436    16.541132   -443.96966   -427.42853    8991.5329   -7272.9101   -3165.8435    37413.352    15.634433    13.539814    25.646853    5429.1133 
  199000      198.987    379.79808    15.611496   -443.01207   -427.40058    8849.1665   -3185.1574   -4819.8008    34552.458    15.634435    13.539816    25.646835    5429.1112 
  199500      199.487    437.12046    17.967717   -445.34297   -427.37525    7840.4741   -7303.2426   -4638.5537    35463.219    15.634438    13.539818    25.646818    5429.1092 
  200000      199.987    415.64501    17.084974   -444.43369   -427.34871     7681.551   -2456.3908   -5096.8807    30597.925     15.63444     13.53982      25.6468    5429.1071 
  200500      200.487    428.62622    17.618563   -444.93897   -427.32041    7265.7291   -5733.7174   -6632.3295    34163.234    15.634442    13.539822    25.646783     5429.105 
  201000      200.987     419.6573    17.249898   -444.54327   -427.29337     8163.106   -4516.6382   -3861.6986    32867.655    15.634445    13.539824    25.646765     5429.103 
  201500      201.487    425.47377    17.488983   -444.75508    -427.2661    8292.6946   -4666.5063     -7526.21      37070.8    15.634447    13.539826    25.646748    5429.1009 
  202000      201.987    429.88265    17.670209   -444.90985   -427.23965    9071.7791   -3133.3439   -5648.0985     35996.78    15.634449    13.539828     25.64673    5429.0988 
  202500      202.487    419.10716    17.227285   -444.43881   -427.21153    8267.9116   -2375.6301   -6480.2903    33659.655    15.634452     13.53983    25.646713    5429.0968 
  203000      202.987    431.52908    17.737885   -444.92229   -427.18441     7960.375   -4321.7804   -6433.2998    34636.205    15.634454    13.539832    25.646695    5429.0947 
  203500      203.487     404.1175    16.611139   -443.76792   -427.15679    8984.1188   -5661.0271   -2957.0487    35570.432    15.634456    13.539834    25.646678    5429.0927 
  204000      203.987    395.19473    16.244371   -443.37306   -427.12869    7918.5368   -2150.2789   -6838.0202     32743.91    15.634459    13.539836     25.64666    5429.0906 
  204500      204.487    400.41109    16.458788   -443.56062   -427.10184    7441.4762   -5868.0003    -2834.689    31027.118    15.634461    13.539838    25.646643    5429.0885 
  205000      204.987    441.62635     18.15293   -445.22875   -427.07582    7241.4553    -7415.883   -3865.2784    33005.527    15.634463     13.53984    25.646625    5429.0865 
  205500      205.487    413.05427    16.978483   -444.02784   -427.04936    7665.9142   -6909.6533    -2562.009    32469.405    15.634466    13.539842    25.646608    5429.0844 
  206000      205.987    410.21467    16.861762   -443.88384   -427.02208    9067.0203   -3555.8436   -7184.2428    37941.147    15.634468    13.539845     25.64659    5429.0823 
  206500      206.487    405.71008    16.676602   -443.67086   -426.99426     7023.302   -6136.9274   -3624.1044    30830.938     15.63447    13.539847    25.646573    5429.0803 
  207000      206.987    410.50799    16.873819   -443.84247   -426.96865    7020.5415   -4243.8293   -7526.7262     32832.18    15.634473    13.539849    25.646555    5429.0782 
  207500      207.487    398.23324    16.369268   -443.31062   -426.94135    8700.9568   -4583.9655   -2327.7908    33014.627    15.634475    13.539851    25.646538    5429.0761 
  208000      207.987    449.68396    18.484136   -445.39888   -426.91474    5473.8825   -7169.5999   -6733.3486    30324.596    15.634478    13.539853     25.64652    5429.0741 
  208500      208.487    422.82384    17.380058   -444.26584   -426.88578    6496.9608   -6823.7807   -4336.1953    30650.858     15.63448    13.539855    25.646503     5429.072 
  209000      208.987    410.82533    16.886863   -443.74576    -426.8589    8157.5232   -6278.0727   -4765.2698    35515.912    15.634482    13.539857    25.646485    5429.0699 
  209500      209.487    433.48519     17.81829   -444.65071   -426.83242    7077.0414   -2218.3008   -8911.7221    32361.147    15.634485    13.539859    25.646468    5429.0679 
  210000      209.987    416.73067      17.1296   -443.93366   -426.80406    8291.2502   -6462.6152   -4297.2404    35633.606    15.634487    13.539861     25.64645    5429.0658 
  210500      210.487     429.8098    17.667214   -444.44489   -426.77768    8492.2641   -4159.4725    -4563.717    34199.982    15.634489    13.539863    25.646433    5429.0637 
  211000      210.987    453.63332    18.646473   -445.39754   -426.75107     7764.298   -1693.2499   -7887.5908    32873.735    15.634492    13.539865    25.646415    5429.0617 
  211500      211.487    428.85529    17.627979    -444.3509   -426.72292    8088.5353   -4309.2834   -7097.9543    35672.844    15.634494    13.539867    25.646398    5429.0596 
  212000      211.987    414.91108    17.054806   -443.75103   -426.69622    7775.6161   -7470.7969   -1958.7467    32756.392    15.634496    13.539869     25.64638    5429.0575 
[...]
  948500      948.487    569.40229    23.405125   -438.47291   -415.06778    13746.884   -1204.3001    6571.6771    35873.276    15.637958    13.542889    25.620603    5426.0114 
  949000      948.987    557.23257    22.904892   -437.97087   -415.06598    12972.707   -1014.0667    443.11712     39489.07     15.63796    13.542891    25.620585    5426.0093 
  949500      949.487    598.15387    24.586951    -439.6552   -415.06825     11879.98   -342.04585   -3887.3003    39869.287    15.637963    13.542893    25.620568    5426.0072 
  950000      949.987    581.31699    23.894876   -438.96221   -415.06733    13660.622   -819.83064     631.2596    41170.438    15.637965    13.542895     25.62055    5426.0051 
  950500      950.487    554.16817    22.778931    -437.8429   -415.06397      14214.6   -76.090865    2085.1349    40634.755    15.637967    13.542897    25.620533    5426.0031 
  951000      950.987    589.59958    24.235329   -439.29798   -415.06265    12190.325   -5667.3193    4460.3674    37777.927     15.63797    13.542899    25.620515     5426.001 
  951500      951.487    570.06093    23.432199   -438.49551   -415.06331    14290.884    5442.8089   -542.64513    37972.489    15.637972    13.542901    25.620498    5425.9989 
  952000      951.987    576.46128    23.695283   -438.75761   -415.06233    13598.786    1065.3263   -1067.4637    40798.495    15.637974    13.542903     25.62048    5425.9969 
  952500      952.487    582.11304    23.927597   -438.98827   -415.06067    12906.097   -1855.9535   -900.14864    41474.394    15.637977    13.542905    25.620463    5425.9948 
  953000      952.987    552.31341    22.702692   -437.76072   -415.05803    12927.479   -687.58837   -1669.4432    41139.469    15.637979    13.542907    25.620445    5425.9927 
  953500      953.487    590.58966    24.276026   -439.33268   -415.05666    11579.571   -1894.5973   -1011.0222    37644.334    15.637981    13.542909    25.620428    5425.9907 
  954000      953.987    573.53732    23.575095   -438.63271   -415.05761    11974.268   -3464.0282    1092.6452    38294.187    15.637984    13.542911     25.62041    5425.9886 
  954500      954.487    582.07669    23.926103   -438.98129   -415.05519    13288.881   -1558.0956    937.69712    40487.042    15.637986    13.542913    25.620393    5425.9865 
  955000      954.987    579.25373    23.810066   -438.86412   -415.05406     12100.21   -2099.5816   -2875.3699    41275.583    15.637988    13.542915    25.620375    5425.9844 
  955500      955.487    558.25388    22.946873   -437.99806   -415.05119    13145.112    4046.8882    707.15563    34681.292    15.637991    13.542917    25.620358    5425.9824 
  956000      955.987    538.31335    22.127223    -437.1763   -415.04908    13252.716   -1706.1317    1132.7792      40331.5    15.637993     13.54292     25.62034    5425.9803 
  956500      956.487    562.60854     23.12587   -438.17204   -415.04617    11896.093    2090.6022   -5852.1434    39449.821    15.637995    13.542922    25.620323    5425.9782 
  957000      956.987    568.56061    23.370528   -438.41618   -415.04565    12775.269   -2366.0913    4885.8491    35806.049    15.637998    13.542924    25.620305    5425.9762 
  957500      957.487      573.542    23.575287   -438.61793   -415.04264    13214.142    1901.4324   -2521.2273    40262.219       15.638    13.542926    25.620288    5425.9741 
  958000      957.987    562.19025    23.108676   -438.14847    -415.0398    14250.517    3386.4522    2364.5076    37000.592    15.638003    13.542928     25.62027     5425.972 
  958500      958.487    568.12346    23.352559    -438.3912   -415.03864     13305.14   -2846.7559   -1184.1134     43946.29    15.638005     13.54293    25.620253      5425.97 
  959000      958.987    551.29443    22.660807   -437.69539   -415.03459    14016.097   -2274.6584     1600.182    42722.768    15.638007    13.542932    25.620235    5425.9679 
  959500      959.487    561.41202    23.076687   -438.11078   -415.03409    12552.556   -829.80248     487.7649    37999.706     15.63801    13.542934    25.620218    5425.9658 
  960000      959.987    559.77166    23.009261    -438.0436   -415.03433    12762.922   -474.50015   -1262.4662    40025.734    15.638012    13.542936      25.6202    5425.9638 
  960500      960.487    578.61649    23.783872   -438.81652   -415.03265    11873.194   -4919.0215    28.715042    40509.889    15.638014    13.542938    25.620183    5425.9617 
  961000      960.987    594.26964    24.427291   -439.45969    -415.0324    12852.475   -3626.4004    1832.0537    40351.773    15.638017     13.54294    25.620165    5425.9596 
  961500      961.487    539.04638    22.157354   -437.18247   -415.02512    12384.241   -4566.4401    2524.9576    39194.205    15.638019    13.542942    25.620148    5425.9575 
  962000      961.987    545.21479    22.410905   -437.43282   -415.02191     13372.93    368.05158   -932.35755    40683.097    15.638021    13.542944     25.62013    5425.9555 
  962500      962.487     559.1849    22.985142   -438.00359   -415.01845    13328.283    497.70398     2316.873    37170.272    15.638024    13.542946    25.620113    5425.9534 
  963000      962.987    594.83698    24.450611     -439.469   -415.01839    13550.292   -1656.9047    1358.0983    40949.682    15.638026    13.542948    25.620095    5425.9513 
  963500      963.487     578.4004     23.77499      -438.79   -415.01501    13168.637   -2403.2453    1862.7279     40046.43    15.638028     13.54295    25.620078    5425.9493 
  964000      963.987    533.11021    21.913349   -436.92546   -415.01211    13287.244   -6471.3373    2816.3724    43516.697    15.638031    13.542952     25.62006    5425.9472 
  964500      964.487    580.48767    23.860787   -438.87252   -415.01173    11682.566   -3656.1829   -3102.9705    41806.851    15.638033    13.542954    25.620043    5425.9451 
  965000      964.987    567.21165     23.31508   -438.32669   -415.01161    14372.385   -2223.1724    3309.4404    42030.887    15.638035    13.542956    25.620025    5425.9431 
  965500      965.487    564.18446    23.190648   -438.19941   -415.00876    13993.382   -3830.0539    1688.8246    44121.374    15.638038    13.542958    25.620008     5425.941 
  966000      965.987    578.48898    23.778631   -438.78479   -415.00616    12014.058    723.12432   -1001.6264    36320.677     15.63804    13.542961     25.61999    5425.9389 
  966500      966.487    544.64617    22.387532   -437.38799   -415.00046     14115.25   -644.74423   -2497.7537    45488.247    15.638042    13.542963    25.619973    5425.9368 
  967000      966.987    555.12293    22.818176    -437.8151   -414.99692    12475.028   -6847.4645   -913.26894    45185.818    15.638045    13.542965    25.619955    5425.9348 
  967500      967.487    549.84509    22.601232   -437.59698   -414.99575    11600.958   -3004.9576    3298.4726     34509.36    15.638047    13.542967    25.619938    5425.9327 
  968000      967.987    574.86198    23.629544   -438.62036   -414.99081    12575.239   -3106.1531      1973.05     38858.82     15.63805    13.542969     25.61992    5425.9306 
  968500      968.487    548.12061    22.530348   -437.51831   -414.98797     13947.44   -2195.3346    3236.0318    40801.624    15.638052    13.542971    25.619903    5425.9286 
  969000      968.987    562.43918    23.118908   -438.10193   -414.98302    13514.154    6833.6376   -566.28751    34275.112    15.638054    13.542973    25.619885    5425.9265 
  969500      969.487    574.74587    23.624771   -438.60313   -414.97836    12556.694   -6587.1579    7182.5667    37074.673    15.638057    13.542975    25.619868    5425.9244 
  970000      969.987      558.479    22.956126   -437.92973    -414.9736    11737.527   -4824.2293    1666.2927    38370.518    15.638059    13.542977     25.61985    5425.9224 
  970500      970.487    596.85839    24.533701   -439.50246   -414.96876    12145.198    -2690.826    2431.7657    36694.653    15.638061    13.542979    25.619833    5425.9203 
  971000      970.987    581.33794    23.895737   -438.86082   -414.96508    13041.741    -164.5881    982.11497    38307.697    15.638064    13.542981    25.619815    5425.9182 
  971500      971.487    590.20786    24.260333   -439.22247   -414.96213    12038.582   -3864.9334    51.414914    39929.265    15.638066    13.542983    25.619798    5425.9162 
  972000      971.987    582.69125    23.951364   -438.91159   -414.96023    11716.669   -3558.1501    2907.8107    35800.347    15.638068    13.542985     25.61978    5425.9141 
  972500      972.487    546.01977    22.443993   -437.40048   -414.95649    13571.889     -1913.99    841.10814    41788.549    15.638071    13.542987    25.619763     5425.912 
  973000      972.987    578.12063     23.76349   -438.71706   -414.95357    12405.639    34.754863    377.44597    36804.716    15.638073    13.542989    25.619745    5425.9099 
  973500      973.487    558.27476    22.947731   -437.89495   -414.94722    13796.381   -1358.2381    2827.5057    39919.877    15.638075    13.542991    25.619728    5425.9079 
  974000      973.987    557.20251    22.903657   -437.84569   -414.94203     13727.23   -684.25394    4604.2065    37261.736    15.638078    13.542993     25.61971    5425.9058 
  974500      974.487      571.093    23.474621   -438.41476   -414.94014     13862.16    369.19999    635.98565    40581.294     15.63808    13.542995    25.619693    5425.9037 
  975000      974.987    580.30843    23.853419   -438.79127   -414.93785    12742.804   -3144.6879    2958.5093     38414.59    15.638082    13.542997    25.619675    5425.9017 
  975500      975.487    546.02348    22.444146   -437.37561   -414.93147    14121.174    593.33357    857.17669    40913.012    15.638085    13.542999    25.619658    5425.8996 
  976000      975.987    581.77691    23.913781    -438.8419   -414.92812    14070.895    -901.9094    904.20855    42210.386    15.638087    13.543002     25.61964    5425.8975 
  976500      976.487    592.85197    24.369018   -439.29143   -414.92241    12531.069   -2638.9893    1520.1692    38712.027    15.638089    13.543004    25.619623    5425.8955 
  977000      976.987    578.10424    23.762816    -438.6822   -414.91938    12235.319   -5159.9878     2320.093     39545.85    15.638092    13.543006    25.619605    5425.8934 
  977500      977.487    555.02297    22.814067   -437.72829   -414.91422    12003.074   -1618.9902    5275.0423    32353.169    15.638094    13.543008    25.619588    5425.8913 
  978000      977.987    549.87319    22.602387   -437.51386   -414.91147    10005.631   -4722.4237   -505.78054    35245.098    15.638097     13.54301     25.61957    5425.8892 
  978500      978.487     587.8078    24.161678      -439.07   -414.90832     11670.39   -3526.9187   -304.31398    38842.402    15.638099    13.543012    25.619553    5425.8872 
  979000      978.987    549.70501    22.595474   -437.49918    -414.9037    15029.152   -3354.5124    2617.4762    45824.493    15.638101    13.543014    25.619535    5425.8851 
  979500      979.487    572.36835    23.527044   -438.42677   -414.89972     12533.59    32.589088    1866.0168    35702.164    15.638104    13.543016    25.619518     5425.883 
  980000      979.987    579.66864    23.827121   -438.72081   -414.89369    12056.369   -5445.6779    1165.3484    40449.436    15.638106    13.543018      25.6195     5425.881 
  980500      980.487    563.56055    23.165002   -438.05238   -414.88738    12617.939   -1389.0793    3084.8818    36158.015    15.638108     13.54302    25.619483    5425.8789 
  981000      980.987    572.64561    23.538441   -438.42288   -414.88444    12438.571    3339.6792   -2490.9024    36466.935    15.638111    13.543022    25.619465    5425.8768 
  981500      981.487    581.12734     23.88708   -438.76602   -414.87894    12835.919    1915.0874    1606.0988    34986.569    15.638113    13.543024    25.619448    5425.8748 
  982000      981.987     567.4106    23.323257   -438.19901   -414.87575    13493.103   -969.22421   -1795.5114    43244.045    15.638115    13.543026     25.61943    5425.8727 
  982500      982.487    582.43618     23.94088   -438.81127   -414.87039     14042.58   -3453.0258     -709.446     46290.21    15.638118    13.543028    25.619413    5425.8706 
  983000      982.987    543.15258    22.326138   -437.19061   -414.86448    12941.194   -1259.5396    813.08141    39270.041     15.63812     13.54303    25.619395    5425.8686 
  983500      983.487    574.26622    23.605056   -438.46555   -414.86049    14719.139     1158.502    4612.3434    38386.571    15.638122    13.543032    25.619378    5425.8665 
  984000      983.987    602.89677    24.781907   -439.63704   -414.85513    13482.587    2391.1209   -2098.0256    40154.667    15.638125    13.543034     25.61936    5425.8644 
  984500      984.487    578.59149    23.782845   -438.63173   -414.84888    12316.407    686.15868    1459.8796    34803.183    15.638127    13.543036    25.619343    5425.8623 
  985000      984.987    564.83822     23.21752   -438.06074   -414.84322    13888.452   -798.60343    476.97454    41986.986    15.638129    13.543038    25.619325    5425.8603 
  985500      985.487    581.26052    23.892554   -438.73048   -414.83793    12670.899   -1349.2022    2823.7145    36538.185    15.638132     13.54304    25.619308    5425.8582 
  986000      985.987    593.58617    24.399197    -439.2351    -414.8359    10607.702   -5813.9335    1409.0762    36227.964    15.638134    13.543043     25.61929    5425.8561 
  986500      986.487    550.22942     22.61703   -437.44714   -414.83011    13664.184   -3368.9736    3988.8822    40372.643    15.638136    13.543045    25.619273    5425.8541 
  987000      986.987    572.08737    23.515495   -438.34222   -414.82673     12097.54   -4975.8944    2351.4489    38917.066    15.638139    13.543047    25.619255     5425.852 
  987500      987.487    564.93891    23.221659   -438.04257   -414.82091    13402.601   -2203.7908    4593.1522    37818.443    15.638141    13.543049    25.619238    5425.8499 
  988000      987.987    565.07571    23.227282    -438.0439   -414.81662    11813.085   -4161.0869    4013.2419      35587.1    15.638144    13.543051     25.61922    5425.8479 
  988500      988.487    579.35104    23.814066   -438.62482   -414.81076    13527.325    715.43436    966.52445    38900.015    15.638146    13.543053    25.619203    5425.8458 
  989000      988.987    582.78761    23.955325   -438.76166   -414.80633     12195.55    -5671.893    2459.9329     39798.61    15.638148    13.543055    25.619185    5425.8437 
  989500      989.487    576.77976    23.708374   -438.50997    -414.8016    13632.981    2936.1133   -676.21151    38639.041    15.638151    13.543057    25.619168    5425.8416 
  990000      989.987    586.62002    24.112855   -438.90903   -414.79617    11371.209   -3450.4546    1104.4976    36459.584    15.638153    13.543059     25.61915    5425.8396 
  990500      990.487    555.57316    22.836683   -437.62753   -414.79084    12299.015   -2013.0504    3934.6722    34975.424    15.638155    13.543061    25.619133    5425.8375 
  991000      990.987    532.47438    21.887214   -436.67279   -414.78558    15186.499    2582.3967   -1441.8128    44418.914    15.638158    13.543063    25.619115    5425.8354 
  991500      991.487    575.21028    23.643861   -438.42557   -414.78171     11119.54   -693.53011    425.31106     33626.84     15.63816    13.543065    25.619098    5425.8334 
  992000      991.987    560.05131    23.020756    -437.7998   -414.77905    13260.679   -1471.6181    1317.1276    39936.528    15.638162    13.543067     25.61908    5425.8313 
  992500      992.487     564.0878    23.186675   -437.95846   -414.77178     12211.02   -640.75595    1323.6408    35950.174    15.638165    13.543069    25.619063    5425.8292 
  993000      992.987    588.19333    24.177526   -438.94583   -414.76831    14272.731    697.32808    2992.0635    39128.801    15.638167    13.543071    25.619045    5425.8272 
  993500      993.487    537.31137    22.086037   -436.84719   -414.76115    14495.504   -1985.5089    7088.8001    38383.222    15.638169    13.543073    25.619028    5425.8251 
  994000      993.987    583.53374    23.985995   -438.74363   -414.75763     13005.66    990.25301   -1419.7172    39446.445    15.638172    13.543075     25.61901     5425.823 
  994500      994.487    551.84831    22.683573   -437.43426   -414.75069    14418.195    425.10933    134.29842    42695.176    15.638174    13.543077    25.618993     5425.821 
  995000      994.987    601.98974    24.744623    -439.4915   -414.74687    12501.185   -4694.3429   -1052.7823    43250.681    15.638176    13.543079    25.618975    5425.8189 
  995500      995.487    538.57266    22.137882   -436.87681   -414.73892    15440.957    3088.6203    1138.1878    42096.062    15.638179    13.543081    25.618958    5425.8168 
  996000      995.987     565.4271    23.241726   -437.97362   -414.73189    14103.655    3376.4914    1219.2405    37715.232    15.638181    13.543084     25.61894    5425.8147 
  996500      996.487    567.79993    23.339261   -438.06273   -414.72347    12681.869    -2125.482    3049.7106     37121.38    15.638183    13.543086    25.618923    5425.8127 
  997000      996.987    590.27906    24.263259   -438.98154   -414.71828    13191.391   -2070.6762   -222.85183    41867.702    15.638186    13.543088    25.618905    5425.8106 
  997500      997.487    591.21155    24.301589   -439.01157   -414.70998    13884.192    359.37317    1792.7649    39500.438    15.638188     13.54309    25.618888    5425.8085 
  998000      997.987    579.00085    23.799671   -438.50425   -414.70458    13108.349   -3407.0833    1337.4767    41394.654    15.638191    13.543092     25.61887    5425.8065 
  998500      998.487    554.91231    22.809519   -437.50624   -414.69672    12742.026   -896.12564    1623.7658    37498.437    15.638193    13.543094    25.618853    5425.8044 
  999000      998.987    573.41399    23.570025   -438.26259   -414.69256    12709.829   -2627.1029    670.81903    40085.772    15.638195    13.543096    25.618835    5425.8023 
  999500      999.487     591.3455    24.307095   -438.99406   -414.68696    13675.803    -313.0078    1569.0708    39771.345    15.638198    13.543098    25.618818    5425.8003 
 1000000      999.987    548.52667    22.547038   -437.22415   -414.67711    15310.492    2820.6956    1723.9754    41386.805      15.6382      13.5431      25.6188    5425.7982 
 1000013         1000    552.85183    22.724823   -437.40244   -414.67762    14763.165    2182.5106    4519.6831    37587.301      15.6382      13.5431      25.6188    5425.7981 
Loop time of 972.644 on 28 procs for 1000000 steps with 319 atoms

Performance: 88.830 ns/day, 0.270 hours/ns, 1028.125 timesteps/s
87.7% CPU use with 28 MPI tasks x no OpenMP threads

MPI task timing breakdown:
Section |  min time  |  avg time  |  max time  |%varavg| %total
---------------------------------------------------------------
Pair    | 766.37     | 829.48     | 901.11     |  94.8 | 85.28
Neigh   | 0.032511   | 0.04914    | 0.067812   |   4.5 |  0.01
Comm    | 61.208     | 131.68     | 192.54     | 232.5 | 13.54
Output  | 0.10279    | 0.10502    | 0.12744    |   1.4 |  0.01
Modify  | 5.047      | 6.2342     | 8.1489     |  33.4 |  0.64
Other   |            | 5.095      |            |       |  0.52

Nlocal:    11.3929 ave 16 max 6 min
Histogram: 1 4 1 1 3 0 8 4 1 5
Nghost:    675.964 ave 714 max 649 min
Histogram: 2 2 6 5 5 2 3 0 2 1
Neighs:    726.821 ave 1087 max 407 min
Histogram: 5 1 2 2 2 7 3 2 3 1
FullNghs:  1453.64 ave 2076 max 782 min
Histogram: 4 2 1 3 0 8 4 0 5 1

Total # of neighbors = 40702
Ave neighs/atom = 127.592
Neighbor list builds = 713
Dangerous builds = 0

write_restart   POSCAR_1x1x1.rest

#unfix    1
#undump   1
Total wall time: 0:16:12
