LAMMPS (7 Dec 2015)
#----------- Initialize Simulation ------------ restart01
#processors	2 2 2
units		metal
boundary	p p p     ## periodic boundary condition  on x y z axis ##
atom_style atomic
#atom_modify map array sort 0 0.0

read_data	POSCAR_1x1x1.lammps
  triclinic box = (0 0 0) to (15.5574 13.4731 26.2136) with tilt (-7.7786 0 0)
  2 by 2 by 7 MPI processor grid
  reading atoms ...
  319 atoms

#----------- Define Potential -----------------
pair_style meam
pair_coeff * * MgAlZn.library.meam Mg Al Zn MgAlZn.parameter.meam Mg Al Zn 	#1=Mg 2=Al 3=Zn	#atoms/mass

#----------- Neighbor List --------------------
neighbor 2.0 bin
neigh_modify delay 10 check yes

#--------------  Run a simulation (minimization) ---------------------------------------
minimize       1.0e-4   1.0e-6   100   1000          #結構優化的條件
WARNING: Resetting reneighboring criteria during minimization (../min.cpp:168)
Neighbor list info ...
  2 neighbor list requests
  update every 1 steps, delay 0 steps, check yes
  max neighbors/atom: 2000, page size: 100000
  master list distance cutoff = 8
  ghost atom cutoff = 8
  binsize = 4 -> bins = 6 4 7
Memory usage per processor = 8.65547 Mbytes
Step Temp E_pair E_mol TotEng Press 
       0            0   -437.68467            0   -437.68467    4445.8441 
      12            0   -459.45762            0   -459.45762   -12496.259 
Loop time of 0.0200924 on 28 procs for 12 steps with 319 atoms

88.5% CPU use with 28 MPI tasks x no OpenMP threads

Minimization stats:
  Stopping criterion = energy tolerance
  Energy initial, next-to-last, final = 
         -437.68466915     -459.420579908     -459.457615184
  Force two-norm initial, final = 20.6919 0.749743
  Force max component initial, final = 3.13051 0.176441
  Final line search alpha, max atom move = 0.307495 0.0542547
  Iterations, force evaluations = 12 20

MPI task timing breakdown:
Section |  min time  |  avg time  |  max time  |%varavg| %total
---------------------------------------------------------------
Pair    | 0.015604   | 0.01658    | 0.018073   |   0.4 | 82.52
Neigh   | 0          | 0          | 0          |   0.0 |  0.00
Comm    | 0.001176   | 0.0026534  | 0.0036018  |   1.0 | 13.21
Output  | 0          | 0          | 0          |   0.0 |  0.00
Modify  | 0          | 0          | 0          |   0.0 |  0.00
Other   |            | 0.0008587  |            |       |  4.27

Nlocal:    11.3929 ave 16 max 6 min
Histogram: 1 1 2 4 1 4 7 1 4 3
Nghost:    660.429 ave 674 max 646 min
Histogram: 2 4 1 2 3 4 5 1 4 2
Neighs:    720.5 ave 1048 max 391 min
Histogram: 2 2 3 2 4 5 3 3 2 2
FullNghs:  1441 ave 2058 max 764 min
Histogram: 1 3 3 2 4 5 3 2 3 2

Total # of neighbors = 40348
Ave neighs/atom = 126.483
Neighbor list builds = 0
Dangerous builds = 0
velocity all  create 600.0 4928459 #rot yes dist gaussian

#--------------  Run a simulation (Relaxation)  ----------------------------------------
fix  1  all  nvt   temp  600.0  600.0  100				#damping constant
#fix  2  all  npt   temp  393.0  393.0  50 iso 0.0 0.0 1000.0
fix  2  all deform 1 x final 0 15.5621 y final 0 13.4772 z final 0 26.1786 xy final -7.78095 units lattice
#fix  3  all  npt   temp  393.0  393.0  50 z 0.0 0.0 1000.0

#variable b equal 1
#fix 2 all efield  0.0  0.0  v_b
#compute pot all pe/atom


#----------- Output --------------------------
thermo	 500
timestep  0.001		#1.0 fs
thermo_style	custom step time temp ke pe etotal press pxx pyy pzz lx ly lz vol

dump 1 all custom 10000 dump.eq id type x y z
dump_modify 1 sort  id

run        1000000	#1000 ps
Neighbor list info ...
  2 neighbor list requests
  update every 1 steps, delay 10 steps, check yes
  max neighbors/atom: 2000, page size: 100000
  master list distance cutoff = 8
  ghost atom cutoff = 8
  binsize = 4 -> bins = 6 4 7
Memory usage per processor = 7.56249 Mbytes
Step Time Temp KinEng PotEng TotEng Press Pxx Pyy Pzz Lx Ly Lz Volume 
      12            0          600    24.662836   -459.45762   -434.79478   -7701.8963   -14667.953   -10776.057    2338.3209      15.5574      13.4731      26.2136    5494.5385 
     500        0.488    291.16581    11.968291   -446.75849    -434.7902   -1999.2175    -14395.89   -6405.6249    14803.862    15.557402    13.473102    26.213583    5494.5365 
    1000        0.988    307.93881     12.65774   -447.44718   -434.78943   -1376.9702    -10511.04   -5613.9816    11994.111    15.557405    13.473104    26.213565    5494.5345 
    1500        1.488    324.77084    13.349616   -448.13855   -434.78893   -569.39001   -9164.7286   -6108.7757    13565.334    15.557407    13.473106    26.213548    5494.5325 
    2000        1.988     316.0107    12.989533   -447.77735   -434.78781   -1258.0192   -10651.864   -4607.4935      11485.3    15.557409    13.473108     26.21353    5494.5305 
    2500        2.488    305.13192    12.542364   -447.32872   -434.78635   -392.77066   -9364.6258   -6069.6578    14255.972    15.557412     13.47311    26.213513    5494.5285 
    3000        2.988    316.79854    13.021917   -447.80656   -434.78465   -664.29472   -10704.491   -3896.6517    12608.258    15.557414    13.473112    26.213495    5494.5265 
    3500        3.488    292.17637     12.00983   -446.79193    -434.7821   -68.222475   -9681.3446   -4009.2242    13485.901    15.557416    13.473114    26.213478    5494.5245 
    4000        3.988    307.77888    12.651167    -447.4313   -434.78014   -868.76296   -12509.327   -3283.3197    13186.358    15.557419    13.473116     26.21346    5494.5225 
    4500        4.488    307.45874    12.638007   -447.41511   -434.77711   -1024.1603    -10177.67   -7546.5075    14651.697    15.557421    13.473118    26.213443    5494.5205 
    5000        4.988    307.31626    12.632151    -447.4063   -434.77415   -983.77424   -7095.2462   -7775.1843    11919.108    15.557423     13.47312    26.213425    5494.5185 
    5500        5.488    312.44872    12.843119   -447.61442    -434.7713    -1196.451   -8439.6009   -7008.4555    11858.703    15.557426    13.473123    26.213408    5494.5165 
    6000        5.988    326.65197     13.42694   -448.19456   -434.76762   -1252.9925   -12681.004   -5217.1484    14139.174    15.557428    13.473125     26.21339    5494.5145 
    6500        6.488    311.38816    12.799525   -447.56323   -434.76371   -143.81572   -9677.7004    -5800.321    15046.574     15.55743    13.473127    26.213373    5494.5125 
    7000        6.988     323.7086    13.305953   -448.06554   -434.75958   -1150.7801   -9432.3103   -7133.4868    13113.457    15.557433    13.473129    26.213355    5494.5105 
    7500        7.488    332.23566    13.656456   -448.41176    -434.7553   -1361.7543   -10571.435   -7046.2183     13532.39    15.557435    13.473131    26.213338    5494.5085 
    8000        7.988    301.70291    12.401415   -447.15148   -434.75006   -838.58049   -8837.6139   -2783.6026    9105.4751    15.557438    13.473133     26.21332    5494.5065 
    8500        8.488    311.05423    12.785799   -447.53098   -434.74518    380.60541    -10324.23   -6275.1083    17741.155     15.55744    13.473135    26.213303    5494.5045 
    9000        8.988    311.54261    12.805873   -447.54595   -434.74008   -1417.6202   -11733.641   -3523.8342    11004.615    15.557442    13.473137    26.213285    5494.5025 
    9500        9.488    330.97888    13.604796   -448.33919    -434.7344   -1685.3044   -11819.061   -6642.6519      13405.8    15.557445    13.473139    26.213268    5494.5005 
   10000        9.988    315.23166    12.957511   -447.68551     -434.728   -818.61491   -9004.3629   -6331.5669    12880.085    15.557447    13.473141     26.21325    5494.4985 
   10500       10.488    307.62003    12.644637   -447.36599   -434.72135   -1231.2924   -10679.879   -5867.8746    12853.876    15.557449    13.473143    26.213233    5494.4965 
   11000       10.988    294.53182     12.10665   -446.82129   -434.71464   -329.95345     -8878.63   -7103.3671    14992.137    15.557452    13.473145    26.213215    5494.4945 
   11500       11.488    294.27305    12.096013   -446.80376   -434.70775   -556.46501   -9163.1177   -5647.2047    13140.927    15.557454    13.473147    26.213198    5494.4925 
   12000       11.988    321.28908      13.2065   -447.90765   -434.70115   -1784.8201   -12036.236   -3682.4206    10364.196    15.557456    13.473149     26.21318    5494.4905 
   12500       12.488    300.47354    12.350883   -447.04379   -434.69291   -1071.1251   -11748.645   -6502.2989    15037.569    15.557459    13.473151    26.213163    5494.4885 
   13000       12.988     314.9165    12.944556   -447.62967   -434.68511   -956.66584   -9734.9481    -3673.253    10538.204    15.557461    13.473153    26.213145    5494.4865 
   13500       13.488    295.83554    12.160239     -446.837   -434.67676   -834.97576   -11172.309    -4119.348     12786.73    15.557463    13.473155    26.213128    5494.4845 
   14000       13.988    308.90958    12.697644   -447.36574    -434.6681   -995.43043   -8121.3965   -5811.2829    10946.388    15.557466    13.473157     26.21311    5494.4825 
   14500       14.488    284.05524    11.676013   -446.33526   -434.65925   -22.805124   -10325.608   -5075.3624    15332.555    15.557468    13.473159    26.213093    5494.4805 
   15000       14.988    310.93769    12.781009   -447.43134   -434.65033   -887.28635   -10038.508   -5888.0581    13264.707     15.55747    13.473161    26.213075    5494.4785 
   15500       15.488    295.42092    12.143196   -446.78364   -434.64044   -1022.0705   -11266.809   -7774.7414    15975.339    15.557473    13.473164    26.213058    5494.4765 
   16000       15.988    310.46908    12.761747   -447.39259   -434.63085    355.93057   -8666.0644   -4855.2749    14589.131    15.557475    13.473166     26.21304    5494.4745 
   16500       16.488    307.85816    12.654426   -447.27555   -434.62113   -886.89238   -9838.4522   -5308.5811    12486.356    15.557477    13.473168    26.213023    5494.4725 
   17000       16.988    320.80038    13.186412   -447.79712    -434.6107   -892.05269   -10968.696   -5387.8474    13680.385     15.55748     13.47317    26.213005    5494.4705 
   17500       17.488    308.51442    12.681401    -447.2811    -434.5997     -245.356   -8457.8726   -6213.5574    13935.362    15.557482    13.473172    26.212988    5494.4685 
   18000       17.988    324.12166    13.322932   -447.91255   -434.58962   -1429.5104   -9616.3632   -5754.8783     11082.71    15.557485    13.473174     26.21297    5494.4665 
   18500       18.488    300.16207     12.33808   -446.91571   -434.57763    237.95835   -7464.3552   -3520.6352    11698.865    15.557487    13.473176    26.212953    5494.4645 
   19000       18.988    315.86429    12.983515   -447.54982    -434.5663   -1405.5281   -8848.3105   -5601.8089    10233.535    15.557489    13.473178    26.212935    5494.4624 
   19500       19.488    311.20501    12.791997   -447.34658   -434.55458   -1203.2993   -9121.9565   -6178.8959    11690.954    15.557492     13.47318    26.212918    5494.4604 
   20000       19.988    339.77854    13.966504   -448.50986   -434.54335   -1601.2177   -9822.4644   -6510.7222    11529.533    15.557494    13.473182      26.2129    5494.4584 
   20500       20.488    325.69917    13.387775   -447.91874   -434.53097   -1412.6979   -8523.7545   -6948.3686    11234.029    15.557496    13.473184    26.212883    5494.4564 
   21000       20.988    323.02215    13.277737   -447.79548   -434.51774   -1685.6879   -13477.598   -5805.4124    14225.947    15.557499    13.473186    26.212865    5494.4544 
   21500       21.488    312.25402    12.835116   -447.34011     -434.505   -1471.3739   -9541.1172   -5799.0115    10926.007    15.557501    13.473188    26.212848    5494.4524 
   22000       21.988    299.30097    12.302684   -446.79394   -434.49126   -411.45699   -10860.029   -6400.9069    16026.565    15.557503     13.47319     26.21283    5494.4504 
   22500       22.488    298.09755    12.253218    -446.7307   -434.47748    103.65528   -9549.8509   -3056.3178    12917.135    15.557506    13.473192    26.212813    5494.4484 
   23000       22.988    310.19753    12.750585   -447.21487   -434.46429   -598.64498   -11087.167   -4505.7975     13797.03    15.557508    13.473194    26.212795    5494.4464 
   23500       23.488    321.70211    13.223477   -447.67404   -434.45056   -1458.2646   -9925.1651   -8340.7579    13891.129     15.55751    13.473196    26.212778    5494.4444 
   24000       23.988    312.60956    12.849731   -447.28553    -434.4358   -634.87875   -9169.5112   -5688.5743    12953.449    15.557513    13.473198     26.21276    5494.4424 
   24500       24.488    330.67365     13.59225   -448.01417   -434.42192   -1212.5357   -10958.423   -4299.9472    11620.763    15.557515      13.4732    26.212743    5494.4404 
   25000       24.988    314.33532    12.920667   -447.32767     -434.407   -1147.6394    -10743.84   -4182.9567    11483.878    15.557517    13.473202    26.212725    5494.4384 
   25500       25.488     308.2296    12.669693   -447.06086   -434.39117   -426.39104   -7438.6907    -6767.273    12926.791     15.55752    13.473205    26.212708    5494.4364 
   26000       25.988    301.91536    12.410148    -446.7862   -434.37605   -565.72921   -8574.3986   -6374.4366    13251.648    15.557522    13.473207     26.21269    5494.4344 
   26500       26.488    308.96446    12.699899   -447.06044   -434.36054   -436.26784   -9965.6601   -5880.0402    14536.897    15.557524    13.473209    26.212673    5494.4324 
   27000       26.988    322.80097    13.268645   -447.61343   -434.34478   -1369.5979   -10115.569   -8438.4359    14445.211    15.557527    13.473211    26.212655    5494.4304 
   27500       27.488    318.59789    13.095879   -447.42431   -434.32843   -761.82344   -10671.615   -4398.6339    12784.778    15.557529    13.473213    26.212638    5494.4284 
   28000       27.988    312.80263    12.857666   -447.16989   -434.31223    -1145.792   -11854.414   -4260.9143    12677.952    15.557532    13.473215     26.21262    5494.4264 
   28500       28.488    316.59213    13.013433   -447.30917   -434.29574   -473.77587   -10782.207   -2267.6246    11628.504    15.557534    13.473217    26.212603    5494.4244 
   29000       28.988    320.82813    13.187553   -447.46612   -434.27857   -1238.2398    -9355.813   -6498.0681    12139.162    15.557536    13.473219    26.212585    5494.4224 
   29500       29.488    316.72392     13.01885   -447.28102   -434.26217   -1184.9212   -11272.895   -2888.6011    10606.732    15.557539    13.473221    26.212568    5494.4204 
   30000       29.988     299.7501    12.321146   -446.56509   -434.24394   -765.61185   -11505.945   -4393.5163    13602.626    15.557541    13.473223     26.21255    5494.4184 
   30500       30.488    317.67412    13.057908   -447.28523   -434.22732   -1035.6164   -10353.123   -6679.6174    13925.891    15.557543    13.473225    26.212533    5494.4164 
   31000       30.988    306.49672    12.598464   -446.80824   -434.20978   -35.003205   -8777.6125   -5895.8733    14568.476    15.557546    13.473227    26.212515    5494.4144 
   31500       31.488     306.1913    12.585909   -446.77787   -434.19196   -657.86594   -8126.1151   -7746.6348    13899.152    15.557548    13.473229    26.212498    5494.4124 
   32000       31.988    320.41763    13.170679   -447.34532   -434.17464    18.710784   -8534.3312   -6825.5869     15416.05     15.55755    13.473231     26.21248    5494.4104 
   32500       32.488    309.57937    12.725175   -446.88144   -434.15627   -1413.3713   -11093.402   -7594.0244    14447.312    15.557553    13.473233    26.212463    5494.4084 
   33000       32.988    321.57469     13.21824   -447.35668   -434.13844   -947.22051   -11550.736   -5223.9769    13933.052    15.557555    13.473235    26.212445    5494.4064 
   33500       33.488    313.19183    12.873664   -446.99393   -434.12027    -507.6167     -7857.08   -6197.6667    12531.897    15.557557    13.473237    26.212428    5494.4044 
   34000       33.988    317.77763    13.062162   -447.16429   -434.10212   -828.10224   -11126.581   -4420.9576    13063.232     15.55756    13.473239     26.21241    5494.4024 
   34500       34.488    315.71672    12.977449   -447.06039   -434.08294     79.53912   -11915.161   -3226.6582    15380.437    15.557562    13.473241    26.212393    5494.4004 
   35000       34.988     324.7022    13.346795   -447.41168   -434.06489   -1231.7831   -12622.936   -6700.9811    15628.568    15.557564    13.473243    26.212375    5494.3984 
   35500       35.488    321.53854    13.216754   -447.26264   -434.04588    628.39653   -9053.7826   -3468.7897    14407.762    15.557567    13.473246    26.212358    5494.3964 
   36000       35.988    319.75518    13.143449     -447.171   -434.02755   -934.59349   -10372.725   -5353.5618    12922.507    15.557569    13.473248     26.21234    5494.3944 
   36500       36.488    312.13369     12.83017   -446.83862   -434.00845     -842.548   -10639.427   -4179.4572     12291.24    15.557571     13.47325    26.212323    5494.3924 
   37000       36.988    314.12883     12.91218   -446.90187   -433.98969   -902.06136   -10210.218   -5322.0933    12826.127    15.557574    13.473252    26.212305    5494.3904 
   37500       37.488     318.1812    13.078751   -447.04967   -433.97091   -688.54388   -11505.078    -7236.248    16675.695    15.557576    13.473254    26.212288    5494.3884 
   38000       37.988    321.61743    13.219997   -447.17186   -433.95187   -389.19559   -10648.411   -5902.0799    15382.904    15.557579    13.473256     26.21227    5494.3864 
   38500       38.488    320.51595     13.17472   -447.10764   -433.93292   -288.88158    -8536.552   -6657.5528     14327.46    15.557581    13.473258    26.212253    5494.3844 
   39000       38.988    324.58633    13.342032   -447.25545   -433.91342   -273.19957   -9763.0679      -5397.5    14340.969    15.557583     13.47326    26.212235    5494.3824 
   39500       39.488    319.06021    13.114883   -447.00882   -433.89393   -393.09298   -12142.244   -1743.5226    12706.488    15.557586    13.473262    26.212218    5494.3804 
   40000       39.988    313.25608    12.876305     -446.751    -433.8747   -501.80943   -8800.4203   -5759.4779     13054.47    15.557588    13.473264      26.2122    5494.3784 
   40500       40.488     317.2167    13.039106   -446.89427   -433.85517   -791.20578   -9468.1364   -4474.8198    11569.339     15.55759    13.473266    26.212183    5494.3764 
   41000       40.988     317.9408    13.068869   -446.90503   -433.83616   -122.55313     -9722.32   -3989.4197     13344.08    15.557593    13.473268    26.212165    5494.3744 
   41500       41.488    320.04893    13.155524   -446.97241   -433.81688   -1296.8161   -9001.9963    -6273.385    11384.933    15.557595     13.47327    26.212148    5494.3723 
   42000       41.988    315.96479    12.987646    -446.7853   -433.79766    281.37007   -9137.9864   -4003.4783    13985.575    15.557597    13.473272     26.21213    5494.3703 
   42500       42.488    308.00096    12.660295   -446.43906   -433.77876   -643.51057    -6857.219   -9471.8843    14398.572      15.5576    13.473274    26.212113    5494.3683 
   43000       42.988     320.0081    13.153845   -446.91448   -433.76063     574.3408    -10640.06   -5662.4139    18025.497    15.557602    13.473276    26.212095    5494.3663 
   43500       43.488    322.79262    13.268302   -447.00958   -433.74128   -714.92094   -10740.186   -5965.9958    14561.419    15.557604    13.473278    26.212078    5494.3643 
   44000       43.988    330.63187    13.590533   -447.31297   -433.72244   -1822.8015   -12086.566   -7166.2634    13784.425    15.557607     13.47328     26.21206    5494.3623 
   44500       44.488    318.41343    13.088297   -446.79244   -433.70415    67.253287   -9503.7291   -4308.2353    14013.724    15.557609    13.473282    26.212043    5494.3603 
   45000       44.988    313.20284    12.874117   -446.55929   -433.68517    85.704959   -7414.6752   -6632.5751    14304.365    15.557611    13.473284    26.212025    5494.3583 
   45500       45.488    318.40338    13.087884    -446.7546   -433.66672   -244.87738   -9363.6737   -4994.9637    13624.005    15.557614    13.473287    26.212008    5494.3563 
   46000       45.988    324.78387    13.350152   -446.99848   -433.64833   -243.84842   -10510.677   -4127.9897    13907.121    15.557616    13.473289     26.21199    5494.3543 
   46500       46.488    344.49176    14.160239   -447.78996   -433.62972   -1348.5039   -9001.2598   -6941.6749    11897.423    15.557618    13.473291    26.211973    5494.3523 
   47000       46.988     316.2816    13.000668   -446.61173   -433.61107   -641.64711   -11815.457   -2407.5553    12298.071    15.557621    13.473293    26.211955    5494.3503 
   47500       47.488    315.08342    12.951418   -446.54428   -433.59286    87.337263   -8456.8639   -5356.5282    14075.404    15.557623    13.473295    26.211938    5494.3483 
   48000       47.988    333.79059    13.720371   -447.29502   -433.57465   -1830.4185   -11423.202   -6244.4497    12176.396    15.557626    13.473297     26.21192    5494.3463 
   48500       48.488     322.0166    13.236404   -446.79199   -433.55558   -228.97176   -9619.0113   -3763.3205    12695.416    15.557628    13.473299    26.211903    5494.3443 
   49000       48.988    322.08328    13.239145   -446.77698   -433.53784   -740.49608   -10761.569   -594.83121    9134.9124     15.55763    13.473301    26.211885    5494.3423 
   49500       49.488    314.84291    12.941532   -446.46149   -433.51996   -80.188173   -9859.3278   -3899.8576    13518.621    15.557633    13.473303    26.211868    5494.3403 
   50000       49.988    317.56607    13.053466   -446.55556   -433.50209    1482.3231   -9746.9118   -1307.8676    15501.749    15.557635    13.473305     26.21185    5494.3383 
   50500       50.488     326.1156    13.404893   -446.88896   -433.48407   -422.33239   -11694.315   -3625.9261    14053.243    15.557637    13.473307    26.211833    5494.3363 
   51000       50.988    328.60295    13.507134   -446.97348   -433.46635   -207.10223   -11186.481    -5533.244    16098.418     15.55764    13.473309    26.211815    5494.3343 
   51500       51.488    313.34216    12.879844   -446.32854   -433.44869    1116.2465   -8788.0869   -3656.4457    15793.272    15.557642    13.473311    26.211798    5494.3323 
   52000       51.988    330.26137    13.575303   -447.00688   -433.43158    -1356.266   -12188.479   -7128.5714    15248.252    15.557644    13.473313     26.21178    5494.3303 
   52500       52.488    348.42898    14.322078   -447.73616   -433.41408    701.12526   -9001.6076   -3595.3303    14700.314    15.557647    13.473315    26.211763    5494.3283 
   53000       52.988    330.21008    13.573195   -446.96993   -433.39674   -1421.6902   -11466.532   -6207.2657    13408.727    15.557649    13.473317    26.211745    5494.3263 
   53500       53.488     300.4714    12.350795   -445.73007   -433.37928    307.94905    -8033.054   -4987.1677    13944.069    15.557651    13.473319    26.211728    5494.3243 
   54000       53.988    333.46361     13.70693   -447.06944   -433.36251   -642.67658   -8464.0437   -8144.7879    14680.802    15.557654    13.473321     26.21171    5494.3223 
   54500       54.488    325.20403    13.367422   -446.71291   -433.34549   -642.15297   -10313.069   -5275.9137    13662.524    15.557656    13.473323    26.211693    5494.3203 
   55000       54.988    315.76915    12.979605    -446.3076     -433.328    433.44605   -9505.3316   -7800.4093    18606.079    15.557658    13.473325    26.211675    5494.3183 
   55500       55.488    312.09323    12.828507   -446.13971    -433.3112   -546.34093   -8925.5635   -5878.9206    13165.461    15.557661    13.473328    26.211658    5494.3163 
   56000       55.988    312.43412    12.842519   -446.13737   -433.29485   -207.13956   -12109.834   -4248.3065    15736.722    15.557663     13.47333     26.21164    5494.3143 
   56500       56.488    330.71451     13.59393   -446.87271   -433.27878    51.202908   -10601.933    -5347.793    16103.334    15.557665    13.473332    26.211623    5494.3123 
   57000       56.988     319.4104    13.129277   -446.39057   -433.26129   -1615.3901    -12399.57   -6376.3717    13929.772    15.557668    13.473334    26.211605    5494.3103 
   57500       57.488     320.0462    13.155412   -446.40062    -433.2452    54.347658   -10459.714    -3111.134    13733.891     15.55767    13.473336    26.211588    5494.3083 
   58000       57.988    319.50572    13.133195    -446.3615    -433.2283   -150.45666    -9588.018   -5053.5734    14190.221    15.557673    13.473338     26.21157    5494.3063 
   58500       58.488    317.05169    13.032323    -446.2445   -433.21218   -543.73627   -9972.6194   -5018.3307    13359.741    15.557675     13.47334    26.211553    5494.3043 
   59000       58.988     330.0899    13.568255   -446.76436   -433.19611    1236.6611   -8935.3777   -5391.8081    18037.169    15.557677    13.473342    26.211535    5494.3023 
   59500       59.488    359.77926    14.788628   -447.96916   -433.18053   -571.42197   -9737.8971   -4487.5973    12511.228     15.55768    13.473344    26.211518    5494.3003 
   60000       59.988    316.19725    12.997201   -446.16045   -433.16324    334.44435   -9794.5657   -5008.8668    15806.766    15.557682    13.473346      26.2115    5494.2983 
   60500       60.488    323.72617    13.306676   -446.45448    -433.1478   -442.18075    -9055.597   -7094.4829    14823.538    15.557684    13.473348    26.211483    5494.2963 
   61000       60.988    336.34971    13.825563   -446.95734   -433.13178    178.91535   -7141.3102   -3647.4606    11325.517    15.557687     13.47335    26.211465    5494.2943 
   61500       61.488    322.09568    13.239655   -446.35453   -433.11487    -100.9812   -9887.4167   -7066.3759    16650.849    15.557689    13.473352    26.211448    5494.2923 
   62000       61.988    324.18352    13.325475   -446.42504   -433.09957    314.14319   -11133.828   -5939.1846    18015.443    15.557691    13.473354     26.21143    5494.2903 
   62500       62.488    331.75947    13.636882   -446.72078    -433.0839   -219.80929    -9705.329   -4247.7479    13293.649    15.557694    13.473356    26.211413    5494.2883 
   63000       62.988    326.33558    13.413935   -446.48163    -433.0677   -894.32143   -10213.732   -4007.0047    11537.772    15.557696    13.473358    26.211395    5494.2862 
   63500       63.488    330.45207    13.583142   -446.63527   -433.05213    364.44472   -8237.1512   -5487.5657    14818.051    15.557698     13.47336    26.211378    5494.2842 
   64000       63.988    332.46393    13.665839   -446.70219   -433.03635   -936.88575   -9573.5361   -7007.9005    13770.779    15.557701    13.473362     26.21136    5494.2822 
   64500       64.488    342.75614    14.088897   -447.10956   -433.02066    159.50137   -10027.657   -2558.6985     13064.86    15.557703    13.473364    26.211343    5494.2802 
   65000       64.988     350.5095    14.407597   -447.41273   -433.00514   -1097.9889   -8044.1484   -7379.9096    12130.091    15.557705    13.473366    26.211325    5494.2782 
   65500       65.488    331.71568    13.635082   -446.62433   -432.98925   -9.4564388    -10284.34   -3825.2137    14081.185    15.557708    13.473369    26.211308    5494.2762 
   66000       65.988    327.78777    13.473627   -446.44683   -432.97321     1108.606   -6892.3981   -6498.3508    16716.567     15.55771    13.473371     26.21129    5494.2742 
   66500       66.488     338.8874    13.929874    -446.8878   -432.95792    449.42766   -8547.0426   -6055.1847     15950.51    15.557712    13.473373    26.211273    5494.2722 
   67000       66.988    304.30117    12.508216   -445.45051   -432.94229    751.89669   -8153.6035    -3998.252    14407.545    15.557715    13.473375    26.211255    5494.2702 
   67500       67.488    327.46979    13.460556   -446.38748   -432.92692   -707.08342   -10508.619    -3956.647    12344.016    15.557717    13.473377    26.211238    5494.2682 
   68000       67.988    329.12147    13.528448   -446.43995    -432.9115    303.61081   -10968.384   -3149.9412    15029.158     15.55772    13.473379     26.21122    5494.2662 
   68500       68.488    335.87742    13.806149   -446.70218   -432.89603    69.334172   -8523.1542     -6804.24    15535.397    15.557722    13.473381    26.211203    5494.2642 
   69000       68.988    365.22266    15.012377   -447.89306   -432.88068    -453.5951   -9730.2652   -4403.9455    12773.425    15.557724    13.473383    26.211185    5494.2622 
   69500       69.488    320.81547    13.187032   -446.05138   -432.86435   -133.42732   -8922.2727    -4607.884    13129.875    15.557727    13.473385    26.211168    5494.2602 
   70000       69.988    323.74333    13.307381   -446.15596   -432.84858      297.998   -9650.3402   -3735.0197    14279.354    15.557729    13.473387     26.21115    5494.2582 
   70500       70.488    344.91702     14.17772   -447.01092    -432.8332    534.99146   -7368.6842   -4221.5562    13195.215    15.557731    13.473389    26.211133    5494.2562 
   71000       70.988    340.62387    14.001251   -446.81862   -432.81737   -135.62262   -11127.961   -6120.9222    16842.016    15.557734    13.473391    26.211115    5494.2542 
   71500       71.488    343.54659    14.121388   -446.92273   -432.80134   -1165.3478   -7730.4676   -6938.8055     11173.23    15.557736    13.473393    26.211098    5494.2522 
   72000       71.988    345.52208     14.20259   -446.98832   -432.78573     780.3679   -8826.0683   -5971.2902    17138.462    15.557738    13.473395     26.21108    5494.2502 
   72500       72.488    351.24925    14.438004   -447.20751   -432.76951   -278.04719   -9683.9203   -5038.1901    13887.969    15.557741    13.473397    26.211063    5494.2482 
   73000       72.988    320.59837    13.178108   -445.93096   -432.75285    207.28373   -9584.9191   -5750.1183    15956.889    15.557743    13.473399    26.211045    5494.2462 
   73500       73.488    343.78439    14.131163   -446.86863   -432.73747    173.13456   -8240.5825   -8655.5974    17415.584    15.557745    13.473401    26.211028    5494.2442 
   74000       73.988    343.13965    14.104661   -446.82591   -432.72125   -298.76358   -10725.565   -5201.8099    15031.084    15.557748    13.473403     26.21101    5494.2422 
   74500       74.488    333.04427    13.689694   -446.39482   -432.70513    437.02495   -8640.1022   -2179.8171    12130.994     15.55775    13.473405    26.210993    5494.2402 
   75000       74.988     325.4618    13.378018   -446.06669   -432.68867    389.19975   -7863.4884   -5208.1688    14239.257    15.557752    13.473407    26.210975    5494.2382 
   75500       75.488    342.85369    14.092907   -446.76591     -432.673   -1142.6533   -7407.6245   -6358.2571    10337.922    15.557755     13.47341    26.210958    5494.2362 
   76000       75.988    338.10948    13.897898   -446.55401   -432.65611   -227.32362   -9163.7201   -5315.3064    13797.056    15.557757    13.473412     26.21094    5494.2342 
   76500       76.488     342.6541    14.084703   -446.72494   -432.64024   -489.92317   -7905.1494   -4391.4499     10826.83    15.557759    13.473414    26.210923    5494.2322 
   77000       76.988    352.60059    14.493551   -447.11805    -432.6245   -210.81716   -8523.0239   -4170.9044    12061.477    15.557762    13.473416    26.210905    5494.2302 
   77500       77.488    328.80125    13.515285   -446.12257   -432.60728     92.82436   -12054.736   -2442.9773    14776.187    15.557764    13.473418    26.210888    5494.2282 
   78000       77.988    346.48456    14.242153    -446.8334   -432.59125   -840.73926   -8707.5769   -6754.9616    12940.321    15.557767     13.47342     26.21087    5494.2262 
   78500       78.488    318.36796    13.086428   -445.66087   -432.57444    7.0219697    -11678.83   -2430.5088    14130.405    15.557769    13.473422    26.210853    5494.2242 
   79000       78.988    340.76183    14.006922    -446.5643   -432.55738   -793.28899   -7649.0809   -7165.6862      12434.9    15.557771    13.473424    26.210835    5494.2222 
   79500       79.488    362.31451    14.892839   -447.43411   -432.54128   -342.48975   -10852.004   -3895.8361    13720.371    15.557774    13.473426    26.210818    5494.2202 
   80000       79.988    335.87881    13.806207   -446.32999   -432.52378    167.29906   -11312.309   -2623.9062    14438.112    15.557776    13.473428      26.2108    5494.2182 
   80500       80.488    351.55242    14.450466    -446.9581   -432.50763    473.61918   -9476.0718   -4363.2877    15260.217    15.557778     13.47343    26.210783    5494.2162 
   81000       80.988    331.73825     13.63601   -446.12628   -432.49027    1047.2925   -10227.268   -3622.8547        16992    15.557781    13.473432    26.210765    5494.2142 
   81500       81.488    319.89031    13.149003   -445.62137   -432.47236   -208.15417   -11730.839   -5215.4873    16321.864    15.557783    13.473434    26.210748    5494.2122 
   82000       81.988    349.80812    14.378767   -446.83523   -432.45647   -132.21285    -9535.425   -4014.7142    13153.501    15.557785    13.473436     26.21073    5494.2102 
   82500       82.488    338.48541     13.91335   -446.35199   -432.43864    200.78558   -9825.8096   -3552.6046    13980.771    15.557788    13.473438    26.210713    5494.2082 
   83000       82.988    344.93662    14.178525   -446.59973   -432.42121    609.91027   -6744.7274   -4957.4066    13531.865     15.55779     13.47344    26.210695    5494.2062 
   83500       83.488    349.38739    14.361473   -446.76574   -432.40426   -306.44999   -9591.1822   -4231.6453    12903.478    15.557792    13.473442    26.210678    5494.2041 
   84000       83.988      352.504     14.48958   -446.87636   -432.38678     296.5809   -7043.0824   -4099.0598    12031.885    15.557795    13.473444     26.21066    5494.2021 
   84500       84.488    337.75063    13.883147   -446.25261   -432.36947   -27.969386   -10839.824   -2698.9079    13454.824    15.557797    13.473446    26.210643    5494.2001 
   85000       84.988    344.95482    14.179273   -446.53101   -432.35174   -14.634914   -8780.7978   -4279.3898    13016.283    15.557799    13.473448    26.210625    5494.1981 
   85500       85.488    338.66839    13.920871   -446.25442   -432.33355   -263.58077   -8510.5777   -3044.4665    10764.302    15.557802    13.473451    26.210608    5494.1961 
   86000       85.988    334.82568    13.762918   -446.07885   -432.31593    1526.7546   -8459.4783   -4319.4747    17359.217    15.557804    13.473453     26.21059    5494.1941 
   86500       86.488     344.8976    14.176921   -446.47503   -432.29811   -791.76311   -9561.6649   -4944.5174    12130.893    15.557806    13.473455    26.210573    5494.1921 
   87000       86.988    329.70499    13.552433   -445.83236   -432.27992    494.98071   -8733.8794   -4195.6936    14414.515    15.557809    13.473457    26.210555    5494.1901 
   87500       87.488    354.20085    14.559329    -446.8215   -432.26217   -156.21451   -8547.6613   -6571.7593    14650.777    15.557811    13.473459    26.210538    5494.1881 
   88000       87.988    333.42874    13.705497   -445.94904   -432.24355    408.99109   -8806.6682   -6330.8956    16364.537    15.557814    13.473461     26.21052    5494.1861 
   88500       88.488      352.728    14.498788   -446.72456   -432.22577    200.70593   -8014.6355   -6606.8023    15223.556    15.557816    13.473463    26.210503    5494.1841 
   89000       88.988    325.66547     13.38639   -445.59371   -432.20732   -65.736892   -10752.174   -4094.6039    14649.568    15.557818    13.473465    26.210485    5494.1821 
   89500       89.488    337.55311    13.875028   -446.06403     -432.189    201.36764    -8577.909   -3992.9684     13174.98    15.557821    13.473467    26.210468    5494.1801 
   90000       89.988    333.17042    13.694879   -445.86535   -432.17047    985.32387   -9766.2084   -3826.8773    16549.057    15.557823    13.473469     26.21045    5494.1781 
   90500       90.488    349.73534    14.375775   -446.52821   -432.15244     443.1091   -7872.9091   -4818.5557    14020.792    15.557825    13.473471    26.210433    5494.1761 
   91000       90.988    341.29231    14.028727   -446.16275   -432.13402    775.04757    -10676.68   -4780.2725    17782.095    15.557828    13.473473    26.210415    5494.1741 
   91500       91.488    339.40045    13.950962   -446.06617    -432.1152   -267.42894     -9774.83   -6833.9734    15806.517     15.55783    13.473475    26.210398    5494.1721 
   92000       91.988    339.58195    13.958423   -446.05492    -432.0965   -1061.0832    -9514.251   -8236.7402    14567.742    15.557832    13.473477     26.21038    5494.1701 
   92500       92.488    345.48961    14.201256   -446.27846    -432.0772   -678.64369    -9962.778   -6382.7781    14309.625    15.557835    13.473479    26.210363    5494.1681 
   93000       92.988    352.47629    14.488441   -446.54708   -432.05863    314.09569    -9470.613   -3499.7856    13912.686    15.557837    13.473481    26.210345    5494.1661 
   93500       93.488    327.19801    13.449384   -445.48838     -432.039    964.29017   -10613.784   -3283.5025    16790.157    15.557839    13.473483    26.210328    5494.1641 
   94000       93.988     364.3219    14.975352    -446.9953   -432.01995    9.2962506   -11133.538   -3139.5442    14300.971    15.557842    13.473485     26.21031    5494.1621 
   94500       94.488    344.38418    14.155817    -446.1566   -432.00078   -754.20162   -8941.7896   -5952.3027    12631.487    15.557844    13.473487    26.210293    5494.1601 
   95000       94.988    351.25062    14.438061   -446.42005   -431.98199    590.52728   -10760.347   -3411.2174    15943.146    15.557846    13.473489    26.210275    5494.1581 
   95500       95.488    347.75004     14.29417   -446.25608   -431.96191    467.23642   -10337.415   -4772.4126    16511.537    15.557849    13.473492    26.210258    5494.1561 
   96000       95.988    340.46785    13.994838   -445.93753   -431.94269    21.592744   -8616.6925   -6814.4419    15495.913    15.557851    13.473494     26.21024    5494.1541 
   96500       96.488    357.18478    14.681983   -446.60582   -431.92384     751.4564   -8878.5163   -3010.0923    14142.978    15.557853    13.473496    26.210223    5494.1521 
   97000       96.988    358.63272      14.7415    -446.6457    -431.9042   -609.23233   -10481.933   -5844.6947    14498.931    15.557856    13.473498    26.210205    5494.1501 
   97500       97.488    357.28127    14.685949   -446.57079   -431.88484   -480.84544     -11027.5   -5707.4824    15292.446    15.557858      13.4735    26.210188    5494.1481 
   98000       97.988    345.04806    14.183106   -446.04755   -431.86444    893.02572    -8352.513   -4440.1265    15471.717    15.557861    13.473502     26.21017    5494.1461 
   98500       98.488    336.69787    13.839874   -445.68336   -431.84348     552.2243   -8876.6353   -4929.7859    15463.094    15.557863    13.473504    26.210153    5494.1441 
   99000       98.988    354.93848    14.589649   -446.41349   -431.82384   -158.72055   -9689.7711   -5853.3678    15066.977    15.557865    13.473506    26.210135    5494.1421 
   99500       99.488    358.72288    14.745206   -446.54903   -431.80383    42.888108    -10201.22   -1726.9407    12056.825    15.557868    13.473508    26.210118    5494.1401 
  100000       99.988    358.79336    14.748103   -446.53196   -431.78386    487.83073   -8294.2299   -5409.6376     15167.36     15.55787     13.47351      26.2101    5494.1381 
  100500      100.488    334.18859     13.73673   -445.49939   -431.76266   -219.18689   -11812.759   -2168.4862    13323.684    15.557872    13.473512    26.210083    5494.1361 
  101000      100.988    353.18561    14.517598   -446.26073   -431.74313    96.034019   -7360.1342   -5933.8868    13582.123    15.557875    13.473514    26.210065    5494.1341 
  101500      101.488     357.6055    14.699276   -446.42158    -431.7223    100.17558   -7845.2248   -5083.9349    13229.686    15.557877    13.473516    26.210048    5494.1321 
  102000      101.988    335.78578    13.802383   -445.50393   -431.70154    1263.5527   -9334.2062   -5679.7823    18804.647    15.557879    13.473518     26.21003    5494.1301 
  102500      102.488    341.95975    14.056162   -445.73742   -431.68126    1206.2585   -9079.7222    -5182.491    17880.989    15.557882     13.47352    26.210013    5494.1281 
  103000      102.988    344.88587    14.176439   -445.83735   -431.66091    1181.8153   -8364.2946   -4785.1744    16694.915    15.557884    13.473522    26.209995    5494.1261 
  103500      103.488    341.08055    14.020023   -445.65991   -431.63989    1935.6527   -6664.5923   -7612.3285    20083.879    15.557886    13.473524    26.209978     5494.124 
  104000      103.988     340.8032    14.008622   -445.62806   -431.61943    993.10619   -8453.1488   -4763.5552    16196.023    15.557889    13.473526     26.20996     5494.122 
  104500      104.488    367.21306    15.094192   -446.69282   -431.59862    1049.1029    -6225.706    -3971.663    13344.678    15.557891    13.473528    26.209943      5494.12 
  105000      104.988    334.36866    13.744132   -445.32087   -431.57674   -82.686275    -9609.041   -2795.8324    12156.815    15.557893     13.47353    26.209925     5494.118 
  105500      105.488    355.60988    14.617247   -446.17329   -431.55604   -126.35651   -10598.189   -2216.8752    12435.995    15.557896    13.473533    26.209908     5494.116 
  106000      105.988    352.81039    14.502175   -446.03699   -431.53482    1742.7355   -7434.2066   -2985.9539    15648.367    15.557898    13.473535     26.20989     5494.114 
  106500      106.488    349.90071    14.382573    -445.8965   -431.51393    486.14216   -8050.8557   -5615.3878     15124.67      15.5579    13.473537    26.209873     5494.112 
  107000      106.988    366.31285    15.057189   -446.54937   -431.49218     1202.237   -7647.3295   -3444.7211    14698.761    15.557903    13.473539    26.209855      5494.11 
  107500      107.488    353.02732    14.511091   -445.98213   -431.47103    1271.5467   -5765.0659   -5874.7598    15454.466    15.557905    13.473541    26.209838     5494.108 
  108000      107.988    353.82319    14.543805   -445.99372   -431.44991   -411.09511   -9346.7228   -4764.8619    12878.299    15.557908    13.473543     26.20982     5494.106 
  108500      108.488    371.32819    15.263344   -446.69206   -431.42871   -13.859632   -11133.114   -3929.4544     15020.99     15.55791    13.473545    26.209803     5494.104 
  109000      108.988    338.39947    13.909817   -445.31684   -431.40702    1415.7457   -9743.5397   -4197.9494    18188.726    15.557912    13.473547    26.209785     5494.102 
  109500      109.488    351.26788     14.43877   -445.82382   -431.38505    388.49678   -10486.429   -3964.4172    15616.336    15.557915    13.473549    26.209768       5494.1 
  110000      109.988    354.05407    14.553295   -445.91702   -431.36372    854.74119   -9093.8855   -2557.8443    14215.953    15.557917    13.473551     26.20975     5494.098 
  110500      110.488    350.40163    14.403163   -445.74546    -431.3423    1196.5229   -8044.6552    -3341.625    14975.849    15.557919    13.473553    26.209733     5494.096 
  111000      110.988    346.75623     14.25332   -445.57361   -431.32029    913.79574   -9942.0798   -1729.7122    14413.179    15.557922    13.473555    26.209715     5494.094 
  111500      111.488    353.88425    14.546315   -445.84464   -431.29833   -87.755726   -7478.3266   -5056.1816    12271.241    15.557924    13.473557    26.209698     5494.092 
  112000      111.988    347.64567     14.28988   -445.56657   -431.27669    395.52356   -10001.341   -7568.5493    18756.461    15.557926    13.473559     26.20968      5494.09 
  112500      112.488    347.80152    14.296286   -445.55097   -431.25468    1586.4619   -7529.4667   -2140.1226    14428.975    15.557929    13.473561    26.209663     5494.088 
  113000      112.988    352.81124     14.50221     -445.735   -431.23279    2735.0279   -7494.7333   -2978.3155    18678.132    15.557931    13.473563    26.209645     5494.086 
  113500      113.488    355.13016    14.597528   -445.80793    -431.2104    1289.2151   -7908.5837    -4615.168    16391.397    15.557933    13.473565    26.209628     5494.084 
  114000      113.988    364.15102    14.968328   -446.15762    -431.1893    1125.6381   -9581.3173   -735.78349    13694.015    15.557936    13.473567     26.20961     5494.082 
  114500      114.488    352.58336    14.492843   -445.65892   -431.16607   -19.691698   -10522.687   -4613.9161    15077.528    15.557938    13.473569    26.209593      5494.08 
  115000      114.988    331.05691    13.608003   -444.75163   -431.14363     1549.848   -9560.1249   -2287.4938    16497.163     15.55794    13.473571    26.209575     5494.078 
  115500      115.488    361.11374    14.843481   -445.96525   -431.12177    977.70304   -6796.5958    -5950.403    15680.108    15.557943    13.473574    26.209558     5494.076 
  116000      115.988    363.37506    14.936432   -446.03595   -431.09951    593.42795   -9870.9483   -3994.2672    15645.499    15.557945    13.473576     26.20954     5494.074 
  116500      116.488    354.40312    14.567643   -445.64488   -431.07724    2789.4297   -7622.9222   -6465.6979    22456.909    15.557947    13.473578    26.209523     5494.072 
  117000      116.988    375.90136    15.451323   -446.50681   -431.05549    858.46253   -8058.2167   -2815.5695    13449.174     15.55795     13.47358    26.209505      5494.07 
  117500      117.488    360.42754    14.815275   -445.84762   -431.03235    2182.7905   -7626.9359   -2541.4786    16716.786    15.557952    13.473582    26.209488     5494.068 
  118000      117.988    337.96519    13.891967   -444.90174   -431.00978    2027.8043   -9490.0416   -529.88476    16103.339    15.557955    13.473584     26.20947     5494.066 
  118500      118.488    334.44604    13.747313   -444.73454   -430.98723    1410.7828    -6692.593   -1705.8917    12630.833    15.557957    13.473586    26.209453     5494.064 
  119000      118.988    351.36576    14.442793   -445.40763   -430.96483    559.73999   -8353.1381   -4775.6395    14807.998    15.557959    13.473588    26.209435     5494.062 
  119500      119.488     355.2278    14.601541   -445.54422   -430.94268    1505.4532   -9778.1063    -3318.372    17612.838    15.557962     13.47359    26.209418      5494.06 
  120000      119.988    368.43029    15.144226   -446.06439   -430.92017    1805.7404   -7121.4029   -6085.6956     18624.32    15.557964    13.473592      26.2094     5494.058 
  120500      120.488    373.91905     15.36984   -446.26774    -430.8979     715.2426   -10192.586   -2678.1248    15016.439    15.557966    13.473594    26.209383     5494.056 
  121000      120.988    375.30777    15.426923    -446.3022   -430.87528    815.58285   -10439.397   -4922.2778    17808.423    15.557969    13.473596    26.209365     5494.054 
  121500      121.488    383.70997    15.772293   -446.62456   -430.85227    702.18692   -9545.0189   -4278.8236    15930.403    15.557971    13.473598    26.209348     5494.052 
  122000      121.988    373.57276    15.355606   -446.18494   -430.82934    532.09267    -8733.594   -6041.0917    16370.964    15.557973      13.4736     26.20933      5494.05 
  122500      122.488    358.53217    14.737367   -445.54361   -430.80625    1816.4854   -9467.6084   -3938.5097    18855.574    15.557976    13.473602    26.209313     5494.048 
  123000      122.988     358.5992    14.740122   -445.52313   -430.78301    326.96361   -9403.3712   -4097.9152    14482.177    15.557978    13.473604    26.209295    5494.0459 
  123500      123.488     356.3145     14.64621   -445.40628   -430.76007    1300.6301   -6082.8778   -6161.7502    16146.518     15.55798    13.473606    26.209278    5494.0439 
  124000      123.988    353.72935    14.539948   -445.27737   -430.73742    2871.0076   -4957.4579   -3333.0335    16903.514    15.557983    13.473608     26.20926    5494.0419 
  124500      124.488    389.51504    16.010909   -446.72661    -430.7157   -83.258264   -10856.388   -2871.4147    13478.028    15.557985     13.47361    26.209243    5494.0399 
  125000      124.988    345.96748    14.220898   -444.91218   -430.69129    2046.2659   -7699.3791   -4632.1821    18470.359    15.557987    13.473612    26.209225    5494.0379 
  125500      125.488    361.06797      14.8416   -445.51025   -430.66865    1275.7065   -7285.3486   -6145.3389    17257.807     15.55799    13.473615    26.209208    5494.0359 
  126000      125.988    362.90887     14.91727   -445.56268   -430.64541    851.70192   -7938.6695    -2271.322    12765.097    15.557992    13.473617     26.20919    5494.0339 
  126500      126.488    355.75951    14.623397   -445.24501   -430.62162   -1.6618141   -11258.981   -493.44536    11747.441    15.557994    13.473619    26.209173    5494.0319 
  127000      126.988    364.90836    14.999458   -445.59757   -430.59811    1235.2984   -9351.3849   -4099.4219    17156.702    15.557997    13.473621    26.209155    5494.0299 
  127500      127.488    368.70716    15.155607   -445.73114   -430.57553    516.75373   -10582.251   -2991.5976     15124.11    15.557999    13.473623    26.209138    5494.0279 
  128000      127.988      349.626    14.371281   -444.92314   -430.55186    2633.1352   -6423.4891   -4359.9124    18682.807    15.558002    13.473625     26.20912    5494.0259 
  128500      128.488    375.79766     15.44706   -445.97617   -430.52911    1750.4259   -9960.1329   -1835.5012    17046.912    15.558004    13.473627    26.209103    5494.0239 
  129000      128.988    349.05551    14.347831   -444.85288   -430.50504    854.45617   -9454.2687   -5413.5257    17431.163    15.558006    13.473629    26.209085    5494.0219 
  129500      129.488    372.21112    15.299636   -445.78174    -430.4821     381.9803   -9320.7038    -5989.889    16456.534    15.558009    13.473631    26.209068    5494.0199 
  130000      129.988    357.84673    14.709192   -445.16813   -430.45894    1426.2121   -8738.4631   -3700.0404     16717.14    15.558011    13.473633     26.20905    5494.0179 
  130500      130.488    362.14376     14.88582   -445.32171   -430.43589   -807.81613   -9267.5172   -3480.2093    10324.278    15.558013    13.473635    26.209033    5494.0159 
  131000      130.988    364.69294    14.990603   -445.40298   -430.41238    682.67197   -9973.6757   -1860.2507    13881.942    15.558016    13.473637    26.209015    5494.0139 
  131500      131.488    376.94549    15.494241   -445.88279   -430.38855    1499.7469   -9052.4447   -3159.9331    16711.618    15.558018    13.473639    26.208998    5494.0119 
  132000      131.988     366.1956     15.05237   -445.41715   -430.36478    1775.3107   -8329.3074   -4397.1087    18052.348     15.55802    13.473641     26.20898    5494.0099 
  132500      132.488    370.81831    15.242385   -445.58419    -430.3418    664.42286   -7735.3834   -7291.3237    17019.976    15.558023    13.473643    26.208963    5494.0079 
  133000      132.988    373.77105    15.363757   -445.68098   -430.31722    1574.9906   -8131.1854   -4498.0876    17354.245    15.558025    13.473645    26.208945    5494.0059 
  133500      133.488    355.68857    14.620481   -444.91355   -430.29307     866.4844   -7395.3712   -6319.0658     16313.89    15.558027    13.473647    26.208928    5494.0039 
  134000      133.988     371.4037    15.266447   -445.53649   -430.27005    1187.4453   -9010.3962   -1702.8183    14275.551     15.55803    13.473649     26.20891    5494.0019 
  134500      134.488    359.70688    14.785653   -445.03179   -430.24614    2061.1667   -6787.5161   -3366.3438     16337.36    15.558032    13.473651    26.208893    5493.9999 
  135000      134.988    361.91384    14.876369    -445.0985   -430.22213    888.77518   -8114.2829   -1315.5366    12096.145    15.558034    13.473653    26.208875    5493.9979 
  135500      135.488     372.5166    15.312193   -445.51169    -430.1995    92.238102   -7724.8452   -2610.4941    10612.054    15.558037    13.473656    26.208858    5493.9959 
  136000      135.988    371.14486    15.255808   -445.43093   -430.17512    306.96808   -7110.4015   -7409.2503    15440.556    15.558039    13.473658     26.20884    5493.9939 
  136500      136.488    366.66942    15.071846    -445.2235   -430.15165    755.92863   -9525.5766   -4190.3031    15983.666    15.558041     13.47366    26.208823    5493.9919 
  137000      136.988    373.33864    15.345982   -445.47404   -430.12806    2177.9373   -8593.0288    -1808.246    16935.087    15.558044    13.473662    26.208805    5493.9899 
  137500      137.488    375.49487    15.434614   -445.53884   -430.10423    492.51607   -8552.0646   -2947.0349    12976.648    15.558046    13.473664    26.208788    5493.9879 
  138000      137.988    373.83394    15.366342   -445.44635   -430.08001    1879.3853   -8296.2362   -4623.4933    18557.885    15.558049    13.473666     26.20877    5493.9859 
  138500      138.488    373.96295    15.371644   -445.42775   -430.05611    1407.8814   -8779.1143   -3569.3985    16572.157    15.558051    13.473668    26.208753    5493.9839 
  139000      138.988    358.96947    14.755342   -444.78693   -430.03158    1007.1081   -9564.5401   -2916.6116    15502.476    15.558053     13.47367    26.208735    5493.9819 
  139500      139.488    360.15515    14.804079   -444.81228    -430.0082     1881.775    -7917.885   -4493.2184    18056.428    15.558056    13.473672    26.208718    5493.9799 
  140000      139.988    370.02841    15.209917   -445.19436   -429.98444    1126.5968   -7653.1725   -6894.6798    17927.643    15.558058    13.473674      26.2087    5493.9779 
  140500      140.488    363.29704    14.933225   -444.89365   -429.96042    1347.0374   -7807.7269    -4126.075    15974.914     15.55806    13.473676    26.208683    5493.9759 
  141000      140.988    377.15638     15.50291    -445.4401   -429.93719    687.04958   -11886.838    -1760.739    15708.725    15.558063    13.473678    26.208665    5493.9739 
  141500      141.488    357.34041     14.68838   -444.60055   -429.91217    1995.7109   -8915.1423   -4439.1744    19341.449    15.558065     13.47368    26.208648    5493.9719 
  142000      141.988    347.48384    14.283228   -444.17116   -429.88794    1301.3974   -6507.1775   -4484.2188    14895.589    15.558067    13.473682     26.20863    5493.9698 
  142500      142.488     361.0507     14.84089    -444.7049   -429.86401    1997.9916   -8051.7513   -3648.2583    17693.984     15.55807    13.473684    26.208613    5493.9678 
  143000      142.988    363.64652     14.94759   -444.78788   -429.84029    2034.5354   -10178.901   0.89042607    16281.617    15.558072    13.473686    26.208595    5493.9658 
  143500      143.488    391.26109     16.08268   -445.89886   -429.81618    918.19054   -9085.8746   -1625.9802    13466.426    15.558074    13.473688    26.208578    5493.9638 
  144000      143.988    385.03673    15.826829   -445.61874   -429.79191    1760.3337   -9150.5799   -1451.3629    15882.944    15.558077     13.47369     26.20856    5493.9618 
  144500      144.488    378.33768    15.551467   -445.31967   -429.76821    1622.4797   -6469.2965   -4900.8397    16237.575    15.558079    13.473692    26.208543    5493.9598 
  145000      144.988    384.60916    15.809254   -445.55277   -429.74352    925.09771   -9305.9065   -5583.9116    17665.111    15.558081    13.473694    26.208525    5493.9578 
  145500      145.488    367.09138    15.089191    -444.8088   -429.71961    1088.7047   -5179.2579   -8142.2082     16587.58    15.558084    13.473697    26.208508    5493.9558 
  146000      145.988    375.45196     15.43285   -445.12751   -429.69466    990.90745   -9858.9212   -5556.8189    18388.462    15.558086    13.473699     26.20849    5493.9538 
  146500      146.488    388.45549    15.967356     -445.638   -429.67064    1012.7067   -8323.7035   -3416.5993    14778.423    15.558088    13.473701    26.208473    5493.9518 
  147000      146.988    399.35103    16.415215   -446.06221     -429.647    1534.9063   -8172.2279    -1797.422    14574.369    15.558091    13.473703    26.208455    5493.9498 
  147500      147.488    384.00573     15.78445   -445.40682   -429.62237    2474.0274   -7174.5326   -4080.8408    18677.456    15.558093    13.473705    26.208438    5493.9478 
  148000      147.988    375.99152    15.455029   -445.05255   -429.59752    2029.1725   -7779.6602   -2275.0642    16142.242    15.558096    13.473707     26.20842    5493.9458 
  148500      148.488    371.78105    15.281958   -444.85521   -429.57325    1329.9303    -9557.302   -4101.1498    17648.243    15.558098    13.473709    26.208403    5493.9438 
  149000      148.988    372.88441    15.327312   -444.87623   -429.54891    1569.0885   -7992.9748   -442.20866    13142.449      15.5581    13.473711    26.208385    5493.9418 
  149500      149.488    365.11815    15.008082   -444.53265   -429.52457    259.10358   -8174.8897   -4905.9752    13858.176    15.558103    13.473713    26.208368    5493.9398 
  150000      149.988    372.83909    15.325448    -444.8252   -429.49975    1421.0464   -6729.2121   -3872.8147    14865.166    15.558105    13.473715     26.20835    5493.9378 
  150500      150.488    357.23039    14.683857   -444.15893   -429.47507    1987.2955   -8342.7232    385.96844    13918.641    15.558107    13.473717    26.208333    5493.9358 
  151000      150.988    370.01906    15.209532   -444.66012   -429.45059    1639.0198   -10803.097    1975.8347    13744.322     15.55811    13.473719    26.208315    5493.9338 
  151500      151.488    377.84346    15.531152   -444.95798   -429.42683    1128.2104   -10824.971   -2659.6961    16869.298    15.558112    13.473721    26.208298    5493.9318 
  152000      151.988    378.61972     15.56306   -444.96639   -429.40333    1908.7045   -10264.607   -3310.9426    19301.663    15.558114    13.473723     26.20828    5493.9298 
  152500      152.488    378.56568    15.560839   -444.93901   -429.37817    2062.6916   -7539.8992   -4151.2138    17879.188    15.558117    13.473725    26.208263    5493.9278 
  153000      152.988    355.69879    14.620901   -443.97436   -429.35346    2672.1999   -4981.2451   -5242.3624    18240.207    15.558119    13.473727    26.208245    5493.9258 
  153500      153.488    381.60194    15.685643   -445.01483   -429.32919    1110.3124   -8175.3104   -7723.7189    19229.967    15.558121    13.473729    26.208228    5493.9238 
  154000      153.988    386.23561    15.876109   -445.18114   -429.30503    1597.9446   -9438.5499   -1526.7075    15759.091    15.558124    13.473731     26.20821    5493.9218 
  154500      154.488    358.50775    14.736363    -444.0151   -429.27873     1526.323   -7110.5269   -5736.3732    17425.869    15.558126    13.473733    26.208193    5493.9198 
  155000      154.988    358.34804    14.729798   -443.98433   -429.25454    2338.2358   -7607.8209   -3184.9504    17807.479    15.558128    13.473735    26.208175    5493.9178 
  155500      155.488    365.41696    15.020364    -444.2506   -429.23024    2044.5271   -7980.9111   -1867.8748    15982.367    15.558131    13.473738    26.208158    5493.9158 
  156000      155.988    364.71404    14.991471   -444.19679   -429.20532    1936.4952   -9912.4884   -2623.1833    18345.157    15.558133     13.47374     26.20814    5493.9138 
  156500      156.488     397.9164    16.356245   -445.53726   -429.18101    300.50018   -9514.9681   -5751.1187    16167.587    15.558135    13.473742    26.208123    5493.9118 
  157000      156.988    366.06497       15.047   -444.20258   -429.15558    1961.4865   -9387.6499   -1469.3988    16741.508    15.558138    13.473744    26.208105    5493.9098 
  157500      157.488    388.59181     15.97296     -445.104   -429.13104    420.28674   -9337.5207   -5837.5043    16435.885     15.55814    13.473746    26.208088    5493.9078 
  158000      157.988     385.4803    15.845062   -444.95072   -429.10566    1711.5878   -7114.8655   -4331.7277    16581.357    15.558143    13.473748     26.20807    5493.9058 
  158500      158.488    377.55408    15.519257   -444.60042   -429.08116    2992.1308   -5565.8788   -3473.9475    18016.219    15.558145     13.47375    26.208053    5493.9038 
  159000      158.988    383.76532    15.774568   -444.83061   -429.05604    917.50425    -8055.223   -6719.7589    17527.495    15.558147    13.473752    26.208035    5493.9018 
  159500      159.488    355.89845    14.629108   -443.65958   -429.03048    2812.1727   -7783.6166    675.30032    15544.834     15.55815    13.473754    26.208018    5493.8998 
  160000      159.988    384.51273     15.80529   -444.81158   -429.00629    1203.0079   -8447.2841   -5839.8206    17896.128    15.558152    13.473756       26.208    5493.8978 
  160500      160.488    421.22428    17.314309   -446.29582   -428.98151    1649.0964   -6630.1581   -3693.3628     15270.81    15.558154    13.473758    26.207983    5493.8957 
  161000      160.988    370.16086    15.215361   -444.17108   -428.95572    2547.4246   -8822.1859   -1480.1984    17944.658    15.558157     13.47376    26.207965    5493.8937 
  161500      161.488    394.89223    16.231937   -445.16275   -428.93082    1031.4796   -8724.2848   -3729.8515    15548.575    15.558159    13.473762    26.207948    5493.8917 
  162000      161.988    398.30572    16.372247   -445.27846   -428.90621    752.84128   -11093.942   -3856.1407    17208.606    15.558161    13.473764     26.20793    5493.8897 
  162500      162.488    365.75936    15.034438   -443.91487   -428.88043     2659.751   -6920.4821   -3806.5501    18706.285    15.558164    13.473766    26.207913    5493.8877 
  163000      162.988    368.10666    15.130924   -443.98637   -428.85545    932.08565   -9822.9989   -4450.1819    17069.438    15.558166    13.473768    26.207895    5493.8857 
  163500      163.488    397.88182    16.354823   -445.18629   -428.83147    2352.9943   -7431.9715   -4473.7135    18964.668    15.558168     13.47377    26.207878    5493.8837 
  164000      163.988    390.20671     16.03934   -444.84495   -428.80561    358.53409   -11502.935    408.12479    12170.413    15.558171    13.473772     26.20786    5493.8817 
  164500      164.488    357.24837    14.684596    -443.4651    -428.7805    3092.8305     -8483.78   -2511.0125    20273.284    15.558173    13.473774    26.207843    5493.8797 
  165000      164.988    370.86107    15.244143   -443.99984    -428.7557    1321.6539   -9924.8819   -1343.2917    15233.135    15.558175    13.473776    26.207825    5493.8777 
  165500      165.488      399.486    16.420763     -445.152   -428.73124    1872.4442   -10411.078   -2568.4024    18596.813    15.558178    13.473779    26.207808    5493.8757 
  166000      165.988    370.16288    15.215444    -443.9212   -428.70575     2311.904   -8812.2941   -1566.7038     17314.71     15.55818    13.473781     26.20779    5493.8737 
  166500      166.488    380.42147     15.63712    -444.3177   -428.68058    2462.7901   -8886.6846   -1356.8114    17631.866    15.558182    13.473783    26.207773    5493.8717 
  167000      166.988    398.80044    16.392583   -445.04756   -428.65497    2286.7831   -8751.3958   -2587.2218    18198.967    15.558185    13.473785    26.207755    5493.8697 
  167500      167.488    381.46793    15.680135   -444.31014   -428.63001    1814.4942   -8655.2748   -1316.5649    15415.322    15.558187    13.473787    26.207738    5493.8677 
  168000      167.988     375.2132    15.423036   -444.02861   -428.60557    2590.6269    -9709.447   -2739.2528     20220.58     15.55819    13.473789     26.20772    5493.8657 
  168500      168.488    380.72552    15.649618   -444.22996   -428.58035    2666.4172   -5980.9547   -1734.8496    15715.056    15.558192    13.473791    26.207703    5493.8637 
  169000      168.988     382.9804    15.742305   -444.29735   -428.55504    1661.7356   -8595.3722   -3204.1741    16784.753    15.558194    13.473793    26.207685    5493.8617 
  169500      169.488    400.67254    16.469535    -444.9987   -428.52916    1078.6972   -9050.9685   -3056.9401        15344    15.558197    13.473795    26.207668    5493.8597 
  170000      169.988    386.48823    15.886493   -444.39033   -428.50384    1118.2192   -8401.8381   -3707.8583    15464.354    15.558199    13.473797     26.20765    5493.8577 
  170500      170.488     399.8908    16.437402   -444.91597   -428.47857     397.8465    -7376.781    -7550.209     16120.53    15.558201    13.473799    26.207633    5493.8557 
  171000      170.988    370.32243    15.222002   -443.67418   -428.45218    1702.4536   -10547.237   -2191.4195    17846.018    15.558204    13.473801    26.207615    5493.8537 
  171500      171.488    386.08347    15.869855    -444.2971   -428.42724    2602.5509   -9487.1751   -1454.6616    18749.489    15.558206    13.473803    26.207598    5493.8517 
  172000      171.988    392.30629    16.125643   -444.52782   -428.40218    2601.2098   -6727.2447   -1944.3751    16475.249    15.558208    13.473805     26.20758    5493.8497 
  172500      172.488    381.61455    15.686161   -444.06215   -428.37599     2527.767   -4912.0155   -6260.7308    18756.047    15.558211    13.473807    26.207563    5493.8477 
  173000      172.988    381.15438    15.667246   -444.01698   -428.34973     1717.853   -7501.5332   -2411.0783     15066.17    15.558213    13.473809    26.207545    5493.8457 
  173500      173.488    390.41631    16.047956   -444.37238   -428.32442    1230.8907    -10120.37   -3101.4295    16914.472    15.558215    13.473811    26.207528    5493.8437 
  174000      173.988    399.22856     16.41018   -444.70953   -428.29935    1651.6625   -8553.5552   -5984.7463    19493.289    15.558218    13.473813     26.20751    5493.8417 
  174500      174.488    382.60837    15.727012   -443.99995   -428.27294    1554.0599   -7002.4889   -5139.6446    16804.313     15.55822    13.473815    26.207493    5493.8397 
  175000      174.988    404.65525    16.633243   -444.88142   -428.24818    1592.8119   -6230.5032   -4877.3036    15886.243    15.558222    13.473817    26.207475    5493.8377 
  175500      175.488    379.38842    15.594657   -443.81606   -428.22141    974.54651    -6844.581   -5106.1061    14874.327    15.558225     13.47382    26.207458    5493.8357 
  176000      175.988    405.31327    16.660291   -444.85626   -428.19597    955.11428   -9184.5776   -1358.6164    13408.537    15.558227    13.473822     26.20744    5493.8337 
  176500      176.488    401.37505    16.498411   -444.66934   -428.17093    2993.8278   -9790.6865   -1284.6349    20056.805    15.558229    13.473824    26.207423    5493.8317 
  177000      176.988    415.96312     17.09805   -445.24247   -428.14442    801.19121   -8693.4137   -2713.5596    13810.547    15.558232    13.473826    26.207405    5493.8297 
  177500      177.488    395.52399    16.257905   -444.37666   -428.11876     2276.439   -6677.7644   -3555.8549    17062.936    15.558234    13.473828    26.207388    5493.8277 
  178000      177.988    399.48611    16.420767   -444.51365   -428.09288    977.15105    -7999.761    -2192.028    13123.242    15.558237     13.47383     26.20737    5493.8257 
  178500      178.488    412.22703    16.944479   -445.01172   -428.06724    3054.2913   -7474.9541   -107.10248    16744.931    15.558239    13.473832    26.207353    5493.8236 
  179000      178.988    397.66093    16.345744   -444.38671   -428.04097    1386.0725   -9790.9289   -3600.9201    17550.067    15.558241    13.473834    26.207335    5493.8216 
  179500      179.488    401.60567    16.507891    -444.5234   -428.01551    2360.1946   -10077.372   -2200.0714    19358.028    15.558244    13.473836    26.207318    5493.8196 
  180000      179.988    415.23265    17.068024   -445.05755   -427.98952    981.01948   -7659.7607   -3168.7051    13771.524    15.558246    13.473838      26.2073    5493.8176 
  180500      180.488     419.0356    17.224344   -445.18861   -427.96426    1503.7653   -7077.7119   -4623.5253    16212.533    15.558248     13.47384    26.207283    5493.8156 
  181000      180.988    379.52212    15.600153   -443.53722   -427.93707    2304.2984    -9619.526    -2989.854    19522.275    15.558251    13.473842    26.207265    5493.8136 
  181500      181.488    403.65656    16.592192   -444.50401   -427.91182    2258.4419   -8682.3842   -4508.0742    19965.784    15.558253    13.473844    26.207248    5493.8116 
  182000      181.988    395.19637    16.244439    -444.1302   -427.88576    2126.0218   -7510.9736   -2846.2879    16735.327    15.558255    13.473846     26.20723    5493.8096 
  182500      182.488    382.34726     15.71628   -443.57539   -427.85911    3221.4025   -7032.6402   -4158.1555    20855.003    15.558258    13.473848    26.207213    5493.8076 
  183000      182.988    403.32519    16.578572   -444.41114   -427.83256    3265.0116   -7823.1188   -126.54171    17744.695     15.55826     13.47385    26.207195    5493.8056 
  183500      183.488    404.54688    16.628789    -444.4352   -427.80641     929.5748    -10364.15    -3756.881    16909.756    15.558262    13.473852    26.207178    5493.8036 
  184000      183.988    393.41933    16.171394   -443.95163   -427.78024    3155.6866   -7811.3111   -2096.3279    19374.699    15.558265    13.473854     26.20716    5493.8016 
  184500      184.488    421.17121    17.312127    -445.0671   -427.75498    414.92917   -8253.9101    -2513.815    12012.513    15.558267    13.473856    26.207143    5493.7996 
  185000      184.988    407.78965    16.762082   -444.49095   -427.72887    2350.4004   -6332.6887   -5303.9387    18687.829    15.558269    13.473858    26.207125    5493.7976 
  185500      185.488    409.85175    16.846844    -444.5486   -427.70176    2479.8673   -6370.6555   -1171.8721     14982.13    15.558272    13.473861    26.207108    5493.7956 
  186000      185.988    411.86095    16.929432    -444.6053   -427.67587    2187.5764   -5902.2269   -3489.3709    15954.327    15.558274    13.473863     26.20709    5493.7936 
  186500      186.488    403.82115    16.598958   -444.24834   -427.64938    1244.6461   -9871.3247   -3288.8657    16894.129    15.558276    13.473865    26.207073    5493.7916 
  187000      186.988    406.77462    16.720359   -444.34344   -427.62308     2441.693   -7476.5125   -6094.1056    20895.697    15.558279    13.473867    26.207055    5493.7896 
  187500      187.488    410.52912    16.874687   -444.47227   -427.59759    1980.9361   -8948.2265   -2032.8194    16923.854    15.558281    13.473869    26.207038    5493.7876 
  188000      187.988    392.91559    16.150688   -443.72127   -427.57058    2967.1655   -6944.1261    -1936.436    17782.059    15.558284    13.473871     26.20702    5493.7856 
  188500      188.488    416.59904    17.124189   -444.66894   -427.54476    3345.3041   -8524.7468   -2776.5262    21337.185    15.558286    13.473873    26.207003    5493.7836 
  189000      188.988     385.9088    15.862675   -443.38049   -427.51782    2262.1779   -8619.5172   -2995.7197    18401.771    15.558288    13.473875    26.206985    5493.7816 
  189500      189.488    412.50261    16.955807   -444.44744   -427.49163    1880.6584    -8312.056    -2404.938    16358.969    15.558291    13.473877    26.206968    5493.7796 
  190000      189.988    409.12853    16.817116   -444.28164   -427.46453    2646.9462   -7992.2847   -702.81334    16635.937    15.558293    13.473879     26.20695    5493.7776 
  190500      190.488    407.76512    16.761074   -444.20067    -427.4396    2548.8158   -6070.6488   -1829.5302    15546.626    15.558295    13.473881    26.206933    5493.7756 
  191000      190.988     406.4735    16.707982   -444.12065   -427.41267    1879.1528   -10101.661    1066.6299     14672.49    15.558298    13.473883    26.206915    5493.7736 
  191500      191.488    420.45988    17.282888   -444.66992   -427.38703    3311.6883   -7294.0164    -4151.534    21380.615      15.5583    13.473885    26.206898    5493.7716 
  192000      191.988     423.4705    17.406639   -444.76689   -427.36026    3009.5432   -5827.4811    -2335.207    17191.318    15.558302    13.473887     26.20688    5493.7696 
  192500      192.488    414.46746    17.036571   -444.36982   -427.33325    2855.0803   -6959.2744    -2513.188    18037.703    15.558305    13.473889    26.206863    5493.7676 
  193000      192.988    388.79539    15.981328   -443.28812   -427.30679    4011.2071   -7522.6314   -1160.2619    20716.515    15.558307    13.473891    26.206845    5493.7656 
  193500      193.488    414.07007    17.020237   -444.30119   -427.28095    2946.2863   -4812.7218    -5988.237    19639.818    15.558309    13.473893    26.206828    5493.7636 
  194000      193.988    388.69539    15.977218   -443.23134   -427.25412    3136.3607    -5244.556    -7114.391    21768.029    15.558312    13.473895     26.20681    5493.7616 
  194500      194.488     395.4209    16.253668   -443.48067   -427.22701    3251.2184   -6737.5215   -2838.1847    19329.362    15.558314    13.473897    26.206793    5493.7596 
  195000      194.988    400.13345    16.447376   -443.64817   -427.20079    2652.7119   -9151.6635   -71.846069    17181.645    15.558316    13.473899    26.206775    5493.7576 
  195500      195.488    393.36121    16.169005   -443.34263   -427.17362     1998.779   -8790.0059   -2811.8447    17598.188    15.558319    13.473902    26.206758    5493.7556 
  196000      195.988    415.34844    17.072784   -444.22018    -427.1474    2169.3369   -7274.3976   -5115.5626    18897.971    15.558321    13.473904     26.20674    5493.7535 
  196500      196.488    386.87476    15.902381   -443.02242   -427.12004    3493.1962   -5974.5058   -2561.3778    19015.472    15.558323    13.473906    26.206723    5493.7515 
  197000      196.988    403.90964    16.602595   -443.69526   -427.09266    2718.5102   -9149.6493    -1806.378    19111.558    15.558326    13.473908    26.206705    5493.7495 
  197500      197.488    404.63998    16.632616   -443.69919   -427.06658    2538.4282   -5695.2677   -1969.4933    15280.046    15.558328     13.47391    26.206688    5493.7475 
  198000      197.988    418.95106    17.220868   -444.26162   -427.04075    2550.7599   -6648.8769   -5888.9576    20190.114    15.558331    13.473912     26.20667    5493.7455 
  198500      198.488    394.82141    16.229026   -443.24302     -427.014    3595.9154   -6213.1194   -4216.6708    21217.536    15.558333    13.473914    26.206653    5493.7435 
  199000      198.988    398.37786    16.375213   -443.36187   -426.98665     2264.309    -8783.926   -2216.3833    17793.236    15.558335    13.473916    26.206635    5493.7415 
  199500      199.488    418.51104    17.202782   -444.16308    -426.9603    3673.5708   -6118.0405   -7038.3205    24177.074    15.558338    13.473918    26.206618    5493.7395 
  200000      199.988    439.66619    18.072358   -445.00664   -426.93428    3261.8958    -8341.004   -4651.5778    22778.269     15.55834     13.47392      26.2066    5493.7375 
  200500      200.488    421.71753    17.334584   -444.24123   -426.90664    4230.2081   -7636.2122   -724.55736    21051.394    15.558342    13.473922    26.206583    5493.7355 
  201000      200.988    417.95876     17.18008   -444.06034   -426.88026     1857.262   -6770.4915   -1610.9739    13953.251    15.558345    13.473924    26.206565    5493.7335 
  201500      201.488     440.1293    18.091394   -444.94439   -426.85299    1669.5102   -7941.5174   -3376.7469    16326.795    15.558347    13.473926    26.206548    5493.7315 
  202000      201.988    407.41196    16.746557   -443.57198   -426.82542    2640.7667   -8177.1488    378.27101    15721.178    15.558349    13.473928     26.20653    5493.7295 
  202500      202.488    407.04245    16.731368   -443.52945   -426.79808    2100.6452    -7719.498   -3913.3097    17934.743    15.558352     13.47393    26.206513    5493.7275 
  203000      202.988    411.40855    16.910836   -443.68199   -426.77115    2832.0408   -7184.2571    -619.8173    16300.197    15.558354    13.473932    26.206495    5493.7255 
  203500      203.488    385.85725    15.860557    -442.6042   -426.74365    4100.7384   -9953.9253   -2253.7136    24509.854    15.558356    13.473934    26.206478    5493.7235 
  204000      203.988    395.23869    16.246178   -442.96269   -426.71651    2534.9475   -8584.4536   -1883.6382    18072.934    15.558359    13.473936     26.20646    5493.7215 
  204500      204.488    438.92757    18.041997    -444.7328   -426.69081    2703.1836    -7853.462   -2623.9399    18586.953    15.558361    13.473938    26.206443    5493.7195 
  205000      204.988    404.28176    16.617891   -443.28058   -426.66269    2249.7873   -8491.0728   -2951.4872    18191.922    15.558363     13.47394    26.206425    5493.7175 
  205500      205.488    422.95605    17.385492    -444.0221   -426.63661    2364.5303   -8447.6995    -1646.838    17188.128    15.558366    13.473943    26.206408    5493.7155 
  206000      205.988    401.37067    16.498231   -443.10731   -426.60908     2624.187   -8062.1096    602.76571    15331.905    15.558368    13.473945     26.20639    5493.7135 
  206500      206.488     417.7977     17.17346    -443.7555   -426.58204    2280.2083    -7488.766   -5437.5275    19766.918     15.55837    13.473947    26.206373    5493.7115 
  207000      206.988    412.15845     16.94166   -443.49619   -426.55453      2895.14   -7302.9833   -1056.9384    17045.342    15.558373    13.473949    26.206355    5493.7095 
  207500      207.488    428.74514    17.623451   -444.15014   -426.52669    2797.2153   -8655.2955    -2367.322    19414.263    15.558375    13.473951    26.206338    5493.7075 
  208000      207.988    421.28065    17.316626   -443.81632   -426.49969    1896.4219   -10227.843   -4272.8626    20189.971    15.558378    13.473953     26.20632    5493.7055 
  208500      208.488    423.15682    17.393745   -443.86736   -426.47362    2998.5918   -7990.1981   -2395.8242    19381.798     15.55838    13.473955    26.206303    5493.7035 
  209000      208.988      406.742    16.719018   -443.16474   -426.44572    4565.4704   -7823.3269   -1635.1041    23154.842    15.558382    13.473957    26.206285    5493.7015 
  209500      209.488    422.89717    17.383072   -443.80127   -426.41819     2486.569   -8537.3146    -914.5824    16911.604    15.558385    13.473959    26.206268    5493.6995 
  210000      209.988    406.66508    16.715857   -443.10628   -426.39042    1723.6154   -10028.006   -2460.9073     17659.76    15.558387    13.473961     26.20625    5493.6975 
  210500      210.488    416.57479    17.123193   -443.48744   -426.36424    634.40353   -10587.755   -4048.6294    16539.595    15.558389    13.473963    26.206233    5493.6955 
  211000      210.988    428.11457    17.597532   -443.93394   -426.33641    2059.9001   -6737.5305   -4847.5593     17764.79    15.558392    13.473965    26.206215    5493.6935 
  211500      211.488    418.39943    17.198194   -443.50695   -426.30876     2680.813   -8990.0599   -2306.0188    19338.518    15.558394    13.473967    26.206198    5493.6915 
  212000      211.988    417.71457    17.170043   -443.45207   -426.28202    2776.6136   -9137.1741   -6461.1261    23928.141    15.558396    13.473969     26.20618    5493.6895 
[...]
  948500      948.488    554.54113    22.794261   -437.07694   -414.28268    8588.3321   -2725.2335   -149.22916    28639.459    15.561858    13.476989    26.180403     5490.737 
  949000      948.988    549.14585     22.57249    -436.8547   -414.28221    9086.2939   -3962.6771     3306.441    27915.118     15.56186    13.476991    26.180385     5490.735 
  949500      949.488    552.07804    22.693017   -436.97384   -414.28082    9221.4651   -2898.7761    4178.2181    26384.953    15.561863    13.476993    26.180368    5490.7329 
  950000      949.988    572.44034    23.530003   -437.80966   -414.27965    7962.0632   -3150.5173    2422.4814    24614.226    15.561865    13.476995     26.18035    5490.7309 
  950500      950.488    554.81273    22.805425   -437.08409   -414.27866    10135.603   -2383.1642    5242.1929    27547.779    15.561867    13.476997    26.180333    5490.7289 
  951000      950.988    554.58744    22.796165   -437.07249   -414.27633    8803.8955   -1815.9021    3032.4875    25195.101     15.56187    13.476999    26.180315    5490.7269 
  951500      951.488    569.12461    23.393711   -437.67055   -414.27683    7591.3886   -5904.1655    5844.2884    22834.043    15.561872    13.477001    26.180298    5490.7249 
  952000      951.988    562.77854    23.132858   -437.40714   -414.27429    6615.3664    -3644.822    443.27151     23047.65    15.561874    13.477003     26.18028    5490.7229 
  952500      952.488    574.15757     23.60059   -437.87358   -414.27299    9006.2828   -4228.7114    1373.8435    29873.716    15.561877    13.477005    26.180263    5490.7209 
  953000      952.988    551.19933    22.656898   -436.92747   -414.27057     9363.266    -2833.872    6476.0472    24447.623    15.561879    13.477007    26.180245    5490.7189 
  953500      953.488    553.48883    22.751007   -437.01826   -414.26726    8865.9494   -2010.3322    4142.9564    24465.224    15.561881    13.477009    26.180228    5490.7169 
  954000      953.988    600.34589    24.677053   -438.94535   -414.26829    8622.1453   -5278.2679     6470.731    24673.973    15.561884    13.477011     26.18021    5490.7149 
  954500      954.488    586.49018    24.107518   -438.37176   -414.26424    7338.8988   -2371.8295   -1225.0904    25613.616    15.561886    13.477013    26.180193    5490.7129 
  955000      954.988    572.98151    23.552248    -437.8129   -414.26065    9466.4467   -485.07658     -1383.67    30268.087    15.561888    13.477015    26.180175    5490.7109 
  955500      955.488    561.68584    23.087943   -437.34587   -414.25793    8892.8891   -5079.1449    21.553362    31736.259    15.561891    13.477018    26.180158    5490.7089 
  956000      955.988    542.60791     22.30375   -436.55927   -414.25552    10481.275    301.42942    1195.1172    29947.279    15.561893     13.47702     26.18014    5490.7069 
  956500      956.488    582.52832    23.944667   -438.19714   -414.25248    9055.7997   -1579.7537   -131.07376    28878.227    15.561895    13.477022    26.180123    5490.7049 
  957000      956.988    579.01238    23.800145   -438.04989   -414.24975    9996.0897   -2528.6973     4929.789    27587.177    15.561898    13.477024    26.180105    5490.7029 
  957500      957.488    584.04721    24.007101   -438.25429   -414.24719    8407.9111   -3630.4687    2224.4031    26629.799      15.5619    13.477026    26.180088    5490.7009 
  958000      957.988    523.58329    21.521748   -435.76452   -414.24278    10952.211   -4082.1129    5302.6463      31636.1    15.561903    13.477028     26.18007    5490.6988 
  958500      958.488    560.35159    23.033099   -437.27318   -414.24008    8915.2206   -3249.3856   -778.58642    30773.634    15.561905     13.47703    26.180053    5490.6968 
  959000      958.988    610.79649    25.106623   -439.34374   -414.23712    8377.5927   -1911.5964    474.85178    26569.523    15.561907    13.477032    26.180035    5490.6948 
  959500      959.488    572.50406    23.532623   -437.76717   -414.23454    8978.5129   -1002.3543    2044.8627     25893.03     15.56191    13.477034    26.180018    5490.6928 
  960000      959.988    591.34826    24.307208   -438.53859   -414.23139     8644.424   -2629.0331   -502.76919    29065.074    15.561912    13.477036        26.18    5490.6908 
  960500      960.488    564.12828    23.188338   -437.41433   -414.22599    9199.7665   -1764.8756    1640.0643    27724.111    15.561914    13.477038    26.179983    5490.6888 
  961000      960.988    565.32844    23.237671   -437.46048   -414.22281    9266.9107   -4028.1578    1522.0132    30306.877    15.561917     13.47704    26.179965    5490.6868 
  961500      961.488     547.3321    22.497936    -436.7163   -414.21836    8833.9889   -2777.0983    1030.2439    28248.821    15.561919    13.477042    26.179948    5490.6848 
  962000      961.988    589.10787    24.215118   -438.43009   -414.21497    9566.5935   -1003.3541    454.04348    29249.091    15.561921    13.477044     26.17993    5490.6828 
  962500      962.488    586.15294    24.093656   -438.30559   -414.21194    9805.1592   -3978.1419    2185.9914    31207.628    15.561924    13.477046    26.179913    5490.6808 
  963000      962.988     542.5957    22.303248   -436.51111   -414.20787     10589.56    -1215.315    3792.3085    29191.687    15.561926    13.477048    26.179895    5490.6788 
  963500      963.488    534.05699    21.952266   -436.15719   -414.20493    11239.609   -2579.0123    5917.0761    30380.764    15.561928     13.47705    26.179878    5490.6768 
  964000      963.988    544.84404    22.395665   -436.59636    -414.2007    10424.162    -1439.422    1068.5937    31643.313    15.561931    13.477052     26.17986    5490.6748 
  964500      964.488    567.84059    23.340932   -437.53783    -414.1969    10451.051   -2799.4725    2222.0251    31930.602    15.561933    13.477054    26.179843    5490.6728 
  965000      964.988    541.84221    22.272276   -436.46529   -414.19301    9056.9549   -5092.9332    250.35908    32013.439    15.561935    13.477056    26.179825    5490.6708 
  965500      965.488    535.47761     22.01066   -436.20153   -414.19087    9218.2091   -859.33998    2350.4283    26163.539    15.561938    13.477059    26.179808    5490.6688 
  966000      965.988    576.60737    23.701288   -437.88903   -414.18774     6469.378   -3048.5306    140.28952    22316.375     15.56194    13.477061     26.17979    5490.6668 
  966500      966.488    555.03761    22.814669   -436.99683   -414.18216    6778.4963   -3310.8229   -1630.0142    25276.326    15.561942    13.477063    26.179773    5490.6647 
  967000      966.988    581.99257    23.922645   -438.10271   -414.18007    9044.2859   -519.67845    1401.8577    26250.679    15.561945    13.477065    26.179755    5490.6627 
  967500      967.488    568.74167    23.377971   -437.55296   -414.17499    8273.4579   -5197.7461    4584.8109    25433.309    15.561947    13.477067    26.179738    5490.6607 
  968000      967.988    547.48505    22.504223   -436.67708   -414.17285    9857.1169   -2776.4868    1343.0949    31004.743     15.56195    13.477069     26.17972    5490.6587 
  968500      968.488    547.65095    22.511042   -436.67915   -414.16811    10740.693   -4876.2979    5527.0136    31571.364    15.561952    13.477071    26.179703    5490.6567 
  969000      968.988    578.56628    23.781808   -437.94566   -414.16385    8643.4925   -8840.1492    5436.2746    29334.352    15.561954    13.477073    26.179685    5490.6547 
  969500      969.488    548.59911    22.550016   -436.71052    -414.1605    9608.9092   -4457.0809    5058.1798    28225.629    15.561957    13.477075    26.179668    5490.6527 
  970000      969.988    579.90183    23.836706   -437.99425   -414.15754    9263.7397   -2212.2471    2375.6286    27627.838    15.561959    13.477077     26.17965    5490.6507 
  970500      970.488    526.46301    21.640118   -435.79148   -414.15136    9420.3874    -1270.099    1156.7357    28374.526    15.561961    13.477079    26.179633    5490.6487 
  971000      970.988    544.07746    22.364155   -436.51054   -414.14638    9748.6669   -3654.1074    1891.0734    31009.035    15.561964    13.477081    26.179615    5490.6467 
  971500      971.488    544.95557     22.40025   -436.54315    -414.1429    10436.947    307.85614    1237.8156    29765.168    15.561966    13.477083    26.179598    5490.6447 
  972000      971.988    572.20796    23.520451   -437.66034   -414.13989    8415.4558   -3140.9767    3254.7728    25132.571    15.561968    13.477085     26.17958    5490.6427 
  972500      972.488    589.39389    24.226874   -438.36009   -414.13321     9645.577   -3773.3476    3481.8019    29228.277    15.561971    13.477087    26.179563    5490.6407 
  973000      972.988    586.29891    24.099656   -438.22783   -414.12818    8733.2155   -4807.2367    2867.4072    28139.476    15.561973    13.477089    26.179545    5490.6387 
  973500      973.488    568.02483    23.348505   -437.47048   -414.12197    8166.4661   -3950.0341    105.74226     28343.69    15.561975    13.477091    26.179528    5490.6367 
  974000      973.988    587.97066    24.168373   -438.28404   -414.11567    7227.6847   -4513.5582   -1301.8818    27498.494    15.561978    13.477093     26.17951    5490.6347 
  974500      974.488    539.91694    22.193138   -436.30272   -414.10958     9100.445   -1328.4129    223.34492    28406.403     15.56198    13.477095    26.179493    5490.6327 
  975000      974.988    583.02315    23.965007   -438.06897   -414.10396    8243.2659   -6209.6883    2274.2802    28665.206    15.561982    13.477097    26.179475    5490.6306 
  975500      975.488    544.79779    22.393764   -436.49253   -414.09877    9187.3734   -2282.1128    959.94966    28884.283    15.561985      13.4771    26.179458    5490.6286 
  976000      975.988    585.24505    24.056337   -438.15104    -414.0947    7832.1502   -5249.8825    1900.6422    26845.691    15.561987    13.477102     26.17944    5490.6266 
  976500      976.488    525.87258    21.615848   -435.70443   -414.08858    10446.634   -6224.8728    8520.9768    29043.799    15.561989    13.477104    26.179423    5490.6246 
  977000      976.988    589.83203    24.244884   -438.32947   -414.08459    9039.9379   -2645.6042     5342.199    24423.219    15.561992    13.477106    26.179405    5490.6226 
  977500      977.488    548.55468     22.54819   -436.62726   -414.07907    8663.3354   -3457.3495    1205.4511    28241.905    15.561994    13.477108    26.179388    5490.6206 
  978000      977.988    586.78599    24.119677   -438.19365   -414.07397    7632.2694   -4954.9181    2448.8465     25402.88    15.561997     13.47711     26.17937    5490.6186 
  978500      978.488    562.36053    23.115676    -437.1857   -414.07002    9201.7603   -4150.2446     6807.828    24947.697    15.561999    13.477112    26.179353    5490.6166 
  979000      978.988    596.53028    24.520214   -438.58623   -414.06602    9388.4273   -1997.5658    1280.6737    28882.174    15.562001    13.477114    26.179335    5490.6146 
  979500      979.488    558.02644    22.937524   -436.99692    -414.0594    11823.279   -2807.5765    5191.8129    33085.599    15.562004    13.477116    26.179318    5490.6126 
  980000      979.988    559.70279     23.00643   -437.06046   -414.05403    7921.4274   -1844.9684    2611.2399    22998.011    15.562006    13.477118      26.1793    5490.6106 
  980500      980.488    540.04403    22.198362   -436.24544   -414.04708    8309.8686   -346.51459   -901.98991     26178.11    15.562008     13.47712    26.179283    5490.6086 
  981000      980.988    560.34096    23.032662   -437.07345   -414.04079    10166.062    -2744.734    6888.9998    26353.922    15.562011    13.477122    26.179265    5490.6066 
  981500      981.488    555.41868    22.830333   -436.86616   -414.03583    7684.3549   -3243.6178    1680.8679    24615.814    15.562013    13.477124    26.179248    5490.6046 
  982000      981.988    575.20822    23.643776   -437.67417    -414.0304     7216.896   -6593.0416    4207.1882    24036.541    15.562015    13.477126     26.17923    5490.6026 
  982500      982.488    568.62456    23.373157   -437.39523   -414.02207    9745.0192   -247.35894    1347.1563     28135.26    15.562018    13.477128    26.179213    5490.6006 
  983000      982.988    556.38036    22.869862   -436.88434   -414.01448     8637.459   -3972.5197    5733.3978    24151.499     15.56202     13.47713    26.179195    5490.5985 
  983500      983.488    586.22101    24.096454    -438.1062   -414.00974    8996.4724    2317.1685    4175.4735    20496.775    15.562022    13.477132    26.179178    5490.5965 
  984000      983.988     585.1814    24.053721   -438.05757   -414.00385    9008.7806   -1151.9641    4283.9106    23894.395    15.562025    13.477134     26.17916    5490.5945 
  984500      984.488    562.08896    23.104513    -437.1028   -413.99829     8501.851   -294.35466   -392.81372    26192.721    15.562027    13.477136    26.179143    5490.5925 
  985000      984.988    561.25763    23.070341   -437.06184    -413.9915    9917.5008   -3393.8633     3465.527    29680.839    15.562029    13.477138    26.179125    5490.5905 
  985500      985.488    565.68506     23.25233   -437.23766   -413.98533    8578.1202   -2573.7606    2779.1866    25528.935    15.562032    13.477141    26.179108    5490.5885 
  986000      985.988    563.86702    23.177599    -437.1543    -413.9767    8537.8306   -4188.6421    3022.4427    26779.691    15.562034    13.477143     26.17909    5490.5865 
  986500      986.488    565.65729    23.251188   -437.22255   -413.97136    9448.6354    -955.6598    5247.2455     24054.32    15.562036    13.477145    26.179073    5490.5845 
  987000      986.988    567.43978    23.324457   -437.28986   -413.96541    9294.1032   -4943.5367    3292.4771    29533.369    15.562039    13.477147    26.179055    5490.5825 
  987500      987.488    591.78085     24.32499   -438.28398   -413.95899    8121.7267   -2690.5389    393.57351    26662.145    15.562041    13.477149    26.179038    5490.5805 
  988000      987.988    580.09341    23.844581   -437.79735   -413.95277    6857.1343    -2994.721   -1291.9726    24858.096    15.562044    13.477151     26.17902    5490.5785 
  988500      988.488     550.6847    22.635744   -436.58274     -413.947    8694.0476    -5116.823    3148.0933    28050.872    15.562046    13.477153    26.179003    5490.5765 
  989000      988.988    569.36628    23.403645   -437.34402   -413.94038    8255.2195   -2285.4276    -295.4975    27346.584    15.562048    13.477155    26.178985    5490.5745 
  989500      989.488    548.50774    22.546261   -436.47912   -413.93286    9586.7623    1687.9036   -116.70003    27189.083    15.562051    13.477157    26.178968    5490.5725 
  990000      989.988    537.47952    22.092949   -436.02005   -413.92711    9665.4617   -478.79295    527.60843     28947.57    15.562053    13.477159     26.17895    5490.5705 
  990500      990.488    593.33956     24.38906   -438.30697   -413.91791    8343.0401    -2543.366   -326.82683    27899.313    15.562055    13.477161    26.178933    5490.5685 
  991000      990.988    553.64909    22.757594   -436.66883   -413.91124    9097.9123   -4622.7437    2219.8514    29696.629    15.562058    13.477163    26.178915    5490.5665 
  991500      991.488    536.65545    22.059075   -435.96469   -413.90561    10748.794   -462.37847    2191.8385    30516.922     15.56206    13.477165    26.178898    5490.5644 
  992000      991.988    570.37564    23.445135   -437.34315   -413.89802    8425.2889   -1775.0932   -942.89494    27993.855    15.562062    13.477167     26.17888    5490.5624 
  992500      992.488    569.51714    23.409846   -437.29895   -413.88911    8409.3408   -4178.2002    4615.7038    24790.519    15.562065    13.477169    26.178863    5490.5604 
  993000      992.988    589.82384    24.244547   -438.12709   -413.88254    7499.8897   -4508.4471    1418.0216    25590.095    15.562067    13.477171    26.178845    5490.5584 
  993500      993.488    560.29622    23.030823   -436.90504   -413.87422    9468.3907   -5172.1476    4989.4805    28587.839    15.562069    13.477173    26.178828    5490.5564 
  994000      993.988    557.84881    22.930222   -436.79933    -413.8691    9197.7841   -1693.8256    3280.6687    26006.509    15.562072    13.477175     26.17881    5490.5544 
  994500      994.488    587.39492    24.144707   -438.00653   -413.86182     8864.329   -2628.8546     2197.855    27023.987    15.562074    13.477177    26.178793    5490.5524 
  995000      994.988    569.83847    23.423054   -437.27834   -413.85529    9907.2045   -4222.9374    6500.7042    27443.847    15.562076    13.477179    26.178775    5490.5504 
  995500      995.488    549.16238    22.573169   -436.42051   -413.84734    8883.0203    -2856.424    8078.9252     21426.56    15.562079    13.477182    26.178758    5490.5484 
  996000      995.988    570.07096    23.432611   -437.27124   -413.83863    9350.0389   -3375.2936    5469.8297    25955.581    15.562081    13.477184     26.17874    5490.5464 
  996500      996.488    553.42101    22.748219   -436.57899   -413.83078     9672.473   -5575.5342    7449.7018    27143.251    15.562083    13.477186    26.178723    5490.5444 
  997000      996.988      588.575    24.193214   -438.01736   -413.82415    8189.6577   -4571.9692    2692.5153    26448.427    15.562086    13.477188    26.178705    5490.5424 
  997500      997.488    567.50903    23.327303   -437.14127   -413.81397    9045.1949   -3669.5373    3203.8321     27601.29    15.562088     13.47719    26.178688    5490.5404 
  998000      997.988    601.48338     24.72381    -438.5269   -413.80309    8857.2721   -3402.3461    4280.0621      25694.1    15.562091    13.477192     26.17867    5490.5384 
  998500      998.488     589.4854    24.230636   -438.02703    -413.7964    8980.4794   -3893.5595    317.14724     30517.85    15.562093    13.477194    26.178653    5490.5364 
  999000      998.988    552.51915    22.711149   -436.49844   -413.78729    8078.1707   -3496.1921    1411.0442     26319.66    15.562095    13.477196    26.178635    5490.5344 
  999500      999.488    596.02393      24.4994   -438.28019   -413.78079    7950.1806   -3289.8969    1719.3445    25421.094    15.562098    13.477198    26.178618    5490.5324 
 1000000      999.988    570.19787    23.437827   -437.20961   -413.77178    9419.3504   -949.56194     4491.126    24716.487      15.5621      13.4772      26.1786    5490.5303 
 1000012         1000    571.46912    23.490082   -437.26176   -413.77167     9494.319   -2446.7614    2913.0714    28016.647      15.5621      13.4772      26.1786    5490.5303 
Loop time of 939.577 on 28 procs for 1000000 steps with 319 atoms

Performance: 91.956 ns/day, 0.261 hours/ns, 1064.308 timesteps/s
87.1% CPU use with 28 MPI tasks x no OpenMP threads

MPI task timing breakdown:
Section |  min time  |  avg time  |  max time  |%varavg| %total
---------------------------------------------------------------
Pair    | 757.54     | 809.2      | 861.91     |  87.6 | 86.12
Neigh   | 0.017096   | 0.025769   | 0.034506   |   3.2 |  0.00
Comm    | 66.938     | 118.97     | 169.08     | 222.5 | 12.66
Output  | 0.10178    | 0.10391    | 0.12684    |   1.4 |  0.01
Modify  | 4.7958     | 6.2615     | 7.9482     |  35.4 |  0.67
Other   |            | 5.016      |            |       |  0.53

Nlocal:    11.3929 ave 17 max 6 min
Histogram: 4 2 2 0 4 6 3 3 3 1
Nghost:    660.143 ave 674 max 636 min
Histogram: 1 0 1 2 1 7 6 3 2 5
Neighs:    723.036 ave 1105 max 370 min
Histogram: 3 2 3 1 3 7 3 4 1 1
FullNghs:  1446.07 ave 2177 max 746 min
Histogram: 4 2 2 0 4 6 3 3 3 1

Total # of neighbors = 40490
Ave neighs/atom = 126.928
Neighbor list builds = 381
Dangerous builds = 0

write_restart   POSCAR_1x1x1.rest

#unfix    1
#undump   1
Total wall time: 0:15:39
