LAMMPS (7 Dec 2015)
#----------- Initialize Simulation ------------ restart01
#processors	2 2 2
units		metal
boundary	p p p     ## periodic boundary condition  on x y z axis ##
atom_style atomic
#atom_modify map array sort 0 0.0

read_data	POSCAR_1x1x1.lammps
  triclinic box = (0 0 0) to (15.5717 13.4854 26.1086) with tilt (-7.78575 0 0)
  2 by 2 by 7 MPI processor grid
  reading atoms ...
  319 atoms

#----------- Define Potential -----------------
pair_style meam
pair_coeff * * MgAlZn.library.meam Mg Al Zn MgAlZn.parameter.meam Mg Al Zn 	#1=Mg 2=Al 3=Zn	#atoms/mass

#----------- Neighbor List --------------------
neighbor 2.0 bin
neigh_modify delay 10 check yes

#--------------  Run a simulation (minimization) ---------------------------------------
minimize       1.0e-4   1.0e-6   100   1000          #結構優化的條件
WARNING: Resetting reneighboring criteria during minimization (../min.cpp:168)
Neighbor list info ...
  2 neighbor list requests
  update every 1 steps, delay 0 steps, check yes
  max neighbors/atom: 2000, page size: 100000
  master list distance cutoff = 8
  ghost atom cutoff = 8
  binsize = 4 -> bins = 6 4 7
Memory usage per processor = 8.65254 Mbytes
Step Temp E_pair E_mol TotEng Press 
       0            0   -435.34529            0   -435.34529     8411.532 
      11            0   -459.22373            0   -459.22373   -10785.782 
Loop time of 0.0210207 on 28 procs for 11 steps with 319 atoms

93.5% CPU use with 28 MPI tasks x no OpenMP threads

Minimization stats:
  Stopping criterion = energy tolerance
  Energy initial, next-to-last, final = 
        -435.345287963     -459.180901162     -459.223734583
  Force two-norm initial, final = 22.0488 0.676331
  Force max component initial, final = 5.07671 0.120544
  Final line search alpha, max atom move = 0.541705 0.0652993
  Iterations, force evaluations = 11 19

MPI task timing breakdown:
Section |  min time  |  avg time  |  max time  |%varavg| %total
---------------------------------------------------------------
Pair    | 0.014702   | 0.016395   | 0.019014   |   0.8 | 77.99
Neigh   | 0          | 0          | 0          |   0.0 |  0.00
Comm    | 0.0011456  | 0.00374    | 0.0054066  |   1.8 | 17.79
Output  | 0          | 0          | 0          |   0.0 |  0.00
Modify  | 0          | 0          | 0          |   0.0 |  0.00
Other   |            | 0.0008857  |            |       |  4.21

Nlocal:    11.3929 ave 16 max 6 min
Histogram: 1 4 2 1 1 3 3 6 4 3
Nghost:    660.857 ave 673 max 641 min
Histogram: 2 0 1 1 3 6 3 4 4 4
Neighs:    724.357 ave 1042 max 385 min
Histogram: 5 1 2 0 3 4 5 3 2 3
FullNghs:  1448.71 ave 2066 max 756 min
Histogram: 3 4 1 1 2 4 5 3 2 3

Total # of neighbors = 40564
Ave neighs/atom = 127.16
Neighbor list builds = 0
Dangerous builds = 0
velocity all  create 600.0 4928459 #rot yes dist gaussian

#--------------  Run a simulation (Relaxation)  ----------------------------------------
fix  1  all  nvt   temp  600.0  600.0  100				#damping constant
#fix  2  all  npt   temp  393.0  393.0  50 iso 0.0 0.0 1000.0
fix  2  all deform 1 x final 0 15.5764 y final 0 13.4896 z final 0 26.0737 xy final -7.7881 units lattice
#fix  3  all  npt   temp  393.0  393.0  50 z 0.0 0.0 1000.0

#variable b equal 1
#fix 2 all efield  0.0  0.0  v_b
#compute pot all pe/atom


#----------- Output --------------------------
thermo	 500
timestep  0.001		#1.0 fs
thermo_style	custom step time temp ke pe etotal press pxx pyy pzz lx ly lz vol

dump 1 all custom 10000 dump.eq id type x y z
dump_modify 1 sort  id

run        1000000	#1000 ps
Neighbor list info ...
  2 neighbor list requests
  update every 1 steps, delay 10 steps, check yes
  max neighbors/atom: 2000, page size: 100000
  master list distance cutoff = 8
  ghost atom cutoff = 8
  binsize = 4 -> bins = 6 4 7
Memory usage per processor = 7.55894 Mbytes
Step Time Temp KinEng PotEng TotEng Press Pxx Pyy Pzz Lx Ly Lz Volume 
      11            0          600    24.662836   -459.22373    -434.5609   -5980.9447   -15060.454   -9938.3407    7055.9608      15.5717      13.4854      26.1086    5482.5607 
     500        0.489    311.65461    12.810477   -447.36696   -434.55648   -627.01134   -13093.735   -8096.7095    19309.411    15.571702    13.485402    26.108583    5482.5587 
    1000        0.989     323.3887    13.292804   -447.84882   -434.55602   -651.43578   -12590.821   -6229.4066     16865.92    15.571705    13.485404    26.108565    5482.5567 
    1500        1.489    323.60994    13.301898   -447.85728   -434.55539    565.47137   -9295.1466   -6535.1847    17526.745    15.571707    13.485406    26.108548    5482.5548 
    2000        1.989    302.97583    12.453738   -447.00695   -434.55322    600.40748    -9960.887   -9189.0567    20951.166    15.571709    13.485408    26.108531    5482.5528 
    2500        2.489    309.01008    12.701775   -447.25398   -434.55221    489.12194   -11480.452   -7563.6292    20511.447    15.571712     13.48541    26.108513    5482.5508 
    3000        2.989    333.32331    13.701163   -448.25241   -434.55125    1034.0589   -9414.7143   -8015.7394     20532.63    15.571714    13.485413    26.108496    5482.5488 
    3500        3.489     315.0173      12.9487   -447.49784   -434.54914    1020.2771   -10646.153   -6248.2244    19955.209    15.571716    13.485415    26.108478    5482.5468 
    4000        3.989    323.59441     13.30126    -447.8476   -434.54634     1246.135    -10472.78   -6041.3747    20252.559    15.571719    13.485417    26.108461    5482.5448 
    4500        4.489    308.46634    12.679425   -447.22345   -434.54402     1326.908   -10464.406   -6105.7805    20550.911    15.571721    13.485419    26.108443    5482.5429 
    5000        4.989    313.82327     12.89962   -447.43992    -434.5403      847.239   -9740.3015   -8324.0215     20606.04    15.571723    13.485421    26.108426    5482.5409 
    5500        5.489    323.14478    13.282778   -447.82026   -434.53749    898.46005   -7886.2164   -8755.3681    19336.965    15.571726    13.485423    26.108408    5482.5389 
    6000        5.989    321.41746    13.211777   -447.74559   -434.53381     1113.208   -11454.797   -5798.8216    20593.242    15.571728    13.485425    26.108391    5482.5369 
    6500        6.489    321.11482    13.199337   -447.72954    -434.5302    615.99679   -11404.467   -6578.6134     19831.07     15.57173    13.485427    26.108374    5482.5349 
    7000        6.989    306.21974    12.587079   -447.11258    -434.5255    1187.1608   -9831.8256   -8572.6557    21965.964    15.571733    13.485429    26.108356    5482.5329 
    7500        7.489    316.11551    12.993841    -447.5154   -434.52156    82.061079   -10242.961   -6211.9079    16701.052    15.571735    13.485431    26.108339     5482.531 
    8000        7.989    330.70435    13.593512   -448.11065   -434.51714   -64.234553   -9803.9329   -8811.8431    18423.072    15.571738    13.485434    26.108321     5482.529 
    8500        8.489    310.34859    12.756794   -447.26863   -434.51184    1381.3418   -10699.054   -7430.8466    22273.926     15.57174    13.485436    26.108304     5482.527 
    9000        8.989    306.57619     12.60173   -447.10803    -434.5063   -307.52876   -11634.267   -5386.0753    16097.757    15.571742    13.485438    26.108286     5482.525 
    9500        9.489    308.87837    12.696361   -447.19727   -434.50091     310.6708   -11454.884   -4803.6537     17190.55    15.571745     13.48544    26.108269     5482.523 
   10000        9.989    322.45762    13.254532     -447.749   -434.49447    916.59099   -11649.263   -8456.5034    22855.539    15.571747    13.485442    26.108251     5482.521 
   10500       10.489    319.46348    13.131459   -447.61962   -434.48816    213.57947   -11323.289   -6948.5891    18912.616    15.571749    13.485444    26.108234    5482.5191 
   11000       10.989    320.18185    13.160987    -447.6426   -434.48161    1204.5153    -10923.12   -6008.6741    20545.341    15.571752    13.485446    26.108216    5482.5171 
   11500       11.489    328.22323    13.491526   -447.96621   -434.47468   -579.11046   -11531.841   -10077.844    19872.353    15.571754    13.485448    26.108199    5482.5151 
   12000       11.989    333.18491    13.695475   -448.16327    -434.4678   -18.667896   -10230.286   -7552.5661    17726.849    15.571756     13.48545    26.108182    5482.5131 
   12500       12.489    323.53942    13.298999   -447.75851   -434.45951    855.95306    -10495.62   -5375.9525    18439.432    15.571759    13.485452    26.108164    5482.5111 
   13000       12.989     324.1507    13.324126   -447.77548   -434.45136    951.74548   -12891.579   -6327.8847      22074.7    15.571761    13.485455    26.108147    5482.5091 
   13500       13.489    316.91324    13.026632   -447.47045   -434.44382      145.296   -10379.758   -7790.8495    18606.496    15.571763    13.485457    26.108129    5482.5072 
   14000       13.989    323.57249    13.300359   -447.73547   -434.43511    30.445949   -12167.493   -4855.8452    17114.676    15.571766    13.485459    26.108112    5482.5052 
   14500       14.489    332.69022     13.67514   -448.10193   -434.42679    1046.1016    -10944.49   -6267.3826    20350.178    15.571768    13.485461    26.108094    5482.5032 
   15000       14.989    338.11344     13.89806   -448.31585   -434.41779    827.18534   -10896.146   -6497.0658    19874.768     15.57177    13.485463    26.108077    5482.5012 
   15500       15.489    291.03945    11.963097   -446.37066   -434.40756    2288.0239   -8834.8418   -7173.8764     22872.79    15.571773    13.485465    26.108059    5482.4992 
   16000       15.989     325.8746    13.394986   -447.79339    -434.3984    707.37702   -10017.869   -7849.3344    19989.334    15.571775    13.485467    26.108042    5482.4972 
   16500       16.489    309.39742    12.717696   -447.10564   -434.38795   -216.53955   -11585.806   -6517.2898    17453.477    15.571777    13.485469    26.108025    5482.4953 
   17000       16.989    324.03024    13.319174   -447.69685   -434.37767    1069.1366   -9623.8575   -7163.9129     19995.18     15.57178    13.485471    26.108007    5482.4933 
   17500       17.489    301.92403    12.410504   -446.77697   -434.36647    1142.7773   -10698.632   -5763.6391    19890.604    15.571782    13.485473     26.10799    5482.4913 
   18000       17.989     306.0776    12.581236   -446.93693   -434.35569     1279.444   -10003.735   -5244.9775    19087.045    15.571785    13.485476    26.107972    5482.4893 
   18500       18.489    334.87432    13.764917   -448.11032    -434.3454   -56.968156   -10454.316   -8324.9529    18608.365    15.571787    13.485478    26.107955    5482.4873 
   19000       18.989    306.39533    12.594296   -446.92745   -434.33315    1255.6611    -10918.83   -7071.3745    21757.188    15.571789     13.48548    26.107937    5482.4853 
   19500       19.489    315.83463    12.982296   -447.30419    -434.3219    193.01126   -9650.1492   -8078.0617    18307.245    15.571792    13.485482     26.10792    5482.4834 
   20000       19.989    312.42393      12.8421   -447.15102   -434.30892    363.92358   -11881.893    -5284.305    18257.969    15.571794    13.485484    26.107902    5482.4814 
   20500       20.489    327.78516    13.473519   -447.77083   -434.29731    275.10554   -11223.737   -4905.2216    16954.276    15.571796    13.485486    26.107885    5482.4794 
   21000       20.989    318.05938    13.073744   -447.35793   -434.28419    779.28935    -10461.52   -8186.1232    20985.511    15.571799    13.485488    26.107867    5482.4774 
   21500       21.489      314.912    12.944372    -447.2157   -434.27132    200.00376   -12406.403   -3687.4939    16693.908    15.571801     13.48549     26.10785    5482.4754 
   22000       21.989     320.8745    13.189459   -447.44762   -434.25816    920.74002   -10046.436   -2755.5317    15564.188    15.571803    13.485492    26.107833    5482.4734 
   22500       22.489    318.92189    13.109197   -447.35414   -434.24495    511.04339   -9803.5579   -6540.4643    17877.152    15.571806    13.485494    26.107815    5482.4715 
   23000       22.989    325.27684    13.370415   -447.60149   -434.23107   -34.982238   -11691.332   -6856.7252    18443.111    15.571808    13.485497    26.107798    5482.4695 
   23500       23.489    330.53019    13.586353   -447.80392   -434.21756    1463.5665   -10009.415   -7214.9971    21615.112     15.57181    13.485499     26.10778    5482.4675 
   24000       23.989    318.55515    13.094122   -447.29632    -434.2022    608.80355    -9974.479   -6892.5912    18693.481    15.571813    13.485501    26.107763    5482.4655 
   24500       24.489    337.13905    13.858008   -448.04624   -434.18823    864.38339   -12149.827   -7136.8839    21879.861    15.571815    13.485503    26.107745    5482.4635 
   25000       24.989    301.23715    12.382271   -446.55466   -434.17239    1290.1359   -10625.771   -4243.3207    18739.499    15.571817    13.485505    26.107728    5482.4615 
   25500       25.489    333.77284    13.719641   -447.87755    -434.1579    1124.3652   -10924.943   -5623.7396    19921.778     15.57182    13.485507     26.10771    5482.4596 
   26000       25.989     317.8541    13.065306   -447.20777   -434.14247    484.95543   -11193.551   -5813.4504    18461.868    15.571822    13.485509    26.107693    5482.4576 
   26500       26.489    341.48496    14.036646   -448.16395   -434.12731    292.76635   -12673.213    -6335.955    19887.467    15.571824    13.485511    26.107676    5482.4556 
   27000       26.989    342.29745    14.070043   -448.18142   -434.11138   -375.32664   -12437.323    -5917.448    17228.792    15.571827    13.485513    26.107658    5482.4536 
   27500       27.489    331.87885    13.641789    -447.7365   -434.09471     1050.295   -11054.765   -8029.1218    22234.772    15.571829    13.485515    26.107641    5482.4516 
   28000       27.989    311.97851    12.823791   -446.90234   -434.07855    223.68128   -9900.9543   -7257.7913    17829.789    15.571832    13.485518    26.107623    5482.4496 
   28500       28.489    314.73774    12.937208   -446.99899   -434.06178    1012.0935   -11116.662   -4037.0723    18190.015    15.571834     13.48552    26.107606    5482.4477 
   29000       28.989    327.90226    13.478333   -447.52371   -434.04537    505.99979   -12176.083   -5089.7692    18783.851    15.571836    13.485522    26.107588    5482.4457 
   29500       29.489    333.26435     13.69874    -447.7272   -434.02846    1500.7357   -10026.137    -5145.937    19674.281    15.571839    13.485524    26.107571    5482.4437 
   30000       29.989    319.96405    13.152035   -447.16303   -434.01099    1876.4035   -11154.961   -5225.9977    22010.169    15.571841    13.485526    26.107553    5482.4417 
   30500       30.489    332.44957    13.665248   -447.65949   -433.99424    992.70968    -11229.15    -4685.517    18892.796    15.571843    13.485528    26.107536    5482.4397 
   31000       30.989    309.33327    12.715059   -446.69129   -433.97623    220.05617   -12940.257   -4964.3464    18564.772    15.571846     13.48553    26.107518    5482.4377 
   31500       31.489    320.53771    13.175615   -447.13383   -433.95822    303.89652   -11031.107   -6017.0631     17959.86    15.571848    13.485532    26.107501    5482.4358 
   32000       31.989     332.0783    13.649988   -447.59048   -433.94049    883.53071   -10295.951   -6943.9693    19890.513     15.57185    13.485534    26.107484    5482.4338 
   32500       32.489     339.7379    13.964833   -447.88815   -433.92332    1505.8284    -11107.49   -4189.1085    19814.084    15.571853    13.485536    26.107466    5482.4318 
   33000       32.989    336.87107    13.846993   -447.75191   -433.90491    362.14667   -11287.665   -5973.0265    18347.132    15.571855    13.485539    26.107449    5482.4298 
   33500       33.489    317.49307    13.050466   -446.93692   -433.88645    804.28134    -11197.06   -5588.3271    19198.231    15.571857    13.485541    26.107431    5482.4278 
   34000       33.989    333.09398    13.691737    -447.5597   -433.86796     -401.046   -13261.257    -9047.178    21105.297     15.57186    13.485543    26.107414    5482.4258 
   34500       34.489    320.39181    13.169618    -447.0188   -433.84919    1692.9744   -11717.957   -4488.6185    21285.499    15.571862    13.485545    26.107396    5482.4239 
   35000       34.989    314.68073    12.934865   -446.76507   -433.83021    1005.7168   -9972.7714    -5185.786    18175.708    15.571864    13.485547    26.107379    5482.4219 
   35500       35.489    332.26176    13.657529   -447.46922   -433.81169   -30.796289   -12556.732   -8465.7304    20930.074    15.571867    13.485549    26.107361    5482.4199 
   36000       35.989    323.62588    13.302553   -447.09548   -433.79293    656.16113   -9336.1115   -7636.8304    18941.425    15.571869    13.485551    26.107344    5482.4179 
   36500       36.489    332.69788    13.675455   -447.44955   -433.77409     879.8245    -11624.13   -3807.7824    18071.386    15.571871    13.485553    26.107327    5482.4159 
   37000       36.989    313.68436     12.89391   -446.64886   -433.75495    280.36487   -9556.3532   -7457.2763    17854.724    15.571874    13.485555    26.107309    5482.4139 
   37500       37.489    318.74488    13.101921   -446.83799   -433.73607    1836.3604   -10099.059   -4880.0081    20488.148    15.571876    13.485557    26.107292     5482.412 
   38000       37.989    304.87831     12.53194   -446.24853   -433.71659    2001.2727   -10895.584   -4950.4764    21849.879    15.571879     13.48556    26.107274      5482.41 
   38500       38.489    328.84913    13.517253   -447.21498   -433.69773    201.56667    -10263.58   -6900.3582    17768.639    15.571881    13.485562    26.107257     5482.408 
   39000       38.989    319.85533    13.147566   -446.82603   -433.67846    884.75604   -12900.707   -7738.0726    23293.047    15.571883    13.485564    26.107239     5482.406 
   39500       39.489    323.56803    13.300175   -446.95977   -433.65959    1798.1477   -9338.7018   -4909.6722    19642.817    15.571886    13.485566    26.107222     5482.404 
   40000       39.989    318.99461    13.112186   -446.75216   -433.63997    1357.5822   -10198.782   -7052.6006    21324.129    15.571888    13.485568    26.107204     5482.402 
   40500       40.489    321.13965    13.200357   -446.82113   -433.62077    1405.6206   -10495.582   -6212.6826    20925.126     15.57189     13.48557    26.107187    5482.4001 
   41000       40.989    319.83797    13.146852   -446.74832   -433.60147    464.11091   -9591.5268   -9066.3854    20050.245    15.571893    13.485572    26.107169    5482.3981 
   41500       41.489    316.27926    13.000573   -446.58243   -433.58186     1592.096   -9326.9741   -5439.5624    19542.824    15.571895    13.485574    26.107152    5482.3961 
   42000       41.989     323.9791    13.317072   -446.88023   -433.56316    1638.8944   -11463.759   -2606.8415    18987.284    15.571897    13.485576    26.107135    5482.3941 
   42500       42.489    338.18759    13.901108   -447.44534   -433.54424    1550.7737   -9420.6702   -6304.1569    20377.148      15.5719    13.485578    26.107117    5482.3921 
   43000       42.989    335.31207    13.782911   -447.30765   -433.52474    1780.6321   -10304.532    -5645.694    21292.123    15.571902    13.485581      26.1071    5482.3901 
   43500       43.489    322.37902    13.251301   -446.75702   -433.50572    2098.4861   -9304.8254   -5529.0976    21129.381    15.571904    13.485583    26.107082    5482.3882 
   44000       43.989    331.40867    13.622463   -447.10947     -433.487    1364.3458   -10022.064   -6702.6566    20817.758    15.571907    13.485585    26.107065    5482.3862 
   44500       44.489    302.50691    12.434464    -445.9017   -433.46724    2651.9799   -8829.7819   -2893.3498    19679.071    15.571909    13.485587    26.107047    5482.3842 
   45000       44.989    322.18001    13.243121   -446.69161   -433.44849    1587.2884   -10820.244   -2563.9958    18146.105    15.571911    13.485589     26.10703    5482.3822 
   45500       45.489    321.96362    13.234226   -446.66343   -433.42921    2191.2778   -8992.7472   -5077.6304    20644.211    15.571914    13.485591    26.107012    5482.3802 
   46000       45.989    348.00676    14.304722   -447.71562   -433.41089    944.79383   -10344.767   -4946.4252    18125.574    15.571916    13.485593    26.106995    5482.3782 
   46500       46.489    317.06731    13.032965   -446.42506   -433.39209    1488.8526   -9190.7648    -9657.125    23314.448    15.571918    13.485595    26.106978    5482.3763 
   47000       46.989    325.94465    13.397865   -446.77131   -433.37344    1339.3647   -11727.365   -3715.0235    19460.482    15.571921    13.485597     26.10696    5482.3743 
   47500       47.489    323.32646    13.290246   -446.64513   -433.35489    994.14654   -12944.769   -2901.0254    18828.234    15.571923    13.485599    26.106943    5482.3723 
   48000       47.989    341.29491    14.028834   -447.36559   -433.33676    580.56634   -11691.999   -4739.5446    18173.243    15.571926    13.485602    26.106925    5482.3703 
   48500       48.489    344.17071    14.147043   -447.46496   -433.31792    1582.7272   -11366.337   -5144.5257    21259.045    15.571928    13.485604    26.106908    5482.3683 
   49000       48.989    304.29766    12.508072   -445.80734   -433.29927    1702.8346    -4964.869   -9000.7633    19074.136     15.57193    13.485606     26.10689    5482.3663 
   49500       49.489    331.98172    13.646018   -446.92715   -433.28114    1249.0081     -9457.32   -4852.9165    18057.261    15.571933    13.485608    26.106873    5482.3644 
   50000       49.989    324.02746     13.31906   -446.58201   -433.26295    1017.3319   -8866.0813   -8316.0689    20234.146    15.571935     13.48561    26.106855    5482.3624 
   50500       50.489    322.41637    13.252836   -446.49772   -433.24489    1539.5994    -9590.265   -6407.0633    20616.126    15.571937    13.485612    26.106838    5482.3604 
   51000       50.989    337.44081    13.870412    -447.0974   -433.22699    241.48221   -10782.594   -3714.2638    15221.305     15.57194    13.485614     26.10682    5482.3584 
   51500       51.489    335.00234    13.770179    -446.9797   -433.20952     219.8053   -9570.9377   -6838.0688    17068.422    15.571942    13.485616    26.106803    5482.3564 
   52000       51.989    340.21056    13.984262   -447.17588   -433.19162    1149.3487   -8869.8623   -5875.5202    18193.429    15.571944    13.485618    26.106786    5482.3544 
   52500       52.489    338.44385    13.911642   -447.08505   -433.17341    1397.8331   -10648.474   -3852.3238    18694.297    15.571947     13.48562    26.106768    5482.3525 
   53000       52.989    346.38943    14.238243   -447.39443   -433.15619    949.37445    -11834.81   -3721.3486    18404.282    15.571949    13.485623    26.106751    5482.3505 
   53500       53.489    325.83538    13.393374   -446.53154   -433.13817    2197.0666   -9505.5102   -4978.3961    21075.106    15.571951    13.485625    26.106733    5482.3485 
   54000       53.989    332.63112    13.672711   -446.79356   -433.12085    1680.1351   -10622.955   -5393.9374    21057.298    15.571954    13.485627    26.106716    5482.3465 
   54500       54.489    342.70109    14.086634   -447.19102   -433.10438    1492.5319   -10301.292    -6087.091    20865.979    15.571956    13.485629    26.106698    5482.3445 
   55000       54.989    340.51151    13.996632   -447.08394   -433.08731    1646.4332   -11350.521   -3450.7412    19740.562    15.571958    13.485631    26.106681    5482.3425 
   55500       55.489    347.81324    14.296768   -447.36685   -433.07008    1997.9988   -9569.4203   -4937.2636     20500.68    15.571961    13.485633    26.106663    5482.3406 
   56000       55.989    328.82955    13.516448   -446.56903   -433.05258    1465.6487   -9028.8688   -6637.1626    20062.978    15.571963    13.485635    26.106646    5482.3386 
   56500       56.489    320.93571    13.191975   -446.22743   -433.03546    1923.8926   -9065.8135   -4965.3119    19802.803    15.571965    13.485637    26.106629    5482.3366 
   57000       56.989    339.26818    13.945526   -446.96452   -433.01899    1390.3606   -8719.4163   -7813.8827    20704.381    15.571968    13.485639    26.106611    5482.3346 
   57500       57.489     331.3391    13.619603   -446.62139   -433.00178    1145.3775   -10037.038    -5317.405    18790.576     15.57197    13.485641    26.106594    5482.3326 
   58000       57.989    351.43577    14.445671   -447.43119   -432.98552    1540.9916   -9848.0946   -4332.3226    18803.392    15.571973    13.485644    26.106576    5482.3306 
   58500       58.489     335.5767    13.793788   -446.76246   -432.96867    2297.8738   -9998.6083   -6100.5646    22992.794    15.571975    13.485646    26.106559    5482.3287 
   59000       58.989      353.346    14.524191   -447.47681   -432.95262    1244.4175   -10662.157   -5444.7004    19840.111    15.571977    13.485648    26.106541    5482.3267 
   59500       59.489    344.64768    14.166649   -447.10277   -432.93613    779.32826   -10867.432    -4207.464    17412.881     15.57198     13.48565    26.106524    5482.3247 
   60000       59.989    353.64324    14.536409   -447.45564   -432.91923    1116.7225   -10630.795   -5532.7925    19513.755    15.571982    13.485652    26.106506    5482.3227 
   60500       60.489    347.91737    14.301048   -447.20392   -432.90287    1474.1864   -8445.7227   -6786.9355    19655.217    15.571984    13.485654    26.106489    5482.3207 
   61000       60.989     350.8285    14.420709   -447.30774   -432.88703    1522.2153   -9834.3377   -7477.8292    21878.813    15.571987    13.485656    26.106471    5482.3187 
   61500       61.489    322.15824    13.242226   -446.11254   -432.87031    2218.5935   -8680.8953   -2768.5287    18105.204    15.571989    13.485658    26.106454    5482.3168 
   62000       61.989    344.94061    14.178689   -447.03325   -432.85456    2631.1201   -9721.0163   -4179.7098    21794.086    15.571991     13.48566    26.106437    5482.3148 
   62500       62.489    329.20075    13.531707   -446.36991    -432.8382    1838.2545   -11541.944   -2962.9456    20019.653    15.571994    13.485662    26.106419    5482.3128 
   63000       62.989      343.268    14.109937   -446.93251   -432.82258    1599.7496    -9738.429   -4957.3484    19495.026    15.571996    13.485665    26.106402    5482.3108 
   63500       63.489    337.02623    13.853371      -446.66   -432.80662     1292.138   -10485.007   -6374.4503    20735.871    15.571998    13.485667    26.106384    5482.3088 
   64000       63.989    338.94396    13.932198   -446.72221   -432.79001    1239.6145   -10751.077   -2502.0046    16971.925    15.572001    13.485669    26.106367    5482.3068 
   64500       64.489    322.23669    13.245451   -446.01977   -432.77432    2488.5048   -8911.6529   -3129.8836    19507.051    15.572003    13.485671    26.106349    5482.3049 
   65000       64.989    336.32272    13.824453   -446.58265    -432.7582    1644.7608   -8895.2943   -4493.7096    18323.286    15.572005    13.485673    26.106332    5482.3029 
   65500       65.489    341.51762    14.037988   -446.78041   -432.74243     1791.276   -11116.139   -2344.7492    18834.716    15.572008    13.485675    26.106314    5482.3009 
   66000       65.989     349.4941    14.365859   -447.09193   -432.72607    1535.5056   -8380.0824   -9709.2515    22695.851     15.57201    13.485677    26.106297    5482.2989 
   66500       66.489    339.14488    13.940457    -446.6508   -432.71034     2196.323   -10906.127   -5801.8391    23296.935    15.572012    13.485679     26.10628    5482.2969 
   67000       66.989    351.51731    14.449023   -447.14406   -432.69503    1053.0864   -9866.4202   -7275.4705     20301.15    15.572015    13.485681    26.106262    5482.2949 
   67500       67.489    333.41055    13.704749   -446.38322   -432.67847    1540.9796   -11328.852   -2738.6697     18690.46    15.572017    13.485683    26.106245     5482.293 
   68000       67.989    345.38985    14.197155   -446.86014   -432.66299   -257.17874   -10902.963   -4209.6467    14341.073     15.57202    13.485686    26.106227     5482.291 
   68500       68.489    335.42487    13.787547   -446.43392   -432.64637    923.51699    -11867.15   -5643.7414    20281.443    15.572022    13.485688     26.10621     5482.289 
   69000       68.989    348.71011    14.333633   -446.96421   -432.63058    700.39293   -11070.398   -3656.6115    16828.188    15.572024     13.48569    26.106192     5482.287 
   69500       69.489    341.05679    14.019046    -446.6342   -432.61515    398.12899   -12274.947   -6418.8633    19888.197    15.572027    13.485692    26.106175     5482.285 
   70000       69.989     346.9568    14.261564   -446.86083   -432.59927    1439.7123   -8848.7167   -3911.8065     17079.66    15.572029    13.485694    26.106157     5482.283 
   70500       70.489    345.13058    14.186498   -446.77043   -432.58393    576.92499   -10630.898   -3239.7717    15601.445    15.572031    13.485696     26.10614    5482.2811 
   71000       70.989    343.63887    14.125181   -446.69196   -432.56678     1840.713   -10486.072   -5229.4929    21237.704    15.572034    13.485698    26.106122    5482.2791 
   71500       71.489    351.53972    14.449944   -447.00169   -432.55175   -240.40876   -12779.353   -2762.6805    14820.808    15.572036      13.4857    26.106105    5482.2771 
   72000       71.989    337.70067    13.881094   -446.41624   -432.53515   -192.68765   -10717.513   -4323.9929    14463.443    15.572038    13.485702    26.106088    5482.2751 
   72500       72.489    326.29992    13.412469   -445.93136   -432.51889    557.10266   -10916.142   -4776.3546    17363.804    15.572041    13.485704     26.10607    5482.2731 
   73000       72.989    356.91442     14.67087   -447.17406   -432.50319    931.18155   -8335.3812   -6673.3633    17802.289    15.572043    13.485707    26.106053    5482.2711 
   73500       73.489    340.21975     13.98464   -446.47098   -432.48634    1864.1375   -9354.8951    -4738.306    19685.613    15.572045    13.485709    26.106035    5482.2692 
   74000       73.989     322.7015    13.264557   -445.73522   -432.47066    1863.7164   -7442.0077    -4848.638    17881.795    15.572048    13.485711    26.106018    5482.2672 
   74500       74.489    358.75877    14.746681    -447.2018   -432.45512    1815.5949   -9300.7278    -4863.657    19611.169     15.57205    13.485713       26.106    5482.2652 
   75000       74.989     332.0597    13.649223   -446.08763   -432.43841    1977.9054   -7641.6376   -4636.8819    18212.235    15.572052    13.485715    26.105983    5482.2632 
   75500       75.489    322.83695    13.270125   -445.69204   -432.42191    1642.9876   -8777.0834   -7714.3151    21420.361    15.572055    13.485717    26.105965    5482.2612 
   76000       75.989    342.11425    14.062513   -446.46914   -432.40663    1532.7056   -11089.268   -6696.3784    22383.763    15.572057    13.485719    26.105948    5482.2592 
   76500       76.489    352.53914    14.491025   -446.88136   -432.39034    1707.3411   -8563.6615   -4326.9009    18012.586    15.572059    13.485721    26.105931    5482.2573 
   77000       76.989    343.27933    14.110403   -446.48392   -432.37351    509.86297   -10644.917    -7665.185    19839.691    15.572062    13.485723    26.105913    5482.2553 
   77500       77.489    335.81762    13.803691   -446.16067   -432.35698    1765.5206   -9509.3629   -7382.8369    22188.761    15.572064    13.485725    26.105896    5482.2533 
   78000       77.989     333.6366    13.714041   -446.05573   -432.34169    1735.8496   -10511.815   -4368.0115    20087.376    15.572067    13.485728    26.105878    5482.2513 
   78500       78.489    366.04529    15.046192   -447.37105   -432.32485    782.07464   -10754.657   -4785.7283     17886.61    15.572069     13.48573    26.105861    5482.2493 
   79000       78.989    339.33785     13.94839   -446.25632   -432.30793    1823.4699   -11692.019   -4628.8176    21791.246    15.572071    13.485732    26.105843    5482.2473 
   79500       79.489     338.7001    13.922175   -446.21326   -432.29109    1203.6612   -8934.6924   -3894.2144     16439.89    15.572074    13.485734    26.105826    5482.2454 
   80000       79.989    341.68747     14.04497   -446.31942   -432.27445    1287.7776   -9575.4533   -6592.1647    20030.951    15.572076    13.485736    26.105808    5482.2434 
   80500       80.489    333.66669    13.715278   -445.97259   -432.25731    939.22377   -13652.981   -5232.3081     21702.96    15.572078    13.485738    26.105791    5482.2414 
   81000       80.989    343.87333    14.134819   -446.37508   -432.24027    1157.4059   -9395.5114   -6225.8848    19093.614    15.572081     13.48574    26.105773    5482.2394 
   81500       81.489     337.6061    13.877206   -446.10106   -432.22385    1437.4058   -9668.5746   -5595.7811    19576.573    15.572083    13.485742    26.105756    5482.2374 
   82000       81.989     349.5892    14.369768   -446.57724   -432.20747    903.80878     -9938.32   -5424.7361    18074.482    15.572085    13.485744    26.105739    5482.2354 
   82500       82.489    337.74699    13.882997   -446.07332   -432.19033    1681.8903   -10574.185   -4780.7139     20400.57    15.572088    13.485746    26.105721    5482.2335 
   83000       82.989     356.0049    14.633484   -446.80694   -432.17346    1239.1539   -10095.851    -3328.772    17142.084     15.57209    13.485749    26.105704    5482.2315 
   83500       83.489    345.78377    14.213347   -446.36894   -432.15559    2718.7118   -8395.3127   -5898.1279    22449.576    15.572092    13.485751    26.105686    5482.2295 
   84000       83.989    341.72578    14.046545   -446.18519   -432.13864    1746.0832   -10214.872   -6086.0312    21539.152    15.572095    13.485753    26.105669    5482.2275 
   84500       84.489    352.68011    14.496819   -446.61751   -432.12069    1257.5529   -11528.449    -2292.761    17593.868    15.572097    13.485755    26.105651    5482.2255 
   85000       84.989    344.64316    14.166463   -446.26989   -432.10342    880.02379   -10796.804   -6607.2301    20044.106    15.572099    13.485757    26.105634    5482.2235 
   85500       85.489    333.21196    13.696586   -445.78239    -432.0858    3377.7738   -8057.9633   -5066.5286    23257.813    15.572102    13.485759    26.105616    5482.2216 
   86000       85.989    344.12882    14.145321   -446.21344   -432.06812    1417.6418   -12542.575    -5273.801    22069.302    15.572104    13.485761    26.105599    5482.2196 
   86500       86.489    344.93794     14.17858   -446.22929   -432.05071    700.18714    -8866.111    -2808.559    13775.231    15.572106    13.485763    26.105582    5482.2176 
   87000       86.989    330.95476    13.603805   -445.63636   -432.03255    1349.0559   -10246.095   -2068.2997    16361.563    15.572109    13.485765    26.105564    5482.2156 
   87500       87.489    362.12582    14.885082   -446.90007   -432.01499    1881.9435    -11429.24   -3723.6564    20798.727    15.572111    13.485767    26.105547    5482.2136 
   88000       87.989    351.29004    14.439681   -446.43699    -431.9973    1442.4647   -9785.3923   -5792.5635     19905.35    15.572114     13.48577    26.105529    5482.2116 
   88500       88.489    362.09564    14.883842   -446.86367   -431.97982    2199.1018   -9613.4799   -5114.1188    21324.904    15.572116    13.485772    26.105512    5482.2097 
   89000       88.989    371.63432    15.275927   -447.23692     -431.961    743.52137   -10955.434   -5014.7985    18200.796    15.572118    13.485774    26.105494    5482.2077 
   89500       89.489    334.50362     13.74968   -445.69222   -431.94254    1821.4575   -10398.418   -8456.3058    24319.096    15.572121    13.485776    26.105477    5482.2057 
   90000       89.989    351.09382    14.431615   -446.35633   -431.92471    1945.3684   -11893.253   -2802.0622    20531.421    15.572123    13.485778    26.105459    5482.2037 
   90500       90.489    349.62236    14.371131   -446.27714   -431.90601    969.05379   -10382.912   -5048.4401    18338.513    15.572125     13.48578    26.105442    5482.2017 
   91000       90.989    355.57576    14.615844   -446.50313   -431.88729    1965.9055   -7413.7448   -6058.2063    19369.667    15.572128    13.485782    26.105424    5482.1997 
   91500       91.489    365.73508     15.03344   -446.90253   -431.86909    1256.9506   -9275.7514    -5809.584    18856.187     15.57213    13.485784    26.105407    5482.1978 
   92000       91.989    344.88455    14.176385   -446.02651   -431.85013    808.27177   -10974.383   -4929.0892    18328.288    15.572132    13.485786     26.10539    5482.1958 
   92500       92.489    359.27703    14.767984   -446.59933   -431.83135     1482.767   -11051.252   -2879.3643    18378.918    15.572135    13.485788    26.105372    5482.1938 
   93000       92.989    359.42861    14.774214   -446.58665   -431.81244    1184.1635   -11818.916   -1932.9154    17304.322    15.572137    13.485791    26.105355    5482.1918 
   93500       93.489     338.0255    13.894445   -445.68759   -431.79314    747.75627    -10431.81   -5567.0893    18242.168    15.572139    13.485793    26.105337    5482.1898 
   94000       93.989    338.90083    13.930426   -445.70436   -431.77394    1626.7291    -10669.84   -2621.9001    18171.927    15.572142    13.485795     26.10532    5482.1878 
   94500       94.489     360.8183    14.831337   -446.58608   -431.75474    1771.5707   -10026.793   -2703.9894    18045.495    15.572144    13.485797    26.105302    5482.1859 
   95000       94.989    342.56053    14.080857   -445.81635   -431.73549     1382.288   -9722.4836   -4995.4847    18864.832    15.572146    13.485799    26.105285    5482.1839 
   95500       95.489    353.76236    14.541305    -446.2576   -431.71629    2488.8066   -9712.2338   -3689.8896    20868.543    15.572149    13.485801    26.105267    5482.1819 
   96000       95.989    370.37528    15.224175   -446.92118     -431.697    1245.9248   -9757.4211   -4918.6052    18413.801    15.572151    13.485803     26.10525    5482.1799 
   96500       96.489    343.46314    14.117958   -445.79487   -431.67691    2142.8456   -9847.5859   -4626.6407    20902.763    15.572153    13.485805    26.105233    5482.1779 
   97000       96.989    351.54834    14.450298   -446.10805   -431.65775    1812.0596   -9765.7068   -3709.0894    18910.975    15.572156    13.485807    26.105215    5482.1759 
   97500       97.489    343.76992    14.130568   -445.76801   -431.63744    1475.0505   -10989.818   -5037.7232    20452.693    15.572158    13.485809    26.105198    5482.1739 
   98000       97.989     347.8553    14.298497   -445.91592   -431.61743    3662.4561   -9779.0107   -3594.9749    24361.354    15.572161    13.485812     26.10518     5482.172 
   98500       98.489    351.35537    14.442366   -446.04047   -431.59811     1012.817    -12195.01   -3838.8206    19072.281    15.572163    13.485814    26.105163      5482.17 
   99000       98.989     333.6367    13.714045   -445.29149   -431.57744    2758.6387     -9175.95   -3478.5045     20930.37    15.572165    13.485816    26.105145     5482.168 
   99500       99.489     375.7832    15.446465    -447.0051   -431.55864     2219.233   -9368.3885    -3865.291    19891.378    15.572168    13.485818    26.105128     5482.166 
  100000       99.989    369.81448    15.201123   -446.73998   -431.53886    2039.1595   -10342.787   -3268.1979    19728.463     15.57217     13.48582     26.10511     5482.164 
  100500      100.489     341.8637    14.052214   -445.57021     -431.518    2437.2488    -8666.715   -2465.3254    18443.787    15.572172    13.485822    26.105093     5482.162 
  101000      100.989    344.91582     14.17767   -445.67528   -431.49761    2308.6454   -8913.8857    -1073.286    16913.108    15.572175    13.485824    26.105075    5482.1601 
  101500      101.489    343.35656    14.113577   -445.59098    -431.4774    2243.1125   -7221.0386   -4537.9667    18488.343    15.572177    13.485826    26.105058    5482.1581 
  102000      101.989    352.97901    14.509105   -445.96667   -431.45756     2441.846   -9057.9301   -4793.9391    21177.407    15.572179    13.485828    26.105041    5482.1561 
  102500      102.489    344.44404    14.158278   -445.59499   -431.43672     1408.514   -9684.0383    -6648.089    20557.669    15.572182     13.48583    26.105023    5482.1541 
  103000      102.989     353.9383    14.548537   -445.96491   -431.41637    1246.0208   -10132.366   -3188.7739    17059.202    15.572184    13.485833    26.105006    5482.1521 
  103500      103.489    365.66166    15.030422   -446.42602    -431.3956    1977.8847   -7891.2667   -3794.7248    17619.645    15.572186    13.485835    26.104988    5482.1501 
  104000      103.989     353.6676     14.53741   -445.91139   -431.37398    1563.7871   -8959.1521   -4777.5256    18428.039    15.572189    13.485837    26.104971    5482.1482 
  104500      104.489    362.23935    14.889749   -446.24324   -431.35349    2155.6096   -8349.6004   -6139.1838    20955.613    15.572191    13.485839    26.104953    5482.1462 
  105000      104.989    345.65645    14.208114    -445.5405   -431.33239    733.83571   -7955.8447   -7096.7262    17254.078    15.572193    13.485841    26.104936    5482.1442 
  105500      105.489    370.65563    15.235698    -446.5481    -431.3124    1666.1399   -10136.829   -1648.2634    16783.512    15.572196    13.485843    26.104918    5482.1422 
  106000      105.989    345.94574    14.220005   -445.51072   -431.29071    1638.2367   -11014.358   -4846.0277    20775.096    15.572198    13.485845    26.104901    5482.1402 
  106500      106.489    360.45383    14.816356   -446.08592   -431.26957    2634.7295   -9098.5487   -2047.0163    19049.754      15.5722    13.485847    26.104884    5482.1382 
  107000      106.989    349.57097    14.369019   -445.61718   -431.24816    2352.9993   -10100.481   -3028.1279    20187.607    15.572203    13.485849    26.104866    5482.1363 
  107500      107.489    362.63565    14.906039   -446.13236   -431.22632    1905.2669   -9643.5106   -4108.3134    19467.625    15.572205    13.485851    26.104849    5482.1343 
  108000      107.989    368.69396    15.155064   -446.36031   -431.20525    1457.7953    -11204.51   -3328.2222    18906.118    15.572208    13.485854    26.104831    5482.1323 
  108500      108.489     366.9433    15.083104   -446.26725   -431.18415     1357.898   -10340.102   -3933.8224    18347.619     15.57221    13.485856    26.104814    5482.1303 
  109000      108.989    375.60863     15.43929    -446.6019   -431.16262    1606.8514   -11139.251   -3187.2033    19147.009    15.572212    13.485858    26.104796    5482.1283 
  109500      109.489    351.26452    14.438632   -445.57959   -431.14096    2098.3795   -10613.936   -4239.0371    21148.111    15.572215     13.48586    26.104779    5482.1263 
  110000      109.989    381.91541    15.698528   -446.81772   -431.11919    404.99911   -10323.468   -5913.1381    17451.604    15.572217    13.485862    26.104761    5482.1244 
  110500      110.489    374.27388    15.384425   -446.48164   -431.09721    1048.2908   -12804.191   -3024.6854    18973.749    15.572219    13.485864    26.104744    5482.1224 
  111000      110.989    349.70019     14.37433   -445.44944   -431.07511    2300.5875   -7245.3432   -6183.8375    20330.943    15.572222    13.485866    26.104726    5482.1204 
  111500      111.489    362.75135    14.910795   -445.96408   -431.05329    1403.7888   -8754.5677   -4639.7357     17605.67    15.572224    13.485868    26.104709    5482.1184 
  112000      111.989    370.22797     15.21812   -446.24952    -431.0314    2241.0956   -11011.013   -2465.9718    20200.272    15.572226     13.48587    26.104692    5482.1164 
  112500      112.489    350.36742    14.401757   -445.41073   -431.00898    2435.4881   -9484.7064   -4857.9773    21649.148    15.572229    13.485872    26.104674    5482.1144 
  113000      112.989    359.73041     14.78662   -445.77367   -430.98705    1094.0803   -12586.752   -754.87917    16623.872    15.572231    13.485875    26.104657    5482.1125 
  113500      113.489    370.29807    15.221001   -446.18619   -430.96519    2409.2531   -11306.989   -395.91812    18930.667    15.572233    13.485877    26.104639    5482.1105 
  114000      113.989    361.27029    14.849916   -445.79317   -430.94325    1123.8742   -9177.2728   -6907.5579    19456.453    15.572236    13.485879    26.104622    5482.1085 
  114500      114.489    382.60595    15.726913   -446.64836   -430.92144     1280.288   -8238.3752   -8645.4262    20724.665    15.572238    13.485881    26.104604    5482.1065 
  115000      114.989    348.95073    14.343524   -445.24224   -430.89871    2195.8075   -8133.4745   -4031.9983    18752.895     15.57224    13.485883    26.104587    5482.1045 
  115500      115.489    339.45891    13.953366   -444.82958   -430.87621    2552.5381   -9572.3524   -4169.2338    21399.201    15.572243    13.485885    26.104569    5482.1025 
  116000      115.989    374.50321    15.393852   -446.24834   -430.85448    1873.0689   -9624.6539   -6442.2237    21686.084    15.572245    13.485887    26.104552    5482.1006 
  116500      116.489    347.71697    14.292811   -445.12487   -430.83206     2003.704   -10369.229   -2635.2071    19015.548    15.572247    13.485889    26.104535    5482.0986 
  117000      116.989    373.65751     15.35909   -446.16915   -430.81006    1489.5113   -10668.167   -6178.4777    21315.179     15.57225    13.485891    26.104517    5482.0966 
  117500      117.489    379.04238    15.580433    -446.3679   -430.78746     1905.169   -8289.3619   -4746.9682    18751.837    15.572252    13.485893      26.1045    5482.0946 
  118000      117.989    362.81475    14.913401   -445.67828   -430.76488    3506.8426   -9026.3321    510.39671    19036.463    15.572255    13.485896    26.104482    5482.0926 
  118500      118.489    358.30125    14.727875   -445.47008   -430.74221     2507.615    -8053.697   -3923.5434    19500.085    15.572257    13.485898    26.104465    5482.0906 
  119000      118.989    388.17971    15.956021   -446.67629   -430.72027    1168.5637     -10390.5   -4663.6876    18559.879    15.572259      13.4859    26.104447    5482.0887 
  119500      119.489    360.65879    14.824781   -445.52181   -430.69703    2103.7315   -8424.1441   -4094.3236    18829.662    15.572262    13.485902     26.10443    5482.0867 
  120000      119.989    368.43735    15.144516   -445.81882    -430.6743    1698.0801   -11288.912   -4041.3136    20424.466    15.572264    13.485904    26.104412    5482.0847 
  120500      120.489    378.71338     15.56691   -446.21903   -430.65212    1939.4011   -10168.376   -3868.6275    19855.207    15.572266    13.485906    26.104395    5482.0827 
  121000      120.989    368.97805    15.166742   -445.79499   -430.62825     2323.978    -11432.59   -3910.5252    22315.049    15.572269    13.485908    26.104377    5482.0807 
  121500      121.489    386.09957    15.870517    -446.4769   -430.60638    774.27136   -10900.752   -5628.4127    18851.979    15.572271     13.48591     26.10436    5482.0787 
  122000      121.989    360.18371    14.805253   -445.38808   -430.58282    1959.8084   -8780.2733   -3866.5861    18526.285    15.572273    13.485912    26.104343    5482.0768 
  122500      122.489    362.46183    14.898894   -445.45955   -430.56066    2329.6155   -11755.574   -5002.9177    23747.339    15.572276    13.485914    26.104325    5482.0748 
  123000      122.989    362.41259     14.89687   -445.43482   -430.53795     1152.372   -9841.6515   -6438.9977    19737.765    15.572278    13.485917    26.104308    5482.0728 
  123500      123.489    354.85357    14.586159   -445.10047   -430.51431    1521.0432   -11666.232     -4100.61    20329.971     15.57228    13.485919     26.10429    5482.0708 
  124000      123.989    358.66176    14.742693   -445.23442   -430.49173    2354.6067   -6879.7169   -4959.0134    18902.551    15.572283    13.485921    26.104273    5482.0688 
  124500      124.489    358.16257    14.722174   -445.19058    -430.4684    3270.6236   -6315.7578   -5947.9517     22075.58    15.572285    13.485923    26.104255    5482.0668 
  125000      124.989    363.06977    14.923883   -445.36948    -430.4456     3027.607   -10469.005   -2589.5999    22141.426    15.572287    13.485925    26.104238    5482.0649 
  125500      125.489    376.13876    15.461081   -445.88337   -430.42229    2253.5216   -7978.9033   -5772.0957    20511.564     15.57229    13.485927     26.10422    5482.0629 
  126000      125.989    376.00269    15.455488   -445.85491   -430.39942    1579.4697   -9312.7002   -6187.1097    20238.219    15.572292    13.485929    26.104203    5482.0609 
  126500      126.489    356.56381    14.656458   -445.03223   -430.37577    2672.8921    -10607.97   -5727.3691    24354.015    15.572294    13.485931    26.104186    5482.0589 
  127000      126.989    371.97512    15.289935   -445.64269   -430.35276    651.35792   -12208.656   -4442.1488    18604.878    15.572297    13.485933    26.104168    5482.0569 
  127500      127.489    385.47611     15.84489   -446.17478   -430.32989    2723.7138   -9189.0419   -1560.3098    18920.493    15.572299    13.485935    26.104151    5482.0549 
  128000      127.989    362.19785    14.888044   -445.19387   -430.30583    2169.1379   -11737.867   -3983.4879    22228.769    15.572302    13.485938    26.104133    5482.0529 
  128500      128.489    360.14743    14.803762   -445.08603   -430.28227    946.39811   -11670.639   -5112.6863     19622.52    15.572304     13.48594    26.104116     5482.051 
  129000      128.989    373.71858      15.3616   -445.62127   -430.25967    2999.7355   -10466.733   -5369.1377    24835.077    15.572306    13.485942    26.104098     5482.049 
  129500      129.489    371.75745    15.280988   -445.51757   -430.23658    2895.3116     -7777.26   -3751.3935    20214.588    15.572309    13.485944    26.104081     5482.047 
  130000      129.989    383.81775    15.776723    -445.9896   -430.21287    1440.7238   -10848.602   -3531.8133    18702.587    15.572311    13.485946    26.104063     5482.045 
  130500      130.489    373.52689     15.35372   -445.54299   -430.18927    2167.1444    -10318.84    -4468.598    21288.871    15.572313    13.485948    26.104046     5482.043 
  131000      130.989    355.04781    14.594143   -444.76015     -430.166    2502.5538   -9182.7842   -1084.2023    17774.648    15.572316     13.48595    26.104028     5482.041 
  131500      131.489    366.31942    15.057459   -445.19997   -430.14251     2775.342   -7026.8511   -6229.6292    21582.506    15.572318    13.485952    26.104011    5482.0391 
  132000      131.989     377.2026     15.50481   -445.62383   -430.11902    2124.6613   -8769.5456    -2073.118    17216.648     15.57232    13.485954    26.103994    5482.0371 
  132500      132.489    361.72655    14.868671   -444.96385   -430.09518    3197.7201   -8460.4757   -289.28798    18342.924    15.572323    13.485956    26.103976    5482.0351 
  133000      132.989    374.60904    15.398202   -445.47054   -430.07234    1550.9666   -10872.006   -4448.7601    19973.666    15.572325    13.485959    26.103959    5482.0331 
  133500      133.489    379.29815    15.590947   -445.63919   -430.04824    1415.7882   -9241.5214    -3711.059    17199.945    15.572327    13.485961    26.103941    5482.0311 
  134000      133.989    345.43381    14.198962   -444.22262   -430.02365    3553.6949   -6101.9684   -3329.6034    20092.657     15.57233    13.485963    26.103924    5482.0291 
  134500      134.489    387.77918    15.939557   -445.93977   -430.00022    3316.2753   -9061.8611   -3921.7336    22932.421    15.572332    13.485965    26.103906    5482.0272 
  135000      134.989    392.83359    16.147317   -446.12484   -429.97753    2060.1643   -11063.059   -2358.7199    19602.272    15.572334    13.485967    26.103889    5482.0252 
  135500      135.489    379.73509    15.608907   -445.56294   -429.95403     1907.142   -9525.3637   -3427.2643    18674.054    15.572337    13.485969    26.103871    5482.0232 
  136000      135.989    371.72603    15.279697    -445.2097      -429.93    2198.5872   -8968.9283    -3283.973    18848.663    15.572339    13.485971    26.103854    5482.0212 
  136500      136.489    353.21276    14.518714   -444.42414   -429.90543    3158.3919    -5539.445   -4277.9932    19292.614    15.572341    13.485973    26.103837    5482.0192 
  137000      136.989    348.21377    14.313232    -444.1954   -429.88216    3625.6904   -9488.1526   -2637.3615    23002.585    15.572344    13.485975    26.103819    5482.0172 
  137500      137.489    374.70119     15.40199   -445.26019    -429.8582    2434.4442   -8984.2564   -3667.9212     19955.51    15.572346    13.485977    26.103802    5482.0153 
  138000      137.989    376.31907    15.468492   -445.30283   -429.83434    1973.0586    -11514.48   -4295.9563    21729.612    15.572349     13.48598    26.103784    5482.0133 
  138500      138.489    390.87239    16.066703   -445.87793   -429.81123    2902.0975   -9574.6102   -5665.9689    23946.872    15.572351    13.485982    26.103767    5482.0113 
  139000      138.989    375.43741    15.432252   -445.21907   -429.78681    1668.1351   -13183.499   -2937.5934    21125.498    15.572353    13.485984    26.103749    5482.0093 
  139500      139.489    392.11823    16.117912   -445.88084   -429.76292    2550.4061   -10033.739   -3569.5592    21254.516    15.572356    13.485986    26.103732    5482.0073 
  140000      139.989    393.01824    16.154907   -445.89372   -429.73881    2904.3135   -10534.211   -2159.7075    21406.859    15.572358    13.485988    26.103714    5482.0053 
  140500      140.489     363.8098    14.954302   -444.66889   -429.71458    2866.2871   -9026.7517   -4198.9037    21824.517     15.57236     13.48599    26.103697    5482.0034 
  141000      140.989    381.16881     15.66784   -445.35902   -429.69118    1374.5921   -8141.6056   -7346.8344    19612.216    15.572363    13.485992    26.103679    5482.0014 
  141500      141.489    386.56841    15.889788    -445.5571   -429.66731    2605.9114   -7902.5869   -6211.2745    21931.595    15.572365    13.485994    26.103662    5481.9994 
  142000      141.989    391.04454    16.073779   -445.71686   -429.64309    3615.8132   -7725.0183   -2576.1124     21148.57    15.572367    13.485996    26.103645    5481.9974 
  142500      142.489    391.46445    16.091039   -445.71035   -429.61931    2082.7595   -10303.035   -4997.2113    21548.525     15.57237    13.485998    26.103627    5481.9954 
  143000      142.989    380.43256    15.637576   -445.23244   -429.59486    2811.2353   -9759.4414   -1805.3349    19998.482    15.572372    13.486001     26.10361    5481.9934 
  143500      143.489     376.2866    15.467158   -445.03793   -429.57078    4407.7783   -7612.7826   -2015.8991    22852.016    15.572374    13.486003    26.103592    5481.9915 
  144000      143.989    392.92259    16.150976   -445.69848    -429.5475    2309.7435   -11101.035   -3271.7445     21302.01    15.572377    13.486005    26.103575    5481.9895 
  144500      144.489     383.7753    15.774978   -445.29788    -429.5229    2324.4765   -11840.583   -2902.4519    21716.464    15.572379    13.486007    26.103557    5481.9875 
  145000      144.989    384.89459    15.820987   -445.31937   -429.49838     1711.854    -12181.63   -1735.9602    19053.153    15.572381    13.486009     26.10354    5481.9855 
  145500      145.489    379.15909     15.58523   -445.05965   -429.47441    3031.5381   -9424.6515   -2369.8988    20889.164    15.572384    13.486011    26.103522    5481.9835 
  146000      145.989    381.27388    15.672158   -445.12264   -429.45048    2533.4277   -8413.1503   -659.59953    16673.033    15.572386    13.486013    26.103505    5481.9815 
  146500      146.489    362.94157    14.918614   -444.34437   -429.42576    3027.6981   -9791.8078   -541.89804      19416.8    15.572388    13.486015    26.103488    5481.9796 
  147000      146.989    395.26949    16.247444    -445.6491   -429.40165    3778.8478   -9529.1868   -4047.4995     24913.23    15.572391    13.486017     26.10347    5481.9776 
  147500      147.489    390.33727    16.044707   -445.42181    -429.3771     2889.873   -8762.8692   -2392.4269    19824.915    15.572393    13.486019    26.103453    5481.9756 
  148000      147.989    389.72174    16.019406   -445.37131   -429.35191    3032.7119   -9837.3283   -2914.1978    21849.662    15.572396    13.486022    26.103435    5481.9736 
  148500      148.489    395.91619    16.274027   -445.60297   -429.32895    3312.7237   -8018.2371   -5204.7818     23161.19    15.572398    13.486024    26.103418    5481.9716 
  149000      148.989    386.22722    15.875764   -445.17988   -429.30412    2923.8426   -9303.9973   -3563.4952     21639.02      15.5724    13.486026      26.1034    5481.9696 
  149500      149.489    376.18098    15.462816   -444.74226   -429.27944    1604.4398    -9427.505   -3454.6666    17695.491    15.572403    13.486028    26.103383    5481.9676 
  150000      149.989     399.0138    16.401353   -445.65672   -429.25537    2820.7529   -6548.3665   -5313.5605    20324.186    15.572405     13.48603    26.103365    5481.9657 
  150500      150.489     378.4605    15.556515   -444.78663   -429.23012    1612.8041   -9316.7601   -3985.3007    18140.473    15.572407    13.486032    26.103348    5481.9637 
  151000      150.989    381.89003    15.697485   -444.90392   -429.20643    3308.7782   -9536.4203   -3877.8285    23340.583     15.57241    13.486034     26.10333    5481.9617 
  151500      151.489    358.78427    14.747729   -443.92917   -429.18144    4075.6712   -8230.3242   -1126.3074    21583.645    15.572412    13.486036    26.103313    5481.9597 
  152000      151.989    360.79488    14.830375   -443.98825   -429.15788    3047.2038   -11973.419   -361.20702    21476.237    15.572414    13.486038    26.103296    5481.9577 
  152500      152.489    407.70084    16.758432   -445.89221   -429.13378    2031.5396   -8042.8794   -5739.6537    19877.152    15.572417     13.48604    26.103278    5481.9557 
  153000      152.989     368.5129    15.147622   -444.25569   -429.10807    3907.8428   -9867.7936   -5876.1419    27467.464    15.572419    13.486043    26.103261    5481.9538 
  153500      153.489    398.72415    16.389447   -445.47369   -429.08425      3054.27   -9141.9077    -3419.433    21724.151    15.572421    13.486045    26.103243    5481.9518 
  154000      153.989    381.20987    15.669527   -444.72897   -429.05944    3613.0678   -10635.699   -4634.3497    26109.252    15.572424    13.486047    26.103226    5481.9498 
  154500      154.489    397.90092    16.355608   -445.39084   -429.03523    3948.2744   -9447.8675   -4566.5162    25859.207    15.572426    13.486049    26.103208    5481.9478 
  155000      154.989    365.95389    15.042434   -444.05229   -429.00985    2711.1205   -9614.1534   -5876.3289    23623.844    15.572428    13.486051    26.103191    5481.9458 
  155500      155.489    380.32229    15.633043   -444.61821   -428.98516     3006.537   -10735.377    -6779.086    26534.074    15.572431    13.486053    26.103173    5481.9438 
  156000      155.989    360.39879    14.814093    -443.7743    -428.9602    3919.1802   -9760.5181   -350.30962    21868.368    15.572433    13.486055    26.103156    5481.9419 
  156500      156.489    373.25774    15.342657   -444.27808   -428.93543     2926.094    -6595.929   -7803.3385     23177.55    15.572435    13.486057    26.103139    5481.9399 
  157000      156.989    401.82554    16.516929    -445.4283   -428.91137    2783.9251   -9987.0676   -1396.9412    19735.784    15.572438    13.486059    26.103121    5481.9379 
  157500      157.489    377.98791    15.537089   -444.42358   -428.88649     3266.026   -9530.3872   -6426.1061    25754.571     15.57244    13.486061    26.103104    5481.9359 
  158000      157.989     374.7879    15.405554   -444.26743   -428.86187    3355.9994   -7896.0768   -1947.6684    19911.743    15.572443    13.486064    26.103086    5481.9339 
  158500      158.489    385.40186    15.841838   -444.67874    -428.8369    3657.9612   -6850.4442   -3373.0469    21197.375    15.572445    13.486066    26.103069    5481.9319 
  159000      158.989     392.6152     16.13834   -444.95142   -428.81308    2394.7869   -8060.8984   -5323.6287    20568.888    15.572447    13.486068    26.103051      5481.93 
  159500      159.489    381.78506     15.69317   -444.48088   -428.78771    3425.9887    -9517.744    296.90064    19498.809     15.57245     13.48607    26.103034     5481.928 
  160000      159.989    395.94855    16.275357   -445.03868   -428.76333    3794.5501   -8096.4314   -2491.7983     21971.88    15.572452    13.486072    26.103016     5481.926 
  160500      160.489    370.66358    15.236025   -443.97367   -428.73765    2277.7583   -8549.1293   -3510.9734    18893.378    15.572454    13.486074    26.102999     5481.924 
  161000      160.989    371.17801    15.257171    -443.9696   -428.71243    4086.1918   -8102.3974   -3613.3261    23974.299    15.572457    13.486076    26.102981     5481.922 
  161500      161.489    379.61444    15.603947   -444.29148   -428.68753     2526.508   -10510.997    -4556.475    22646.996    15.572459    13.486078    26.102964      5481.92 
  162000      161.989    401.84697     16.51781   -445.18076   -428.66295    3019.9249   -9415.7994   -4963.4107    23438.985    15.572461     13.48608    26.102947    5481.9181 
  162500      162.489    392.66156    16.140246   -444.77807   -428.63783    3252.3834   -8662.4571   -2589.5037    21009.111    15.572464    13.486082    26.102929    5481.9161 
  163000      162.989    386.45524    15.885137   -444.49799   -428.61285    3799.8659   -8176.1526   -3117.3453    22693.096    15.572466    13.486085    26.102912    5481.9141 
  163500      163.489    393.18227    16.161649   -444.74966   -428.58801    3638.6345   -7958.6179    -2970.114    21844.635    15.572468    13.486087    26.102894    5481.9121 
  164000      163.989    380.93616    15.658276   -444.22135   -428.56307    3302.2006   -7189.0678   -4750.5747    21846.244    15.572471    13.486089    26.102877    5481.9101 
  164500      164.489    402.37991    16.539716   -445.07784   -428.53812    3716.6523   -9093.3636   -4311.2682    24554.589    15.572473    13.486091    26.102859    5481.9081 
  165000      164.989    367.94943     15.12446   -443.63675   -428.51229    3302.1794   -6511.8364   -3046.1652     19464.54    15.572475    13.486093    26.102842    5481.9062 
  165500      165.489    427.39875    17.568109   -446.05647   -428.48836    2516.8613   -9625.8944   -4233.3631    21409.841    15.572478    13.486095    26.102824    5481.9042 
  166000      165.989    382.37038     15.71723   -444.17889   -428.46166    3800.6932   -9984.8756   -2613.7884    24000.744     15.57248    13.486097    26.102807    5481.9022 
  166500      166.489    378.64658    15.564164   -444.00096   -428.43679    2526.2084   -10619.293   -971.59899    19169.517    15.572482    13.486099     26.10279    5481.9002 
  167000      166.989    390.21189    16.039553   -444.45151   -428.41195     3394.462   -8200.2632   -4590.8252    22974.475    15.572485    13.486101    26.102772    5481.8982 
  167500      167.489    413.13136    16.981651    -445.3689   -428.38724    3590.4627   -8866.2918   -5265.7292    24903.409    15.572487    13.486103    26.102755    5481.8962 
  168000      167.989    403.52521    16.586793   -444.94923   -428.36243    2635.0425   -10074.017   -3548.9901    21528.135     15.57249    13.486106    26.102737    5481.8942 
  168500      168.489    399.84029    16.435326   -444.77239   -428.33706    3117.2647   -11533.571   -2899.0777    23784.443    15.572492    13.486108     26.10272    5481.8923 
  169000      168.989    382.58251    15.725949    -444.0364   -428.31045    3189.6425   -9282.5644   -3256.9661    22108.458    15.572494     13.48611    26.102702    5481.8903 
  169500      169.489    407.31276     16.74248   -445.02796   -428.28548    4202.0627   -6284.4041    -2868.131    21758.723    15.572497    13.486112    26.102685    5481.8883 
  170000      169.989    381.79927    15.693754   -443.95359   -428.25983    3151.3009   -11661.719    242.32057    20873.301    15.572499    13.486114    26.102667    5481.8863 
  170500      170.489    388.27195    15.959812   -444.19456   -428.23475    3632.4933   -8036.3853   -2088.6099    21022.475    15.572501    13.486116     26.10265    5481.8843 
  171000      170.989    392.00751    16.113361    -444.3231   -428.20973    3973.8929   -7681.4734   -898.69805     20501.85    15.572504    13.486118    26.102632    5481.8823 
  171500      171.489    396.95781    16.316842   -444.50116   -428.18431    3793.0121   -10954.614   -893.86936     23227.52    15.572506     13.48612    26.102615    5481.8804 
  172000      171.989    390.58872    16.055042   -444.21394    -428.1589    2590.8272   -9113.2389   -3857.4506    20743.171    15.572508    13.486122    26.102598    5481.8784 
  172500      172.489    387.40579    15.924209   -444.05759   -428.13338    4210.3753   -8971.4402   -4854.0415    26456.608    15.572511    13.486124     26.10258    5481.8764 
  173000      172.989    399.77159    16.432502   -444.54095   -428.10845     2979.888    -10520.91   -2462.4193    21922.993    15.572513    13.486127    26.102563    5481.8744 
  173500      173.489    408.73403      16.8009   -444.88425   -428.08335    2800.1402   -10039.882   -3017.4164    21457.719    15.572515    13.486129    26.102545    5481.8724 
  174000      173.989    401.56405     16.50618   -444.56293   -428.05675    4142.6904   -7878.8461   -2140.9512    22447.868    15.572518    13.486131    26.102528    5481.8704 
  174500      174.489    427.53599     17.57375   -445.60513   -428.03138    2379.3432   -8822.7132   -4439.4936    20400.236     15.57252    13.486133     26.10251    5481.8685 
  175000      174.989    426.58403     17.53462   -445.54026   -428.00564    2561.1045   -10759.431   -4097.1638    22539.908    15.572522    13.486135    26.102493    5481.8665 
  175500      175.489    393.08845    16.157793   -444.13835   -427.98055    3513.6935   -8021.7463   -4295.1577    22857.984    15.572525    13.486137    26.102475    5481.8645 
  176000      175.989    406.92751    16.726644   -444.67998   -427.95334    2194.9958   -12420.727   -5465.5839    24471.298    15.572527    13.486139    26.102458    5481.8625 
  176500      176.489    411.26058    16.904754   -444.83372   -427.92897     4188.063   -8433.6079   -1283.9157    22281.713    15.572529    13.486141    26.102441    5481.8605 
  177000      176.989    397.68816    16.346863   -444.24912   -427.90225    3978.0352   -6413.1312   -5122.3603    23469.597    15.572532    13.486143    26.102423    5481.8585 
  177500      177.489    402.83489    16.558418    -444.4346   -427.87619    2636.6609   -8047.1257   -2928.0162    18885.125    15.572534    13.486145    26.102406    5481.8566 
  178000      177.989      411.621    16.919569   -444.77014   -427.85057    3211.7448   -5612.5584   -4472.3162    19720.109    15.572537    13.486148    26.102388    5481.8546 
  178500      178.489    414.90564    17.054583   -444.88001   -427.82543    3960.2777   -6593.7176   -2014.3934    20488.944    15.572539     13.48615    26.102371    5481.8526 
  179000      178.989    435.60771    17.905536   -445.70542   -427.79988    3006.4659   -8682.2295    -1962.032    19663.659    15.572541    13.486152    26.102353    5481.8506 
  179500      179.489    422.53329    17.368115   -445.14098   -427.77287    2883.2808   -8462.6953   -4046.2848    21158.823    15.572544    13.486154    26.102336    5481.8486 
  180000      179.989    409.78967    16.844292   -444.59071   -427.74641    3771.0082   -11091.649   -773.64369    23178.317    15.572546    13.486156    26.102318    5481.8466 
  180500      180.489     388.6412     15.97499   -443.69468   -427.71969    4497.6108   -7349.2209   -1373.9742    22216.027    15.572548    13.486158    26.102301    5481.8447 
  181000      180.989    395.06867    16.239189   -443.93324   -427.69405    4543.0473    -9535.734    -2123.447    25288.323    15.572551     13.48616    26.102283    5481.8427 
  181500      181.489    385.06029    15.827798    -443.4955    -427.6677    3981.2957   -7623.9814   -4418.8839    23986.752    15.572553    13.486162    26.102266    5481.8407 
  182000      181.989    394.91256    16.232773   -443.87395   -427.64118    5253.1561   -7672.5221   -1812.7455    25244.736    15.572555    13.486164    26.102249    5481.8387 
  182500      182.489    399.05418    16.403013   -444.01834   -427.61533    3684.2716   -9521.9828   -3339.9813    23914.779    15.572558    13.486166    26.102231    5481.8367 
  183000      182.989     389.0769    15.992899   -443.58242   -427.58952    4312.9178   -8314.8162   -4734.6597    25988.229     15.57256    13.486169    26.102214    5481.8347 
  183500      183.489    404.64747    16.632923   -444.19705   -427.56412    4477.6883   -8528.9444   -5011.4521    26973.461    15.572562    13.486171    26.102196    5481.8327 
  184000      183.989    389.33587    16.003544   -443.54177   -427.53823     3944.483   -7877.0349   -2775.5247    22486.009    15.572565    13.486173    26.102179    5481.8308 
  184500      184.489    414.37333    17.032702   -444.54428   -427.51158    3368.4361   -7471.1963   -7507.6434    25084.148    15.572567    13.486175    26.102161    5481.8288 
  185000      184.989    396.48698    16.297489   -443.78293   -427.48544    5261.2804   -7590.0467   -4054.3272    27428.215    15.572569    13.486177    26.102144    5481.8268 
  185500      185.489    419.13676    17.228502    -444.6879    -427.4594    4115.3746   -7250.7838   -4212.1294    23809.037    15.572572    13.486179    26.102126    5481.8248 
  186000      185.989    392.29468    16.125165   -443.55713   -427.43197    4060.4262    -8969.906   -1739.5252     22890.71    15.572574    13.486181    26.102109    5481.8228 
  186500      186.489    412.71724    16.964629   -444.37065   -427.40603    3223.0107    -9645.694   -1196.9163    20511.642    15.572576    13.486183    26.102092    5481.8208 
  187000      186.989    408.55596    16.793581   -444.17253   -427.37895    3503.0509   -7117.5996   -5242.5383    22869.291    15.572579    13.486185    26.102074    5481.8189 
  187500      187.489    413.85889    17.011556   -444.36402   -427.35247    4879.9709   -7762.1164    -4705.636    27107.665    15.572581    13.486187    26.102057    5481.8169 
  188000      187.989    409.89899    16.848786   -444.17576   -427.32698    3083.1549    -9147.248   -4915.2051    23311.918    15.572584     13.48619    26.102039    5481.8149 
  188500      188.489    420.18899    17.271753   -444.57181   -427.30006     4020.641   -7476.2636   -4399.9121    23938.099    15.572586    13.486192    26.102022    5481.8129 
  189000      188.989    413.14571    16.982241   -444.25594    -427.2737    3527.6853    -9965.514   -596.66445    21145.234    15.572588    13.486194    26.102004    5481.8109 
  189500      189.489    432.68777    17.785512   -445.03357   -427.24806    4003.3984   -7636.2036   -6734.6385    26381.037    15.572591    13.486196    26.101987    5481.8089 
  190000      189.989    393.90796    16.191479   -443.41319   -427.22171    4985.0513   -6561.0029   -5093.0037    26609.161    15.572593    13.486198    26.101969     5481.807 
  190500      190.489    412.12364    16.940229   -444.13507   -427.19484    5227.3301   -7157.3325    -3450.931    26290.254    15.572595      13.4862    26.101952     5481.805 
  191000      190.989    414.46022    17.036274   -444.20396   -427.16769    4340.3044   -6721.9339   -5469.5049    25212.352    15.572598    13.486202    26.101934     5481.803 
  191500      191.489    413.15926    16.982798   -444.12421   -427.14141    4095.6976   -7519.0152   -4852.9363    24659.044      15.5726    13.486204    26.101917     5481.801 
  192000      191.989    403.87215    16.601054   -443.71567   -427.11462    4480.2807   -5932.6346    309.28113    19064.196    15.572602    13.486206      26.1019     5481.799 
  192500      192.489    394.29451    16.207368   -443.29631   -427.08895    5954.2809   -5296.3274   -305.14444    23464.315    15.572605    13.486208    26.101882     5481.797 
  193000      192.989    420.13199     17.26941   -444.33142   -427.06201    4941.8823   -6891.6868   -4629.8649    26347.199    15.572607    13.486211    26.101865    5481.7951 
  193500      193.489     417.9959    17.181607   -444.21763   -427.03602    4443.2456   -8530.3865    -1851.102    23711.225    15.572609    13.486213    26.101847    5481.7931 
  194000      193.989    423.56574    17.410554   -444.41974   -427.00919    3634.9458   -8948.4432   -1831.0923    21684.373    15.572612    13.486215     26.10183    5481.7911 
  194500      194.489    434.86978    17.875203   -444.85869   -426.98348    3134.5453   -10387.359   -3855.2636    23646.259    15.572614    13.486217    26.101812    5481.7891 
  195000      194.989    427.40011    17.568164   -444.52487   -426.95671    4680.1706   -7868.4649    624.13605    21284.841    15.572616    13.486219    26.101795    5481.7871 
  195500      195.489     428.2489    17.603054   -444.53201   -426.92895    3831.4652   -7769.0693   -3095.4108    22358.876    15.572619    13.486221    26.101777    5481.7851 
  196000      195.989    387.15848    15.914043   -442.81574    -426.9017    3573.2697   -10621.207   -1798.1179    23139.134    15.572621    13.486223     26.10176    5481.7832 
  196500      196.489    420.39607    17.280265   -444.15612   -426.87585    2812.9784   -6972.0449   -7174.7859    22585.766    15.572623    13.486225    26.101743    5481.7812 
  197000      196.989    415.00744    17.058767   -443.90746   -426.84869     4102.051    -9786.636   -2894.4194    24987.208    15.572626    13.486227    26.101725    5481.7792 
  197500      197.489    387.01461     15.90813   -442.73186   -426.82373    5909.4327   -7418.1288   -3030.0061    28176.433    15.572628    13.486229    26.101708    5481.7772 
  198000      197.989    420.97581    17.304096   -444.10044   -426.79634    3454.4287   -9172.8443   -1829.5601     21365.69    15.572631    13.486232     26.10169    5481.7752 
  198500      198.489    436.02455     17.92267   -444.69456   -426.77189    4096.3549   -9148.2734   -2131.2349    23568.573    15.572633    13.486234    26.101673    5481.7732 
  199000      198.989    412.06896    16.937982   -443.68284   -426.74485     4109.504   -8590.1682   -2834.2067    23752.887    15.572635    13.486236    26.101655    5481.7712 
  199500      199.489    408.94087    16.809402   -443.52677   -426.71737      4173.43   -7028.9505   -419.80773    19969.048    15.572638    13.486238    26.101638    5481.7693 
  200000      199.989    421.60888    17.330117   -444.02098   -426.69087    3292.2406    -6818.765   -4506.0055    21201.492     15.57264     13.48624     26.10162    5481.7673 
  200500      200.489    424.11882    17.433288    -444.0976   -426.66431    3742.1983   -10853.233    -3593.167    25672.994    15.572642    13.486242    26.101603    5481.7653 
  201000      200.989    428.52412    17.614367   -444.25125   -426.63688    4609.3431   -6411.3876   -8280.3453    28519.762    15.572645    13.486244    26.101585    5481.7633 
  201500      201.489    448.58813    18.439092   -445.04948   -426.61039    3178.3461   -8711.6721   -5445.2055    23691.916    15.572647    13.486246    26.101568    5481.7613 
  202000      201.989    433.00544     17.79857   -444.38056   -426.58199    4996.6623   -5474.9671   -6020.4402    26485.394    15.572649    13.486248    26.101551    5481.7593 
  202500      202.489    432.53345    17.779169   -444.33461   -426.55545    5079.3452   -8072.5383    -4727.031    28037.605    15.572652     13.48625    26.101533    5481.7574 
  203000      202.989    424.51443    17.449549   -443.97761   -426.52806    2953.2541   -11545.576   -3140.9778    23546.316    15.572654    13.486253    26.101516    5481.7554 
  203500      203.489    452.61579    18.604648   -445.10646   -426.50181    4412.2355   -7775.6498   -2451.5295    23463.886    15.572656    13.486255    26.101498    5481.7534 
  204000      203.989    445.51022    18.312576   -444.78784   -426.47526    4037.3876   -7917.2268   -3452.8539    23482.244    15.572659    13.486257    26.101481    5481.7514 
  204500      204.489      413.457    16.995037   -443.44294    -426.4479    4266.0376   -8017.0014   -521.65631    21336.771    15.572661    13.486259    26.101463    5481.7494 
  205000      204.989    401.11308    16.487643   -442.90792   -426.42028    5886.9642    -7929.555   -1906.0626     27496.51    15.572663    13.486261    26.101446    5481.7474 
  205500      205.489    418.48575    17.201742   -443.59576   -426.39402    5412.2392   -6867.2725   -3735.1019    26839.092    15.572666    13.486263    26.101428    5481.7455 
  206000      205.989    422.56266    17.369322   -443.73706   -426.36774    5497.9302   -5577.8981   -2401.2017     24472.89    15.572668    13.486265    26.101411    5481.7435 
  206500      206.489    420.81642    17.297544    -443.6374   -426.33985    4350.8082   -9991.1947   -1114.3074    24157.927     15.57267    13.486267    26.101394    5481.7415 
  207000      206.989    407.11341    16.734285   -443.04741   -426.31312    5621.2887   -6158.2426   -973.28769    23995.396    15.572673    13.486269    26.101376    5481.7395 
  207500      207.489    405.41889    16.664632   -442.95086   -426.28623    5879.2767   -8369.4978    1447.7059    24559.622    15.572675    13.486271    26.101359    5481.7375 
  208000      207.989    417.66782    17.168121   -443.42734   -426.25921    4496.3795   -10270.766   -2071.8466    25831.751    15.572678    13.486274    26.101341    5481.7355 
  208500      208.489    437.63282    17.988777   -444.22124   -426.23247    3781.5982   -7772.1376     -625.535    19742.467     15.57268    13.486276    26.101324    5481.7336 
  209000      208.989    425.19486    17.477518    -443.6827   -426.20518    4747.4849     -6996.67   -1114.1947    22353.319    15.572682    13.486278    26.101306    5481.7316 
  209500      209.489    428.95932    17.632255   -443.81038   -426.17812    4150.2555   -11768.274    670.34703    23548.693    15.572685     13.48628    26.101289    5481.7296 
  210000      209.989    436.30128    17.934045   -444.08486   -426.15082    5363.1687   -7441.2835   -3262.9109    26793.701    15.572687    13.486282    26.101271    5481.7276 
  210500      210.489    437.57989    17.986602   -444.11081   -426.12421    4152.0685   -6938.5343   -3776.4579    23171.198    15.572689    13.486284    26.101254    5481.7256 
  211000      210.989     421.2271    17.314425   -443.41057   -426.09615    5616.7758   -7859.2279    2644.7643    22064.791    15.572692    13.486286    26.101236    5481.7236 
  211500      211.489    436.70198    17.950515   -444.02046   -426.06995     4845.754   -9838.3227   -287.24559     24662.83    15.572694    13.486288    26.101219    5481.7216 
  212000      211.989    432.53651    17.779295   -443.82184   -426.04255    4661.2894   -7977.4465   -252.30235    22213.617    15.572696     13.48629    26.101202    5481.7197 
[...]
  948500      948.489    566.26439    23.276143   -437.74573   -414.46959    11447.555   -6770.0255    4295.6106     36817.08    15.576158    13.489384    26.075498    5478.7951 
  949000      948.989    582.45041    23.941465   -438.40823   -414.46677    11835.264   -3238.5606    2631.0773    36113.277     15.57616    13.489386     26.07548    5478.7931 
  949500      949.489    613.84703    25.232014   -439.69584   -414.46383    9162.4934   -2707.8364     180.0005    30015.316    15.576163    13.489388    26.075463    5478.7911 
  950000      949.989    580.36477    23.855735   -438.31731   -414.46157    10512.741   -4071.8465    5136.4201     30473.65    15.576165     13.48939    26.075445    5478.7891 
  950500      950.489    590.92466    24.289797     -438.749    -414.4592    8476.9966    -6077.691    2330.2243    29178.456    15.576167    13.489392    26.075428    5478.7871 
  951000      950.989    528.72822    21.733229   -436.18868   -414.45545    12292.162   -1986.7123    2831.4465    36031.752     15.57617    13.489394     26.07541    5478.7851 
  951500      951.489    564.78897    23.215496   -437.66977   -414.45427    9203.6202   -4024.8095    2377.1022    29258.568    15.576172    13.489396    26.075393    5478.7831 
  952000      951.989    579.83753    23.834063   -438.28205   -414.44799    9563.9799   -4166.3076    3614.9146    29243.333    15.576174    13.489398    26.075376    5478.7811 
  952500      952.489    567.66735    23.333811   -437.77875   -414.44494    10734.827   -6784.3937     4474.448    34514.428    15.576177      13.4894    26.075358    5478.7792 
  953000      952.989    556.30514     22.86677   -437.30835   -414.44158    9963.4903   -6696.9508    932.07662    35655.345    15.576179    13.489403    26.075341    5478.7772 
  953500      953.489    571.72022    23.500403    -437.9394     -414.439    9668.0033   -1949.4471   -596.51034    31549.967    15.576181    13.489405    26.075323    5478.7752 
  954000      953.989    584.90755    24.042464   -438.47766   -414.43519    11137.424     803.0971   -1079.7293    33688.905    15.576184    13.489407    26.075306    5478.7732 
  954500      954.489    578.84349    23.793203   -438.22501   -414.43181    7732.9892    -4644.974   -332.42791     28176.37    15.576186    13.489409    26.075288    5478.7712 
  955000      954.989    544.36464     22.37596   -436.80429   -414.42833     10839.75   -2902.3562   -481.97763    35903.583    15.576188    13.489411    26.075271    5478.7692 
  955500      955.489    571.53124    23.492635   -437.92024   -414.42761    10918.112   -724.44596   -1241.4671    34720.248    15.576191    13.489413    26.075253    5478.7672 
  956000      955.989    570.24029    23.439571   -437.86473   -414.42516    10285.838   -6289.5452      3117.02    34030.038    15.576193    13.489415    26.075236    5478.7652 
  956500      956.489    567.86786    23.342053   -437.76332   -414.42127    10184.036   -2888.7206    177.07817    33263.752    15.576195    13.489417    26.075219    5478.7633 
  957000      956.989     556.1302    22.859579   -437.27611   -414.41653    9116.8109   -4650.7185   -87.457195    32088.609    15.576198    13.489419    26.075201    5478.7613 
  957500      957.489    565.05849    23.226574   -437.64146   -414.41489    11073.325   -3714.5688    4632.0967    32302.447      15.5762    13.489421    26.075184    5478.7593 
  958000      957.989    544.96604     22.40068   -436.80995   -414.40928    10482.103   -6459.1456   -1508.6643     39414.12    15.576203    13.489424    26.075166    5478.7573 
  958500      958.489    585.66874    24.073753   -438.48064   -414.40688    8528.1103   -7013.8254    3577.0879    29021.069    15.576205    13.489426    26.075149    5478.7553 
  959000      958.989    562.73139     23.13092   -437.53154   -414.40062    8727.0473   -4292.4774    2923.2752    27550.344    15.576207    13.489428    26.075131    5478.7533 
  959500      959.489    567.22173    23.315494   -437.71233   -414.39683    9303.4678   -7125.8994    2077.3752    32958.928     15.57621     13.48943    26.075114    5478.7513 
  960000      959.989    578.02626    23.759611   -438.15315   -414.39354    10476.432   -3095.3598    1111.6738    33412.982    15.576212    13.489432    26.075096    5478.7494 
  960500      960.489    540.10024    22.200672   -436.59024   -414.38957    11114.975   -3380.8422    3279.6481     33446.12    15.576214    13.489434    26.075079    5478.7474 
  961000      960.989    552.29817    22.702065   -437.08772   -414.38565    12902.885   -2548.5988    8289.1829    32968.072    15.576217    13.489436    26.075061    5478.7454 
  961500      961.489     579.3442    23.813785   -438.19633   -414.38254    9139.7858   -6330.7112    1990.4244    31759.644    15.576219    13.489438    26.075044    5478.7434 
  962000      961.989    609.21262    25.041518   -439.42022    -414.3787    9273.2689   -5163.6104    1872.5516    31110.865    15.576221     13.48944    26.075027    5478.7414 
  962500      962.489    546.35871    22.457925    -436.8313   -414.37337    10898.218   -5152.4291    4338.8137    33508.268    15.576224    13.489442    26.075009    5478.7394 
  963000      962.989    527.54855    21.684739   -436.05113   -414.36639    11338.234   -2100.9612   -1353.3659     37469.03    15.576226    13.489445    26.074992    5478.7374 
  963500      963.489    545.92401    22.440057   -436.80137   -414.36132    10830.885   -5686.3203    6788.9143     31390.06    15.576228    13.489447    26.074974    5478.7354 
  964000      963.989    556.40664    22.870942   -437.22708   -414.35613    9899.6298   -6355.8876    6629.9441    29424.833    15.576231    13.489449    26.074957    5478.7335 
  964500      964.489    567.03653    23.307881   -437.66084   -414.35296    8425.4921    -8581.844    2680.5247    31177.795    15.576233    13.489451    26.074939    5478.7315 
  965000      964.989    564.46005    23.201976   -437.54933   -414.34735    10065.107   -6732.6542    7123.1542    29804.821    15.576235    13.489453    26.074922    5478.7295 
  965500      965.489    569.30169     23.40099   -437.74311   -414.34212    8568.2739   -7001.9887     1618.793    31088.017    15.576238    13.489455    26.074904    5478.7275 
  966000      965.989    592.96423    24.373632   -438.71247   -414.33884    9297.7379   -3944.2271    2986.9438    28850.497     15.57624    13.489457    26.074887    5478.7255 
  966500      966.489    564.57259    23.206602    -437.5402    -414.3336    10274.696   -5805.2552     3611.619    33017.723    15.576242    13.489459     26.07487    5478.7235 
  967000      966.989    568.07846    23.350709   -437.68294   -414.33223    9815.7772   -1787.8402   -333.13794     31568.31    15.576245    13.489461    26.074852    5478.7215 
  967500      967.489    561.08682     23.06332   -437.38996   -414.32664    9593.3232   -9496.5613    444.74097     37831.79    15.576247    13.489463    26.074835    5478.7195 
  968000      967.989    534.88053    21.986118   -436.30582   -414.31971    11650.254   -2479.0705    1544.1057    35885.727     15.57625    13.489466    26.074817    5478.7176 
  968500      968.489    580.89615    23.877577   -438.19139   -414.31381    10596.261   -4212.9835   -2290.5956    38292.363    15.576252    13.489468      26.0748    5478.7156 
  969000      968.989    600.70473    24.691803   -439.00291   -414.31111    9333.5566   -3178.7406   -2706.7081    33886.118    15.576254     13.48947    26.074782    5478.7136 
  969500      969.489    583.36163     23.97892   -438.28525   -414.30633    9538.1518   -3094.6025   -3314.3766    35023.435    15.576257    13.489472    26.074765    5478.7116 
  970000      969.989    600.31098    24.675619   -438.97721   -414.30159    10067.215   -6738.5903    3434.7433    33505.492    15.576259    13.489474    26.074747    5478.7096 
  970500      970.489    563.66828     23.16943   -437.46586   -414.29643    9265.6923   -7868.3297    4226.5465     31438.86    15.576261    13.489476     26.07473    5478.7076 
  971000      970.989    603.70181    24.814998   -439.10697   -414.29197    10366.498   -5494.0635    2570.6766    34022.882    15.576264    13.489478    26.074712    5478.7056 
  971500      971.489    585.08412    24.049722   -438.33654   -414.28682     11474.75   -1522.1387   -1495.8211    37442.209    15.576266     13.48948    26.074695    5478.7036 
  972000      971.989    565.67148    23.251771   -437.53204   -414.28027    11961.967   -4646.6966   -1172.3838    41704.982    15.576268    13.489482    26.074678    5478.7017 
  972500      972.489    573.46669    23.572191    -437.8464   -414.27421    10163.838   -2160.7169     689.4265    31962.804    15.576271    13.489484     26.07466    5478.6997 
  973000      972.989    597.57301    24.563075   -438.83188    -414.2688    11594.733   -1145.5772    6230.7958    29698.981    15.576273    13.489487    26.074643    5478.6977 
  973500      973.489    576.66589    23.703694   -437.96689    -414.2632    8672.7221   -6367.8517    5220.6343    27165.384    15.576275    13.489489    26.074625    5478.6957 
  974000      973.989    595.73029     24.48733   -438.74555   -414.25822    9816.8674   -3429.7642    4570.2383    28310.128    15.576278    13.489491    26.074608    5478.6937 
  974500      974.489    561.47628    23.079329   -437.33513    -414.2558    11159.995   -3092.7171    6707.8295    29864.872     15.57628    13.489493     26.07459    5478.6917 
  975000      974.989    514.38685    21.143731   -435.39213    -414.2484    10125.451   -4582.4953    6403.3839    28555.463    15.576282    13.489495    26.074573    5478.6897 
  975500      975.489     549.9786     22.60672   -436.85093   -414.24421    8458.0454   -6757.1974    853.35963    31277.974    15.576285    13.489497    26.074555    5478.6878 
  976000      975.989    573.75028    23.583848   -437.82269   -414.23885    9664.3873   -9768.0779    4075.1937    34686.046    15.576287    13.489499    26.074538    5478.6858 
  976500      976.489    613.69277    25.225673   -439.45887    -414.2332    9420.6676   -2761.0598    1945.4333    29077.629    15.576289    13.489501    26.074521    5478.6838 
  977000      976.989    589.86221    24.246125    -438.4721   -414.22597    8728.7978    -7527.656    104.06088    33609.989    15.576292    13.489503    26.074503    5478.6818 
  977500      977.489    633.47523    26.038826   -440.26242    -414.2236    8391.8372   -5713.7113    1454.3483    29434.875    15.576294    13.489505    26.074486    5478.6798 
  978000      977.989    598.40312    24.597196   -438.81214   -414.21494    9541.9451   -7011.3687   -209.93579     35847.14    15.576297    13.489508    26.074468    5478.6778 
  978500      978.489    574.83184    23.628305   -437.83643   -414.20813     9375.791   -6986.1663    1628.7187    33484.821    15.576299     13.48951    26.074451    5478.6758 
  979000      978.989    578.30088    23.770899   -437.97261   -414.20171    9420.7534   -6639.5164    1678.7396    33223.037    15.576301    13.489512    26.074433    5478.6738 
  979500      979.489    602.40437    24.761667   -438.95998   -414.19831    9334.9278   -6524.4856    1364.1539    33165.115    15.576304    13.489514    26.074416    5478.6719 
  980000      979.989    591.08468    24.296374    -438.4886   -414.19222    9102.7751   -7387.4754    2751.8912    31943.909    15.576306    13.489516    26.074398    5478.6699 
  980500      980.489    574.76582    23.625591   -437.81006   -414.18447    10466.302    -7046.034    2803.0145    35641.927    15.576308    13.489518    26.074381    5478.6679 
  981000      980.989    570.03867    23.431283   -437.60685   -414.17556    8394.4802   -9661.7872    2191.3735    32653.854    15.576311     13.48952    26.074363    5478.6659 
  981500      981.489    562.27611    23.112206   -437.28042   -414.16821    10566.456   -6331.8952     2468.195    35563.069    15.576313    13.489522    26.074346    5478.6639 
  982000      981.989    586.47845    24.107036   -438.27086   -414.16382    10307.343   -5558.5543    4131.5449    32349.038    15.576315    13.489524    26.074329    5478.6619 
  982500      982.489    566.43847    23.283298    -437.4399    -414.1566    10783.696   -1811.1035    2922.6359    31239.555    15.576318    13.489526    26.074311    5478.6599 
  983000      982.989    588.95834    24.208971   -438.35971   -414.15073    10359.736    -5276.379    4290.0189    32065.568     15.57632    13.489529    26.074294    5478.6579 
  983500      983.489    578.09298    23.762354   -437.90618   -414.14382    10837.149   -3796.5884    4489.8798    31818.155    15.576322    13.489531    26.074276     5478.656 
  984000      983.989    585.90234    24.083355   -438.22091   -414.13755    11517.942   -5930.2034    3535.6828    36948.346    15.576325    13.489533    26.074259     5478.654 
  984500      984.489    571.66892    23.498295   -437.62706   -414.12877    10214.309   -7331.9296    2097.2567    35877.601    15.576327    13.489535    26.074241     5478.652 
  985000      984.989    570.41229    23.446641   -437.56679   -414.12015    10368.896   -6752.1954    2454.1308    35404.752    15.576329    13.489537    26.074224      5478.65 
  985500      985.489    560.37879    23.034217   -437.14717   -414.11295     10723.88    -5467.395    3738.2426    33900.793    15.576332    13.489539    26.074206     5478.648 
  986000      985.989    585.29266    24.058294   -438.16502   -414.10673    9625.5799   -1593.4716    644.26873    29825.943    15.576334    13.489541    26.074189     5478.646 
  986500      986.489    601.31539    24.716905   -438.81848   -414.10158    9049.7725   -3389.9622   -2094.9512    32634.231    15.576336    13.489543    26.074172     5478.644 
  987000      986.989    576.03046    23.677574   -437.77024   -414.09267    11549.639   -3199.4677    1767.2157     36081.17    15.576339    13.489545    26.074154    5478.6421 
  987500      987.489     552.2083    22.698371   -436.78594   -414.08757    10911.883   -5705.4837    8315.4152    30125.717    15.576341    13.489547    26.074137    5478.6401 
  988000      987.989    603.70878    24.815284   -438.89638    -414.0811    8960.5736    -2621.479    -588.4747    30091.674    15.576344     13.48955    26.074119    5478.6381 
  988500      988.489    556.51293    22.875311   -436.94894   -414.07363    10535.452   -3098.4149    451.75505    34253.016    15.576346    13.489552    26.074102    5478.6361 
  989000      988.989    556.46385    22.873294   -436.93924   -414.06595    10087.338   -7064.6205    3839.5358      33487.1    15.576348    13.489554    26.074084    5478.6341 
  989500      989.489    597.46588    24.558671   -438.61575   -414.05708    8339.7909   -6943.3464    2275.4131    29687.306    15.576351    13.489556    26.074067    5478.6321 
  990000      989.989    578.74778    23.789269   -437.83834   -414.04907    8520.6982   -6437.4524      6404.99    25594.557    15.576353    13.489558    26.074049    5478.6301 
  990500      990.489    554.99142     22.81277   -436.85356   -414.04079     11161.69   -3653.7464    4979.2058    32159.612    15.576355     13.48956    26.074032    5478.6281 
  991000      990.989    570.98531    23.470195   -437.50179   -414.03159    12651.437   -2743.2132     1461.152    39236.371    15.576358    13.489562    26.074014    5478.6262 
  991500      991.489    573.25279    23.563399   -437.58492   -414.02152    9210.7021   -5917.9552    1670.6288    31879.433     15.57636    13.489564    26.073997    5478.6242 
  992000      991.989    548.06921    22.528235   -436.54215   -414.01391     8292.073   -5203.7788   -2808.7414    32888.739    15.576362    13.489566     26.07398    5478.6222 
  992500      992.489    577.70779    23.746521   -437.75318   -414.00666    10208.792    -7004.457    7147.2503    30483.584    15.576365    13.489568    26.073962    5478.6202 
  993000      992.989    577.10745    23.721844   -437.71837   -413.99653    8493.9265   -7079.9186    3630.4628    28931.235    15.576367    13.489571    26.073945    5478.6182 
  993500      993.489    554.03843    22.773598   -436.76156   -413.98796    9710.1139   -4101.3664    3926.0667    29305.642    15.576369    13.489573    26.073927    5478.6162 
  994000      993.989    607.27813    24.962001   -438.94424   -413.98223    7979.5247   -4255.4199    5630.2022    22563.792    15.576372    13.489575     26.07391    5478.6142 
  994500      994.489    544.34908     22.37532   -436.34753   -413.97221     10031.32   -5317.6966    4000.7632    31410.894    15.576374    13.489577    26.073892    5478.6122 
  995000      994.989     547.6218    22.509844   -436.47375    -413.9639    8756.5604   -5941.5633     3336.318    28874.927    15.576376    13.489579    26.073875    5478.6103 
  995500      995.489    584.40224    24.021694   -437.98136   -413.95966    9871.7165   -4116.9606    2787.2534    30944.857    15.576379    13.489581    26.073857    5478.6083 
  996000      995.989    576.77091     23.70801   -437.65887   -413.95086    10526.714   -920.13225   -1830.1293    34330.404    15.576381    13.489583     26.07384    5478.6063 
  996500      996.489    544.39107    22.377046   -436.31885   -413.94181    11812.413    1087.2225    34.279061    34315.738    15.576383    13.489585    26.073823    5478.6043 
  997000      996.989    584.63925    24.031436   -437.96594    -413.9345     9672.094   -3700.2024    988.17613    31728.308    15.576386    13.489587    26.073805    5478.6023 
  997500      997.489    586.18333    24.094905   -438.02096   -413.92606    10446.414   -3254.6385    6152.6512    28441.229    15.576388    13.489589    26.073788    5478.6003 
  998000      997.989    549.25216     22.57686    -436.4946   -413.91774     10766.81   -3727.6369    1100.1789    34927.889    15.576391    13.489592     26.07377    5478.5983 
  998500      998.489    565.69299    23.252655   -437.16453   -413.91187    11305.702   -3615.4272    2287.9955    35244.538    15.576393    13.489594    26.073753    5478.5963 
  999000      998.989    580.57485     23.86437    -437.7664   -413.90203    8914.1755   -4518.3272    2512.9665    28747.887    15.576395    13.489596    26.073735    5478.5944 
  999500      999.489    573.44214    23.571182   -437.46467   -413.89349    10948.549   -2935.6059    1644.2132    34137.038    15.576398    13.489598    26.073718    5478.5924 
 1000000      999.989    582.71207     23.95222   -437.83726   -413.88504    10769.951   -3329.2031    3722.5409    31916.516      15.5764      13.4896      26.0737    5478.5904 
 1000011         1000    554.35209    22.786491   -436.67081   -413.88432    11637.951   -2328.2596    1965.7697    35276.344      15.5764      13.4896      26.0737    5478.5903 
Loop time of 935.666 on 28 procs for 1000000 steps with 319 atoms

Performance: 92.341 ns/day, 0.260 hours/ns, 1068.757 timesteps/s
87.1% CPU use with 28 MPI tasks x no OpenMP threads

MPI task timing breakdown:
Section |  min time  |  avg time  |  max time  |%varavg| %total
---------------------------------------------------------------
Pair    | 757.64     | 810.22     | 854.49     |  80.9 | 86.59
Neigh   | 0.011731   | 0.018158   | 0.0234     |   2.5 |  0.00
Comm    | 70.482     | 114        | 165.18     | 209.9 | 12.18
Output  | 0.09938    | 0.1017     | 0.1221     |   1.3 |  0.01
Modify  | 4.7396     | 6.28       | 7.9829     |  36.6 |  0.67
Other   |            | 5.038      |            |       |  0.54

Nlocal:    11.3929 ave 16 max 6 min
Histogram: 1 3 1 3 2 3 5 2 4 4
Nghost:    657.607 ave 679 max 641 min
Histogram: 2 3 3 3 5 8 0 2 1 1
Neighs:    724.143 ave 1012 max 381 min
Histogram: 2 3 3 0 3 3 6 0 5 3
FullNghs:  1448.29 ave 2052 max 752 min
Histogram: 3 1 4 1 3 4 3 3 3 3

Total # of neighbors = 40552
Ave neighs/atom = 127.122
Neighbor list builds = 263
Dangerous builds = 0

write_restart   POSCAR_1x1x1.rest

#unfix    1
#undump   1
Total wall time: 0:15:35
