LAMMPS (7 Dec 2015)
#----------- Initialize Simulation ------------ restart01
#processors	2 2 2
units		metal
boundary	p p p     ## periodic boundary condition  on x y z axis ##
atom_style atomic
#atom_modify map array sort 0 0.0

read_data	POSCAR_1x1x1.lammps
  triclinic box = (0 0 0) to (15.4622 13.3907 26.9134) with tilt (-7.731 0 0)
  2 by 2 by 7 MPI processor grid
  reading atoms ...
  319 atoms

#----------- Define Potential -----------------
pair_style meam
pair_coeff * * MgAlZn.library.meam Mg Al Zn MgAlZn.parameter.meam Mg Al Zn 	#1=Mg 2=Al 3=Zn	#atoms/mass

#----------- Neighbor List --------------------
neighbor 2.0 bin
neigh_modify delay 10 check yes

#--------------  Run a simulation (minimization) ---------------------------------------
minimize       1.0e-4   1.0e-6   100   1000          #結構優化的條件
WARNING: Resetting reneighboring criteria during minimization (../min.cpp:168)
Neighbor list info ...
  2 neighbor list requests
  update every 1 steps, delay 0 steps, check yes
  max neighbors/atom: 2000, page size: 100000
  master list distance cutoff = 8
  ghost atom cutoff = 8
  binsize = 4 -> bins = 6 4 7
Memory usage per processor = 8.65497 Mbytes
Step Temp E_pair E_mol TotEng Press 
       0            0   -436.80634            0   -436.80634   -1740.8184 
      14            0   -459.05912            0   -459.05912   -18407.275 
Loop time of 0.0223901 on 28 procs for 14 steps with 319 atoms

87.4% CPU use with 28 MPI tasks x no OpenMP threads

Minimization stats:
  Stopping criterion = energy tolerance
  Energy initial, next-to-last, final = 
        -436.806344674      -459.02903738     -459.059121757
  Force two-norm initial, final = 20.7832 0.655781
  Force max component initial, final = 5.1197 0.113887
  Final line search alpha, max atom move = 0.548404 0.062456
  Iterations, force evaluations = 14 24

MPI task timing breakdown:
Section |  min time  |  avg time  |  max time  |%varavg| %total
---------------------------------------------------------------
Pair    | 0.018431   | 0.019107   | 0.02       |   0.3 | 85.33
Neigh   | 0          | 0          | 0          |   0.0 |  0.00
Comm    | 0.0015338  | 0.0023968  | 0.0030522  |   0.9 | 10.70
Output  | 0          | 0          | 0          |   0.0 |  0.00
Modify  | 0          | 0          | 0          |   0.0 |  0.00
Other   |            | 0.0008867  |            |       |  3.96

Nlocal:    11.3929 ave 15 max 7 min
Histogram: 2 1 4 3 0 4 4 4 3 3
Nghost:    647.036 ave 685 max 585 min
Histogram: 4 0 0 0 1 5 5 6 4 3
Neighs:    714.607 ave 969 max 419 min
Histogram: 2 1 3 4 1 4 4 3 3 3
FullNghs:  1429.21 ave 1932 max 855 min
Histogram: 2 1 4 3 3 2 3 4 3 3

Total # of neighbors = 40018
Ave neighs/atom = 125.448
Neighbor list builds = 0
Dangerous builds = 0
velocity all  create 600.0 4928459 #rot yes dist gaussian

#--------------  Run a simulation (Relaxation)  ----------------------------------------
fix  1  all  nvt   temp  600.0  600.0  100				#damping constant
#fix  2  all  npt   temp  393.0  393.0  50 iso 0.0 0.0 1000.0
fix  2  all deform 1 x final 0 15.467 y final 0 13.3948 z final 0 26.8784 xy final -7.7334 units lattice
#fix  3  all  npt   temp  393.0  393.0  50 z 0.0 0.0 1000.0

#variable b equal 1
#fix 2 all efield  0.0  0.0  v_b
#compute pot all pe/atom


#----------- Output --------------------------
thermo	 500
timestep  0.001		#1.0 fs
thermo_style	custom step time temp ke pe etotal press pxx pyy pzz lx ly lz vol

dump 1 all custom 10000 dump.eq id type x y z
dump_modify 1 sort  id

run        1000000	#1000 ps
Neighbor list info ...
  2 neighbor list requests
  update every 1 steps, delay 10 steps, check yes
  max neighbors/atom: 2000, page size: 100000
  master list distance cutoff = 8
  ghost atom cutoff = 8
  binsize = 4 -> bins = 6 4 7
Memory usage per processor = 7.563 Mbytes
Step Time Temp KinEng PotEng TotEng Press Pxx Pyy Pzz Lx Ly Lz Volume 
      14            0          600    24.662836   -459.05912   -434.39629   -13679.912   -12802.536   -9254.2357   -18982.964      15.4622      13.3907      26.9134    5572.4109 
     500        0.486    306.34155    12.592085    -446.9839   -434.39181   -5983.3924   -8556.7911   -344.64505   -9048.7412    15.462202    13.390702    26.913383     5572.409 
    1000        0.986    324.84377    13.352614   -447.74406   -434.39144   -6223.2888   -5654.5805   -3034.6712   -9980.6147    15.462205    13.390704    26.913365    5572.4071 
    1500        1.486    303.87539    12.490714   -446.88105   -434.39034   -7198.9245   -5161.8514   -4459.5532   -11975.369    15.462207    13.390706    26.913348    5572.4052 
    2000        1.986    304.54421    12.518206   -446.90739   -434.38918   -6639.1839   -9791.6378   -2774.5655   -7351.3484     15.46221    13.390708     26.91333    5572.4033 
    2500        2.486    321.17999    13.202016   -447.58992    -434.3879   -6087.0999   -7148.1933   -2350.2201   -8762.8862    15.462212     13.39071    26.913313    5572.4014 
    3000        2.986    310.23491    12.752121   -447.13859   -434.38647    -7185.168   -7874.0091   -2914.5381   -10766.957    15.462214    13.390712    26.913295    5572.3995 
    3500        3.486    312.12231    12.829702   -447.21422   -434.38451   -7239.2985   -7544.1513   -5508.4131   -8665.3312    15.462217    13.390714    26.913278    5572.3976 
    4000        3.986    311.86589    12.819162   -447.20139   -434.38222   -6593.7881   -9446.8428   -4188.4378   -6146.0838    15.462219    13.390716     26.91326    5572.3957 
    4500        4.486     323.7417    13.307314   -447.68739   -434.38007   -7161.7713   -7509.8502   -3957.7629   -10017.701    15.462222    13.390718    26.913243    5572.3938 
    5000        4.986    329.78497    13.555721   -447.93265   -434.37693   -7763.2241   -8661.5842   -5107.0243   -9521.0638    15.462224     13.39072    26.913225    5572.3919 
    5500        5.486    324.81662    13.351498   -447.72517   -434.37367   -6781.2405   -8954.9479   -4405.1528   -6983.6208    15.462226    13.390722    26.913208      5572.39 
    6000        5.986    307.91213    12.656644   -447.02673   -434.37009   -6735.0023    -7243.155   -3682.2934   -9279.5584    15.462229    13.390725     26.91319    5572.3881 
    6500        6.486    303.37877    12.470301   -446.83675   -434.36645   -6653.3057   -9320.4787   -3574.2808   -7065.1575    15.462231    13.390727    26.913173    5572.3862 
    7000        6.986    298.14275    12.255076   -446.61713   -434.36205   -6925.0371   -6623.3242   -7163.8812   -6987.9059    15.462234    13.390729    26.913155    5572.3843 
    7500        7.486    311.88007    12.819745   -447.17676   -434.35702   -6702.9378   -8176.0035   -5637.9629   -6294.8469    15.462236    13.390731    26.913138    5572.3824 
    8000        7.986    306.63699     12.60423   -446.95683    -434.3526   -6405.2339    -8723.259   -5666.9326   -4825.5102    15.462238    13.390733     26.91312    5572.3805 
    8500        8.486    326.33771    13.414022   -447.76222   -434.34819   -8212.4663   -8140.3322   -5350.2122   -11146.855    15.462241    13.390735    26.913103    5572.3786 
    9000        8.986    317.59637    13.054712   -447.39734   -434.34263    -7774.272   -7726.1629   -6409.1597   -9187.4933    15.462243    13.390737    26.913085    5572.3767 
    9500        9.486    314.31696    12.919912   -447.25698   -434.33706   -6573.0347   -6057.8525   -3273.1116    -10388.14    15.462246    13.390739    26.913068    5572.3748 
   10000        9.986    316.04902    12.991108   -447.32221    -434.3311    -6843.998   -8758.5173   -5277.1685   -6496.3082    15.462248    13.390741     26.91305    5572.3728 
   10500       10.486    305.47784    12.556583   -446.88085   -434.32427   -6641.2878   -6356.9034   -5990.4438   -7576.5161     15.46225    13.390743    26.913033    5572.3709 
   11000       10.986    297.77215    12.239843   -446.55734    -434.3175    -7264.241   -8974.5676   -3273.1531   -9545.0023    15.462253    13.390745    26.913015     5572.369 
   11500       11.486     310.0718    12.745416   -447.05628   -434.31086   -7353.8751   -8578.3888   -4862.5935   -8620.6432    15.462255    13.390747    26.912998    5572.3671 
   12000       11.986    317.84261    13.064833    -447.3682   -434.30337   -7000.2018   -6747.8828   -3631.8802   -10620.842    15.462258    13.390749     26.91298    5572.3652 
   12500       12.486    311.36452    12.798553   -447.09478   -434.29623   -7213.8952   -9058.7441   -3603.0786   -8979.8629     15.46226    13.390751    26.912963    5572.3633 
   13000       12.986    321.25793    13.205219   -447.49384   -434.28862   -6549.4911   -8700.2499   -4779.3372   -6168.8862    15.462262    13.390753    26.912945    5572.3614 
   13500       13.486    307.16635    12.625988   -446.90599      -434.28   -6214.1684   -8565.9794   -2143.1718    -7933.354    15.462265    13.390755    26.912928    5572.3595 
   14000       13.986    307.20991    12.627779   -446.89975   -434.27197   -6715.9298   -6956.2958   -4729.6934   -8461.8003    15.462267    13.390757     26.91291    5572.3576 
   14500       14.486    305.08448    12.540414   -446.80335   -434.26294   -6436.5116   -8628.0005   -4237.9156   -6443.6188     15.46227    13.390759    26.912893    5572.3557 
   15000       14.986    316.93951    13.027712   -447.28195   -434.25424   -7126.3993   -7148.2161   -5916.3102   -8314.6715    15.462272    13.390761    26.912875    5572.3538 
   15500       15.486    334.03898    13.730581   -447.97528    -434.2447   -7183.5784   -7419.4534   -4317.0177   -9814.2641    15.462274    13.390763    26.912858    5572.3519 
   16000       15.986    315.53521    12.969988    -447.2044   -434.23441   -5710.4927   -8795.6498   -2024.8306   -6310.9978    15.462277    13.390766     26.91284      5572.35 
   16500       16.486    308.08094    12.663583   -446.88812   -434.22453   -5422.7302   -5514.6592   -3647.7018   -7105.8297    15.462279    13.390768    26.912823    5572.3481 
   17000       16.986    300.36067    12.346243   -446.56053   -434.21428   -6633.2231   -10830.177   -4513.1102    -4556.382    15.462282     13.39077    26.912805    5572.3462 
   17500       17.486    296.86306    12.202475   -446.40583   -434.20335    -7148.946   -7583.4838   -4989.2373   -8874.1171    15.462284    13.390772    26.912788    5572.3443 
   18000       17.986    328.76386    13.513749    -447.7076   -434.19385   -7651.8684   -8342.4104   -5712.2181   -8900.9768    15.462286    13.390774     26.91277    5572.3424 
   18500       18.486    305.19888    12.545117   -446.72622    -434.1811   -6216.8505   -7485.1755    -2633.172   -8532.2039    15.462289    13.390776    26.912753    5572.3405 
   19000       18.986    318.11128    13.075877   -447.24569   -434.16981    -7168.526   -8979.9095   -4840.3085     -7685.36    15.462291    13.390778    26.912735    5572.3385 
   19500       19.486    306.01752    12.578766   -446.73667   -434.15791   -6085.9706   -9385.9983   -2593.9211   -6277.9924    15.462294     13.39078    26.912718    5572.3366 
   20000       19.986    330.77297    13.596332   -447.74241   -434.14608   -6662.1681   -7973.9378   -5218.5929   -6793.9737    15.462296    13.390782      26.9127    5572.3347 
   20500       20.486    318.57914    13.095108   -447.22829   -434.13318   -6644.4546   -7938.7014   -3562.3782   -8432.2844    15.462298    13.390784    26.912683    5572.3328 
   21000       20.986    289.29231    11.891281   -446.01175   -434.12047   -6692.4142   -6161.1265    -3707.022   -10209.094    15.462301    13.390786    26.912665    5572.3309 
   21500       21.486    324.93738    13.356462   -447.46435   -434.10789    -6756.768   -8912.0365   -3938.1019   -7420.1656    15.462303    13.390788    26.912648     5572.329 
   22000       21.986    320.73586     13.18376   -447.27843   -434.09467   -6351.5574   -9133.9652   -2338.1011   -7582.6058    15.462306     13.39079     26.91263    5572.3271 
   22500       22.486    318.34997    13.085688   -447.16679    -434.0811    -6236.648   -7586.0477   -5594.2935   -5529.6029    15.462308    13.390792    26.912613    5572.3252 
   23000       22.986      289.883    11.915561   -445.98253   -434.06697   -6570.8784   -7473.3591   -3308.9167   -8930.3594     15.46231    13.390794    26.912595    5572.3233 
   23500       23.486    320.70722    13.182583   -447.23583   -434.05325   -6766.8214   -9370.1112   -5240.1556   -5690.1974    15.462313    13.390796    26.912578    5572.3214 
   24000       23.986    316.05213    12.991236   -447.02981   -434.03857   -5957.1569   -6990.5246   -1753.4113   -9127.5348    15.462315    13.390798     26.91256    5572.3195 
   24500       24.486    330.35384    13.579104   -447.60341   -434.02431   -7190.3503   -6877.4317   -7158.5027   -7535.1166    15.462318      13.3908    26.912543    5572.3176 
   25000       24.986    311.66047    12.810718   -446.81977   -434.00905   -7226.0864   -6306.5691   -7358.7078   -8012.9824     15.46232    13.390802    26.912525    5572.3157 
   25500       25.486    317.92135     13.06807   -447.06249   -433.99442   -5911.6719   -6682.0046   -2359.8459   -8693.1652    15.462322    13.390804    26.912508    5572.3138 
   26000       25.986     318.4619    13.090289   -447.06933   -433.97904     -6367.73   -6652.8643   -3297.8423   -9152.4835    15.462325    13.390807     26.91249    5572.3119 
   26500       26.486    323.42038    13.294106   -447.25744   -433.96333   -6471.6947   -8019.7506    -2920.572   -8474.7613    15.462327    13.390809    26.912473      5572.31 
   27000       26.986    317.10989    13.034715   -446.98259   -433.94787   -6935.6696   -8747.1731   -5111.9097   -6947.9258     15.46233    13.390811    26.912455    5572.3081 
   27500       27.486    324.09311    13.321759   -447.25345   -433.93169   -6812.1893   -7378.4455   -3283.3558   -9774.7667    15.462332    13.390813    26.912438    5572.3062 
   28000       27.986    325.88814    13.395543    -447.3106   -433.91506   -5894.9701   -7955.1109   -4147.1234   -5582.6761    15.462334    13.390815     26.91242    5572.3042 
   28500       28.486    324.49779    13.338393   -447.23726   -433.89886   -6553.2159   -8546.3143   -5113.7692   -5999.5643    15.462337    13.390817    26.912403    5572.3023 
   29000       28.986    311.74134    12.814042   -446.69605   -433.88201   -6378.5677   -9124.7542   -5442.8652   -4568.0838    15.462339    13.390819    26.912385    5572.3004 
   29500       29.486    316.99387    13.029946   -446.89493   -433.86499   -6668.6884   -6961.9053   -7322.0874   -5722.0723    15.462342    13.390821    26.912368    5572.2985 
   30000       29.986    302.48261    12.433465   -446.28133   -433.84787    -6458.192   -8052.4753   -6559.1723   -4762.9284    15.462344    13.390823     26.91235    5572.2966 
   30500       30.486    330.68549    13.592737   -447.42413   -433.83139   -6278.8758   -6953.3501   -4657.1952   -7226.0821    15.462346    13.390825    26.912333    5572.2947 
   31000       30.986    310.94141    12.781161   -446.59429   -433.81313    -6301.383   -7544.6396   -4355.2047   -7004.3045    15.462349    13.390827    26.912315    5572.2928 
   31500       31.486    318.96565    13.110996   -446.90673   -433.79573   -7632.6477   -8454.0583   -4405.4883   -10038.396    15.462351    13.390829    26.912298    5572.2909 
   32000       31.986    329.80658    13.556609    -447.3346   -433.77799   -6907.2445   -8383.1709   -4262.8869   -8075.6755    15.462354    13.390831     26.91228     5572.289 
   32500       32.486    329.10177    13.527638   -447.28755   -433.75991   -8066.1247   -9083.2745   -4676.6322   -10438.467    15.462356    13.390833    26.912263    5572.2871 
   33000       32.986    327.64147    13.467613   -447.20937   -433.74175   -6612.8146   -3491.4099   -4555.0361   -11791.998    15.462358    13.390835    26.912245    5572.2852 
   33500       33.486    323.05523    13.279097   -447.00229   -433.72319   -6743.5018   -7535.2375    -3915.972   -8779.2958    15.462361    13.390837    26.912228    5572.2833 
   34000       33.986    316.81508    13.022597   -446.72751   -433.70492   -6450.8898   -9663.9566   -4876.9016   -4811.8111    15.462363    13.390839     26.91221    5572.2814 
   34500       34.486    312.57384    12.848262   -446.53497    -433.6867   -7399.4033   -9693.4771   -2968.3931   -9536.3397    15.462366    13.390841    26.912193    5572.2795 
   35000       34.986    316.00906    12.989466   -446.65842   -433.66895   -6740.4923   -4658.6316   -5744.7337   -9818.1115    15.462368    13.390843    26.912175    5572.2776 
   35500       35.486    316.93036    13.027336   -446.67755   -433.65022   -7412.8801   -7856.5932    -4597.313    -9784.734     15.46237    13.390845    26.912158    5572.2757 
   36000       35.986    313.43345    12.883596   -446.51464   -433.63105   -6893.2724    -7596.693    -6779.512   -6303.6122    15.462373    13.390848     26.91214    5572.2738 
   36500       36.486    319.08505    13.115903   -446.72795   -433.61205   -6011.8255   -6632.8244   -4367.1293   -7035.5228    15.462375     13.39085    26.912123    5572.2719 
   37000       36.986    321.17143    13.201664    -446.7952   -433.59354   -6006.9345   -7509.7139   -4825.6496   -5685.4399    15.462378    13.390852    26.912105      5572.27 
   37500       37.486    334.83457    13.763283   -447.33793   -433.57465   -5977.2478   -6228.3492   -2986.1204   -8717.2739     15.46238    13.390854    26.912088     5572.268 
   38000       37.986    318.80722    13.104483   -446.66015   -433.55567   -5781.0426   -8031.2453   -2801.5624     -6510.32    15.462382    13.390856     26.91207    5572.2661 
   38500       38.486     323.2808    13.288369   -446.82526   -433.53689   -6068.2603   -7037.4826   -3354.4043   -7812.8941    15.462385    13.390858    26.912053    5572.2642 
   39000       38.986    320.23575    13.163203    -446.6811    -433.5179   -6556.5275   -9331.9101   -2720.7182   -7616.9542    15.462387     13.39086    26.912035    5572.2623 
   39500       39.486    349.08338    14.348977   -447.84826   -433.49928   -6607.9788   -7627.8914   -2445.6005   -9750.4446     15.46239    13.390862    26.912018    5572.2604 
   40000       39.986    319.90831    13.149743   -446.62929   -433.47955   -6990.5305    -10154.43   -3448.4442   -7368.7168    15.462392    13.390864       26.912    5572.2585 
   40500       40.486    322.84694    13.270535   -446.73113    -433.4606    -6283.986   -5754.0476   -4604.5187   -8493.3917    15.462394    13.390866    26.911983    5572.2566 
   41000       40.986    316.45096     13.00763   -446.44905   -433.44142   -6538.2401   -8361.2839   -1631.6531   -9621.7832    15.462397    13.390868    26.911965    5572.2547 
   41500       41.486    341.89258    14.053401   -447.47604   -433.42264   -6786.6953   -8523.9559   -5191.7585   -6644.3715    15.462399     13.39087    26.911948    5572.2528 
   42000       41.986    322.60075    13.260416    -446.6633   -433.40288    -6106.204   -8613.8371   -1718.2975   -7986.4773    15.462402    13.390872     26.91193    5572.2509 
   42500       42.486    326.46642    13.419313   -446.80328   -433.38397   -5950.2046   -7084.9621   -6197.1568    -4568.495    15.462404    13.390874    26.911913     5572.249 
   43000       42.986    315.78967    12.980448   -446.34534   -433.36489   -6688.9664   -10148.392    -2131.422   -7787.0854    15.462406    13.390876    26.911895    5572.2471 
   43500       43.486    309.28065    12.712896   -446.05872   -433.34582   -5294.7401   -6950.6042   -3147.0114   -5786.6047    15.462409    13.390878    26.911878    5572.2452 
   44000       43.986    323.67298    13.304489   -446.63167   -433.32718   -6319.6485   -6108.2998    -6578.687   -6271.9587    15.462411     13.39088     26.91186    5572.2433 
   44500       44.486     328.0611    13.484862   -446.79331   -433.30845   -6157.7827   -7873.6889   -3145.5062   -7454.1529    15.462414    13.390882    26.911843    5572.2414 
   45000       44.986     324.9802    13.358222   -446.64782   -433.28959   -6767.5915   -6328.1159   -7737.8947   -6236.7639    15.462416    13.390884    26.911825    5572.2395 
   45500       45.486    313.78537    12.898062   -446.16852   -433.27046   -7047.9615    -8118.287   -4532.1367   -8493.4609    15.462418    13.390886    26.911808    5572.2376 
   46000       45.986    338.12249    13.898432    -447.1506   -433.25217   -6629.6261   -8904.8221   -4422.0293   -6562.0269    15.462421    13.390889     26.91179    5572.2357 
   46500       46.486    331.81364    13.639109   -446.87259   -433.23348   -6718.1519   -6862.6266   -4004.2914   -9287.5378    15.462423    13.390891    26.911773    5572.2337 
   47000       46.986    325.54791    13.381558    -446.5963   -433.21474   -5912.0951   -7790.3139   -3606.1833   -6339.7882    15.462426    13.390893    26.911755    5572.2318 
   47500       47.486    325.95627    13.398343   -446.59485   -433.19651   -6641.1645   -6797.2544   -6198.1203   -6928.1187    15.462428    13.390895    26.911738    5572.2299 
   48000       47.986    336.86163    13.846605   -447.02577   -433.17917   -6628.0284   -6921.9371   -2968.9342   -9993.2138     15.46243    13.390897     26.91172     5572.228 
   48500       48.486    319.29492     13.12453   -446.28504   -433.16051   -6256.1112   -6186.0232   -5917.2439   -6665.0665    15.462433    13.390899    26.911703    5572.2261 
   49000       48.986    332.93953    13.685388   -446.82771   -433.14232   -6412.3802   -4379.2344   -6038.4563   -8819.4499    15.462435    13.390901    26.911685    5572.2242 
   49500       49.486    332.98782    13.687373   -446.81277   -433.12539    -6019.082   -7222.9644   -5746.8615   -5087.4202    15.462438    13.390903    26.911668    5572.2223 
   50000       49.986    338.66906    13.920899   -447.02818   -433.10728   -6975.4805   -8118.1444   -6120.9745   -6687.3224     15.46244    13.390905     26.91165    5572.2204 
   50500       50.486     313.2169    12.874695   -445.96431   -433.08962   -6291.0032   -7399.3398   -6821.0114   -4652.6585    15.462442    13.390907    26.911633    5572.2185 
   51000       50.986    329.21293    13.532207   -446.60447   -433.07227   -5992.1734   -6264.3994   -4399.3285   -7312.7922    15.462445    13.390909    26.911615    5572.2166 
   51500       51.486    324.71669    13.347391    -446.4011   -433.05371   -6461.5464   -6473.7131   -4601.5793   -8309.3468    15.462447    13.390911    26.911598    5572.2147 
   52000       51.986    318.18634    13.078963   -446.11494   -433.03597   -6389.9355   -5833.2154   -4231.9915   -9104.5996     15.46245    13.390913     26.91158    5572.2128 
   52500       52.486    329.62141    13.548998   -446.56779   -433.01879   -5420.6156   -6505.9711   -4489.9933   -5265.8824    15.462452    13.390915    26.911563    5572.2109 
   53000       52.986    324.70181    13.346779   -446.34808    -433.0013   -5724.0925   -6074.1039   -2458.7933   -8639.3805    15.462454    13.390917    26.911545     5572.209 
   53500       53.486    313.36354    12.880723   -445.86487   -432.98415   -5949.0985    -6085.398   -3553.1259   -8208.7715    15.462457    13.390919    26.911528    5572.2071 
   54000       53.986    323.78608    13.309138   -446.27598   -432.96684   -5769.6545   -5593.7042   -3234.5351   -8480.7242    15.462459    13.390921     26.91151    5572.2052 
   54500       54.486    336.93728    13.849715   -446.79952    -432.9498   -5725.4502   -4534.7025   -2137.8076   -10503.841    15.462462    13.390923    26.911493    5572.2033 
   55000       54.986    333.02057    13.688719   -446.62167   -432.93295   -6395.3804   -6547.4911   -2783.3839   -9855.2662    15.462464    13.390925    26.911475    5572.2014 
   55500       55.486    341.11435    14.021412   -446.93737   -432.91596   -6555.4726   -8131.6301   -3303.3618    -8231.426    15.462466    13.390927    26.911458    5572.1994 
   56000       55.986    351.20086    14.436015   -447.33539   -432.89938   -6954.2635   -6679.9932   -6243.0778   -7939.7195    15.462469     13.39093     26.91144    5572.1975 
   56500       56.486    326.16358    13.406865   -446.28897   -432.88211   -7082.5694   -7597.1394   -5542.0931   -8108.4757    15.462471    13.390932    26.911423    5572.1956 
   57000       56.986    318.15382    13.077625   -445.94325   -432.86563   -6184.4979   -6743.5401   -2830.4839   -8979.4697    15.462474    13.390934    26.911405    5572.1937 
   57500       57.486     312.6293    12.850542   -445.69999   -432.84945   -6162.2802   -5570.9266   -5036.1596   -7879.7544    15.462476    13.390936    26.911388    5572.1918 
   58000       57.986    331.02706    13.606776   -446.44071   -432.83393   -5437.0243    -6750.251    -3874.048   -5686.7738    15.462478    13.390938     26.91137    5572.1899 
   58500       58.486    334.38226    13.744691   -446.56147   -432.81678   -5925.5391   -6882.4091     -3502.49   -7391.7182    15.462481     13.39094    26.911353     5572.188 
   59000       58.986    348.60008    14.329111      -447.13   -432.80089   -7070.1767   -8057.8082   -3580.2194   -9572.5027    15.462483    13.390942    26.911335    5572.1861 
   59500       59.486    335.64032    13.796403   -446.58087   -432.78447   -5102.1375   -5908.7459   -1642.9743   -7754.6923    15.462486    13.390944    26.911318    5572.1842 
   60000       59.986    323.51434    13.297969   -446.06567    -432.7677   -7473.4326   -7913.7213   -5292.5257   -9214.0507    15.462488    13.390946      26.9113    5572.1823 
   60500       60.486    320.70902    13.182656   -445.93442   -432.75177   -5190.0581   -7308.1484   -3526.6332   -4735.3925     15.46249    13.390948    26.911283    5572.1804 
   61000       60.986    322.22765    13.245079   -445.98076   -432.73568   -6175.5201   -7979.9943   -2974.0444   -7572.5218    15.462493     13.39095    26.911265    5572.1785 
   61500       61.486    341.79602    14.049432    -446.7692   -432.71977   -6981.7812   -8165.3109   -7098.3112   -5681.7215    15.462495    13.390952    26.911248    5572.1766 
   62000       61.986    325.14462     13.36498   -446.06868    -432.7037   -5904.3387   -7228.0545   -4668.4417   -5816.5198    15.462498    13.390954     26.91123    5572.1747 
   62500       62.486    337.02834    13.853458   -446.54119   -432.68774   -6309.2276   -7886.3497   -3042.1128   -7999.2204      15.4625    13.390956    26.911213    5572.1728 
   63000       62.986    313.10913    12.870265    -445.5422   -432.67194   -5538.9453   -5228.3577   -3582.7177   -7805.7606    15.462502    13.390958    26.911195    5572.1709 
   63500       63.486    331.92142    13.643539   -446.29983   -432.65629   -4731.0966   -4769.4105   -4146.0215   -5277.8578    15.462505     13.39096    26.911178     5572.169 
   64000       63.986    353.26381    14.520812   -447.16157   -432.64076    -7284.125   -10204.334   -700.71368   -10947.327    15.462507    13.390962     26.91116    5572.1671 
   64500       64.486    338.08307    13.896812   -446.52125   -432.62444   -4778.7653   -8797.7847   -1776.2206   -3762.2904     15.46251    13.390964    26.911143    5572.1651 
   65000       64.986    345.54686    14.203609   -446.81272   -432.60911   -6812.7872    -5430.451    -4682.579   -10325.332    15.462512    13.390966    26.911125    5572.1632 
   65500       65.486    354.05415    14.553299   -447.14701   -432.59371   -7560.6933   -11328.558   -2290.1238    -9063.398    15.462514    13.390968    26.911108    5572.1613 
   66000       65.986    326.97351    13.440157   -446.01738   -432.57722    -6886.658     -8954.24   -3326.7924   -8378.9416    15.462517    13.390971     26.91109    5572.1594 
   66500       66.486    340.78708    14.007959   -446.56987   -432.56191   -6530.5879   -7237.0483   -2979.4346   -9375.2806    15.462519    13.390973    26.911073    5572.1575 
   67000       66.986    319.53142    13.134252   -445.68095    -432.5467   -5202.9409   -6125.3695   -618.42031    -8865.033    15.462522    13.390975    26.911055    5572.1556 
   67500       67.486    326.45688    13.418921   -445.94965   -432.53073   -5667.7317   -7204.9401   -2164.9002   -7633.3548    15.462524    13.390977    26.911038    5572.1537 
   68000       67.986    336.87401    13.847114   -446.36239   -432.51527   -6396.8385   -9218.0597   -1956.7637    -8015.692    15.462526    13.390979     26.91102    5572.1518 
   68500       68.486    329.04691    13.525383   -446.02446   -432.49907   -6297.4342   -6418.7375   -5167.8959   -7305.6692    15.462529    13.390981    26.911003    5572.1499 
   69000       68.986    344.40576    14.156704   -446.64003   -432.48332     -6418.97   -6640.4168   -1551.1958   -11065.297    15.462531    13.390983    26.910985     5572.148 
   69500       69.486    345.06799    14.183925     -446.652   -432.46808   -6534.7556   -9315.2137   -3815.0703   -6473.9828    15.462534    13.390985    26.910968    5572.1461 
   70000       69.986    335.80303    13.803091    -446.2555   -432.45241   -6342.5583   -6417.7074   -5166.8613   -7443.1063    15.462536    13.390987     26.91095    5572.1442 
   70500       70.486    338.56524    13.916632   -446.35315   -432.43652   -5841.1778   -7252.9881   -4657.1039   -5613.4414    15.462538    13.390989    26.910933    5572.1423 
   71000       70.986    328.57009    13.505784   -445.92637   -432.42058   -5131.1203   -6409.2655   -1835.5594    -7148.536    15.462541    13.390991    26.910915    5572.1404 
   71500       71.486    345.57026    14.204571    -446.6092   -432.40463   -6650.5979   -8763.6051   -3786.5061   -7401.6827    15.462543    13.390993    26.910898    5572.1385 
   72000       71.986     341.0505    14.018787   -446.40767   -432.38888   -6927.5984   -10462.062   -3056.3632   -7264.3699    15.462546    13.390995     26.91088    5572.1366 
   72500       72.486    330.65937    13.591663   -445.96458   -432.37292    -5766.849    -6624.775   -1747.9692   -8927.8028    15.462548    13.390997    26.910863    5572.1347 
   73000       72.986    326.66849    13.427619   -445.78441   -432.35679   -5254.7339   -6858.5512     -5285.33   -3620.3205     15.46255    13.390999    26.910845    5572.1328 
   73500       73.486    342.74105    14.088277   -446.42973   -432.34146   -6979.2505   -7687.3717   -5050.6972   -8199.6826    15.462553    13.391001    26.910828    5572.1308 
   74000       73.986    335.61836    13.795501    -446.1208    -432.3253    -6112.517   -4324.7641    -4941.378   -9071.4089    15.462555    13.391003     26.91081    5572.1289 
   74500       74.486    344.94922    14.179043   -446.48862   -432.30958   -6255.5879   -5811.6539   -4262.3405   -8692.7693    15.462558    13.391005    26.910793     5572.127 
   75000       74.986    327.42103    13.458552   -445.75195   -432.29339    -6171.334   -6762.5309   -1960.1063   -9791.3649     15.46256    13.391007    26.910775    5572.1251 
   75500       75.486    355.81375    14.625627    -446.9034   -432.27778   -6341.4758   -9254.6031   -2679.1009   -7090.7236    15.462562    13.391009    26.910758    5572.1232 
   76000       75.986      347.894    14.300088   -446.56132   -432.26123   -6337.4092   -8345.2208   -2677.3836   -7989.6232    15.462565    13.391012     26.91074    5572.1213 
   76500       76.486    361.61085    14.863915   -447.10919   -432.24527   -6487.7956   -8154.1114   -3027.2507   -8282.0247    15.462567    13.391014    26.910723    5572.1194 
   77000       76.986     358.2725    14.726693    -446.9549    -432.2282   -5607.8385   -8215.3633   -511.00016   -8097.1522     15.46257    13.391016    26.910705    5572.1175 
   77500       77.486    348.32796    14.317925   -446.53031   -432.21238   -5991.4537   -8396.0962   -1957.0568   -7621.2081    15.462572    13.391018    26.910688    5572.1156 
   78000       77.986    347.92148    14.301217   -446.49696   -432.19574   -5447.3339   -8150.0017   -2742.4477   -5449.5523    15.462574     13.39102     26.91067    5572.1137 
   78500       78.486    343.39454    14.115138   -446.29451   -432.17937   -6663.0462   -6595.2711   -5173.3763   -8220.4911    15.462577    13.391022    26.910653    5572.1118 
   79000       78.986    352.16214    14.475528   -446.63804   -432.16251   -7376.8907    -8761.613   -3933.9826   -9435.0766    15.462579    13.391024    26.910635    5572.1099 
   79500       79.486    338.97056    13.933292   -446.07877   -432.14548   -6214.1219   -7509.4478   -3798.8232   -7334.0946    15.462582    13.391026    26.910618     5572.108 
   80000       79.986    347.96875     14.30316   -446.43195   -432.12879   -5642.0427   -7323.2874   -1621.5277    -7981.313    15.462584    13.391028      26.9106    5572.1061 
   80500       80.486    340.45429     13.99428   -446.10626   -432.11198   -6030.7889    -6959.824   -2774.2784   -8358.2644    15.462586     13.39103    26.910583    5572.1042 
   81000       80.986    355.57265    14.615717    -446.7116   -432.09588   -5865.0098   -6311.3375   -3883.9973   -7399.6947    15.462589    13.391032    26.910565    5572.1023 
   81500       81.486    347.95093    14.302428     -446.381   -432.07858   -4966.0166    -5166.449   -2806.2196   -6925.3814    15.462591    13.391034    26.910548    5572.1004 
   82000       81.986    353.37326    14.525311    -446.5871   -432.06178   -5877.5388   -5362.4991   -2977.6589   -9292.4585    15.462594    13.391036     26.91053    5572.0984 
   82500       82.486    334.69678     13.75762    -445.8018   -432.04418   -6956.5086   -10101.837   -3001.1316   -7766.5576    15.462596    13.391038    26.910513    5572.0965 
   83000       82.986    307.19803    12.627291     -444.654   -432.02671   -4932.3839   -8170.8151   -2163.2986   -4463.0381    15.462598     13.39104    26.910495    5572.0946 
   83500       83.486    353.24717    14.520128   -446.53059   -432.01046   -5379.8043   -7071.3394    -2122.623   -6945.4505    15.462601    13.391042    26.910478    5572.0927 
   84000       83.986    333.86207    13.723309    -445.7158   -431.99249   -6868.0429   -9189.2244   -2073.5088   -9341.3955    15.462603    13.391044     26.91046    5572.0908 
   84500       84.486    339.56932    13.957904    -445.9331    -431.9752   -6274.8633   -8312.7514   -754.17405   -9757.6643    15.462606    13.391046    26.910443    5572.0889 
   85000       84.986    337.53044    13.874096   -445.83166   -431.95756   -5711.4034   -7031.9901   -3457.7558   -6644.4642    15.462608    13.391048    26.910425     5572.087 
   85500       85.486    337.31084     13.86507   -445.80503   -431.93997   -6022.0678   -4355.4967   -7657.6158   -6053.0909     15.46261     13.39105    26.910408    5572.0851 
   86000       85.986    333.76971    13.719513   -445.64145   -431.92193   -5373.5778   -7140.2055   -3104.6455   -5875.8824    15.462613    13.391053     26.91039    5572.0832 
   86500       86.486    343.65885    14.126003   -446.03085   -431.90484   -6420.8373   -8214.3482   -2382.8177    -8665.346    15.462615    13.391055    26.910373    5572.0813 
   87000       86.986    343.58848     14.12311   -446.00987   -431.88676   -5429.4955   -4567.6015   -6296.4797   -5424.4053    15.462618    13.391057    26.910355    5572.0794 
   87500       87.486     357.8472    14.709211   -446.57832   -431.86911   -6590.6481   -8292.2639   -3092.3877   -8387.2927     15.46262    13.391059    26.910338    5572.0775 
   88000       87.986     340.8378    14.010045   -445.86035    -431.8503   -6304.2653   -9294.3173   -5482.8317    -4135.647    15.462622    13.391061     26.91032    5572.0756 
   88500       88.486    340.49514     13.99596   -445.82839   -431.83243    -5351.502   -5904.7116   -3149.8537   -6999.9406    15.462625    13.391063    26.910303    5572.0737 
   89000       88.986    347.53479    14.285323   -446.09925   -431.81393   -4417.3641   -7189.2075   -3205.7943   -2857.0904    15.462627    13.391065    26.910285    5572.0718 
   89500       89.486    368.19053    15.134371   -446.93085   -431.79648   -5666.5121   -8181.2184   -3116.2847   -5702.0331     15.46263    13.391067    26.910268    5572.0699 
   90000       89.986    361.96377    14.878422   -446.65568   -431.77726   -5770.1889    -8247.277   -3155.1527   -5908.1369    15.462632    13.391069     26.91025     5572.068 
   90500       90.486    331.50656    13.626486     -445.386   -431.75951    -5642.055    -7245.604   -2771.0345   -6909.5265    15.462634    13.391071    26.910233    5572.0661 
   91000       90.986    354.75103    14.581944   -446.32251   -431.74056   -5612.9352   -7286.9386   -1924.3541    -7627.513    15.462637    13.391073    26.910215    5572.0641 
   91500       91.486    350.24509    14.396729   -446.11836   -431.72163   -5710.7274    -8761.619   -3621.5004   -4749.0627    15.462639    13.391075    26.910198    5572.0622 
   92000       91.986    348.10147    14.308616   -446.01209   -431.70348   -4995.3296   -7624.3813    9.8653587   -7371.4728    15.462642    13.391077     26.91018    5572.0603 
   92500       92.486    342.82183    14.091597   -445.77627   -431.68468   -5618.0487    -4693.241   -2951.5571   -9209.3481    15.462644    13.391079    26.910163    5572.0584 
   93000       92.986    343.73652    14.129196   -445.79434   -431.66515   -6288.5324   -8154.0697   -4622.7545   -6088.7729    15.462646    13.391081    26.910145    5572.0565 
   93500       93.486    355.41972     14.60943   -446.25577   -431.64634   -6655.7262   -7835.7101    -3615.161   -8516.3075    15.462649    13.391083    26.910128    5572.0546 
   94000       93.986    342.69558    14.086408   -445.71362   -431.62721   -5401.6218   -5243.3456   -4009.5332   -6951.9867    15.462651    13.391085     26.91011    5572.0527 
   94500       94.486     332.1718    13.653831   -445.26213    -431.6083   -3745.4509   -4915.4339    -3159.796   -3161.1228    15.462654    13.391087    26.910093    5572.0508 
   95000       94.986    353.99056    14.550685   -446.14003   -431.58934   -5138.3622   -4658.7461    -4464.649   -6291.6913    15.462656    13.391089    26.910075    5572.0489 
   95500       95.486    347.78491    14.295604   -445.86509   -431.56949   -5442.9866   -5844.9774   -5129.9292   -5354.0533    15.462658    13.391091    26.910058     5572.047 
   96000       95.986    335.49433    13.790403    -445.3405    -431.5501   -5489.7002   -7311.1756   -2467.3235   -6690.6015    15.462661    13.391094     26.91004    5572.0451 
   96500       96.486    331.82956    13.639763   -445.16984   -431.53008   -5272.6275    -5506.469   -4501.0622   -5810.3512    15.462663    13.391096    26.910023    5572.0432 
   97000       96.986    355.33205    14.605827   -446.11615   -431.51033   -4400.2704   -5951.5851   -3439.8947   -3809.3314    15.462666    13.391098    26.910005    5572.0413 
   97500       97.486    345.89236    14.217811   -445.70844   -431.49063   -4906.5829   -8118.8545    -925.0707   -5675.8235    15.462668      13.3911    26.909988    5572.0394 
   98000       97.986    359.54658    14.779064   -446.25004   -431.47097    -5929.412   -5444.6626   -3967.8378   -8375.7357     15.46267    13.391102     26.90997    5572.0375 
   98500       98.486    363.23352    14.930614   -446.38201   -431.45139   -5827.8251   -5536.8555   -5489.8625   -6456.7573    15.462673    13.391104    26.909953    5572.0356 
   99000       98.986    315.54372    12.970338   -444.40005   -431.42971   -4819.9853   -5186.3132   -1537.1637   -7736.4791    15.462675    13.391106    26.909935    5572.0337 
   99500       99.486    329.86875    13.559165   -444.96955   -431.41038   -4762.2712   -7338.6771   -685.90111   -6262.2354    15.462678    13.391108    26.909918    5572.0317 
  100000       99.986    349.39604    14.361828   -445.75261   -431.39078   -5548.8005   -5882.6934    -3796.241   -6967.4671     15.46268     13.39111      26.9099    5572.0298 
  100500      100.486    337.89178    13.888949   -445.25896   -431.37001   -5525.1332   -5014.4485    -2728.365    -8832.586    15.462682    13.391112    26.909883    5572.0279 
  101000      100.986    351.26194    14.438526   -445.78831   -431.34978   -5266.8323   -6136.8924   -1088.1669   -8575.4376    15.462685    13.391114    26.909865     5572.026 
  101500      101.486    345.55553    14.203965    -445.5335   -431.32953   -6173.4045   -9437.3025   -3611.3565   -5471.5544    15.462687    13.391116    26.909848    5572.0241 
  102000      101.986    331.27326    13.616897   -444.92651   -431.30961   -4481.1507   -6254.3422   -2223.8486   -4965.2614     15.46269    13.391118     26.90983    5572.0222 
  102500      102.486    346.51178    14.243272   -445.53192   -431.28864   -4353.7927   -5250.1366   -2520.7047   -5290.5367    15.462692     13.39112    26.909813    5572.0203 
  103000      102.986    361.12681    14.844019   -446.11266   -431.26865   -5734.9354   -6872.1881   -3256.0205   -7076.5977    15.462694    13.391122    26.909795    5572.0184 
  103500      103.486    364.42546    14.979609   -446.22771    -431.2481   -5651.6089    -6759.111   -4435.5287   -5760.1871    15.462697    13.391124    26.909778    5572.0165 
  104000      103.986     344.4059     14.15671   -445.38347   -431.22676   -6156.0369    -8537.945   -3200.7825   -6729.3832    15.462699    13.391126     26.90976    5572.0146 
  104500      104.486    352.16552    14.475667   -445.68167   -431.20601   -6397.2579    -10035.09    -1766.001   -7390.6831    15.462702    13.391128    26.909743    5572.0127 
  105000      104.986    355.92461    14.630184   -445.81533   -431.18514    -5407.757   -6011.1016     -4103.81   -6108.3595    15.462704     13.39113    26.909725    5572.0108 
  105500      105.486    351.12434     14.43287   -445.59777    -431.1649   -5019.3558   -5141.4388   -3379.5948   -6537.0337    15.462706    13.391132    26.909708    5572.0089 
  106000      105.986    354.51145    14.572096   -445.71583   -431.14373   -5579.8641   -5145.1986   -3908.7259   -7685.6678    15.462709    13.391135     26.90969     5572.007 
  106500      106.486    345.09032    14.184843   -445.30705   -431.12221   -5421.6661   -7698.4363   -1980.4635   -6586.0984    15.462711    13.391137    26.909673    5572.0051 
  107000      106.986    333.91749    13.725587   -444.82559       -431.1   -3877.5391     -6348.15   -1351.9677   -3932.4996    15.462714    13.391139    26.909655    5572.0032 
  107500      107.486    355.00227    14.592271   -445.67208   -431.07981   -4757.2956   -7270.0928    64.710225   -7066.5043    15.462716    13.391141    26.909638    5572.0013 
  108000      107.986    353.84177    14.544569   -445.60314   -431.05857   -4734.7585   -5391.7718    -3562.771   -5249.7328    15.462718    13.391143     26.90962    5571.9994 
  108500      108.486    353.30788    14.522624   -445.55906   -431.03644   -6220.4856     -8390.53   -5142.1013   -5128.8255    15.462721    13.391145    26.909603    5571.9974 
  109000      108.986    346.58543    14.246299   -445.26085   -431.01455   -5010.2587   -5150.4741   -5353.6362   -4526.6658    15.462723    13.391147    26.909585    5571.9955 
  109500      109.486    352.50815    14.489751   -445.48286   -430.99311   -5189.9113   -8542.8141    -1628.447   -5398.4728    15.462726    13.391149    26.909568    5571.9936 
  110000      109.986    387.25328     15.91794   -446.89048   -430.97254   -5480.1098   -6798.6084   -4095.6673   -5546.0538    15.462728    13.391151     26.90955    5571.9917 
  110500      110.486    373.81033    15.365371   -446.31617   -430.95079    -4618.086   -6003.7527   -4029.1685   -3821.3369     15.46273    13.391153    26.909533    5571.9898 
  111000      110.986    335.34783    13.784381   -444.71283   -430.92845   -4859.3351   -4076.1439    -4596.729   -5905.1324    15.462733    13.391155    26.909515    5571.9879 
  111500      111.486    378.18256    15.545091    -446.4529   -430.90781   -5781.3091   -7811.8997   -3956.2283   -5575.7992    15.462735    13.391157    26.909498     5571.986 
  112000      111.986    363.50938    14.941954   -445.82757   -430.88562   -4528.2379   -5519.3585   -2572.6659   -5492.6893    15.462738    13.391159     26.90948    5571.9841 
  112500      112.486    353.83329     14.54422   -445.40815   -430.86393   -4430.1894   -4493.1718   -3006.2371   -5791.1592     15.46274    13.391161    26.909463    5571.9822 
  113000      112.986    344.63923    14.166301   -445.00818   -430.84188   -3513.3535   -5554.0642   -2170.4005   -2815.5959    15.462742    13.391163    26.909445    5571.9803 
  113500      113.486    350.87011     14.42242   -445.24269   -430.82027   -5184.1908    -7059.088   -6623.5076   -1869.9767    15.462745    13.391165    26.909428    5571.9784 
  114000      113.986    357.10573    14.678733    -445.4764   -430.79766   -5224.8767   -4185.3551   -4972.8367   -6516.4383    15.462747    13.391167     26.90941    5571.9765 
  114500      114.486    347.73914    14.293722   -445.07025   -430.77652   -4259.2316   -6184.5712   -2763.6205    -3829.503     15.46275    13.391169    26.909393    5571.9746 
  115000      114.986    359.36201    14.771477   -445.52577   -430.75429   -5827.5875   -5578.0628   -5300.8052   -6603.8946    15.462752    13.391171    26.909375    5571.9727 
  115500      115.486    344.45922    14.158902   -444.89049   -430.73159   -5355.8196   -5624.6357   -2218.8414   -8223.9819    15.462754    13.391173    26.909358    5571.9708 
  116000      115.986    346.41969    14.239487   -444.94909   -430.70961   -4224.4538   -5968.1042   -2061.3607   -4643.8965    15.462757    13.391176     26.90934    5571.9689 
  116500      116.486     371.2267    15.259172   -445.94712   -430.68795   -5405.2126   -7396.0191   -3138.0379   -5681.5808    15.462759    13.391178    26.909323     5571.967 
  117000      116.986    371.46548    15.268987   -445.93506   -430.66608     -4851.13   -5099.2758   -2820.9398   -6633.1743    15.462762     13.39118    26.909305     5571.965 
  117500      117.486    366.85532    15.079488   -445.72259    -430.6431   -4027.5276    -5218.041   -3897.9746   -2966.5672    15.462764    13.391182    26.909288    5571.9631 
  118000      117.986    365.22096    15.012308   -445.63253   -430.62022   -4803.0866   -6339.5887   -4217.7336   -3851.9375    15.462766    13.391184     26.90927    5571.9612 
  118500      118.486    335.27111    13.781227   -444.37886   -430.59764   -5371.5033   -10196.651   -3709.7245   -2208.1347    15.462769    13.391186    26.909253    5571.9593 
  119000      118.986    359.99212    14.797378   -445.37281   -430.57543   -4263.5018   -5704.9181   -3565.3552   -3520.2321    15.462771    13.391188    26.909235    5571.9574 
  119500      119.486    373.13136    15.337463   -445.89057   -430.55311   -5850.1722   -6257.4254   -5644.5859   -5648.5052    15.462774     13.39119    26.909218    5571.9555 
  120000      119.986    358.61091    14.740603   -445.27122   -430.53062    -5650.472    -7578.294   -2911.0385   -6462.0837    15.462776    13.391192      26.9092    5571.9536 
  120500      120.486    355.18369    14.599728   -445.10733    -430.5076   -5178.8278   -7358.9592    496.17153   -8673.6956    15.462778    13.391194    26.909183    5571.9517 
  121000      120.986    348.75497    14.335478   -444.82066   -430.48519   -4061.0977   -2731.0488   -3551.4331   -5900.8113    15.462781    13.391196    26.909165    5571.9498 
  121500      121.486     369.4322    15.185409   -445.64836   -430.46296   -4945.4615   -5771.9779   -4394.9646    -4669.442    15.462783    13.391198    26.909148    5571.9479 
  122000      121.986    385.75182    15.856223   -446.29635   -430.44013   -4709.0506   -5174.2078   -2447.3181    -6505.626    15.462786      13.3912     26.90913     5571.946 
  122500      122.486    374.67409    15.400876   -445.81767   -430.41679   -4374.7604    -6608.684   -3789.4703    -2726.127    15.462788    13.391202    26.909113    5571.9441 
  123000      122.986    365.51166    15.024256   -445.41781   -430.39355   -4459.2458   -4816.9257   -2236.0003   -6324.8115     15.46279    13.391204    26.909095    5571.9422 
  123500      123.486    352.34882    14.483202   -444.85375   -430.37055   -4655.5447   -4724.2287   -2395.3771   -6847.0284    15.462793    13.391206    26.909078    5571.9403 
  124000      123.986     370.5264    15.230386   -445.57834   -430.34795   -4161.0518   -3201.5461   -4835.7286   -4445.8807    15.462795    13.391208     26.90906    5571.9384 
  124500      124.486    376.93214    15.493692   -445.81887   -430.32518   -6126.9502   -7085.8263   -1301.7904   -9993.2339    15.462798     13.39121    26.909043    5571.9365 
  125000      124.986    352.63065    14.494786   -444.79651   -430.30173   -5193.1243   -4920.9223   -6867.6712   -3790.7793      15.4628    13.391212    26.909025    5571.9346 
  125500      125.486    357.86951    14.710128   -444.98911   -430.27898   -5502.8998    -8073.003   -1395.9137   -7039.7827    15.462802    13.391214    26.909008    5571.9326 
  126000      125.986    361.93246    14.877135    -445.1331   -430.25597   -5378.4554   -6826.6732   -4499.1033   -4809.5898    15.462805    13.391217     26.90899    5571.9307 
  126500      126.486    349.16169    14.352196   -444.58547   -430.23327    -4423.277   -7000.0477      437.957   -6707.7402    15.462807    13.391219    26.908973    5571.9288 
  127000      126.986    366.21309    15.053089   -445.26432   -430.21123   -5383.0251   -4532.8839    -5425.887   -6190.3044     15.46281    13.391221    26.908955    5571.9269 
  127500      127.486    358.12321    14.720556   -444.90828   -430.18773   -3734.6636   -3549.1587    -3116.741    -4538.091    15.462812    13.391223    26.908938     5571.925 
  128000      127.986    368.77504    15.158397     -445.323   -430.16461   -4015.0738   -4943.3411   -325.72785   -6776.1525    15.462814    13.391225     26.90892    5571.9231 
  128500      128.486    377.32013     15.50964   -445.65106   -430.14142   -5405.2438   -6994.0288   -2842.7328   -6378.9698    15.462817    13.391227    26.908903    5571.9212 
  129000      128.986    389.18104     15.99718   -446.11499   -430.11781   -5837.3432   -7314.9871   -4406.4728   -5790.5697    15.462819    13.391229    26.908885    5571.9193 
  129500      129.486    371.20179    15.258148   -445.35242   -430.09427   -5107.5344   -6518.8274   -3166.8925   -5636.8832    15.462822    13.391231    26.908868    5571.9174 
  130000      129.986    348.14735    14.310501   -444.38129   -430.07079    -4005.481   -4486.1808   -1362.6243   -6167.6378    15.462824    13.391233     26.90885    5571.9155 
  130500      130.486    389.86221    16.025179   -446.07339   -430.04822   -4967.7773   -5485.2329   -6022.0713   -3396.0277    15.462826    13.391235    26.908833    5571.9136 
  131000      130.986    359.54326    14.778927    -444.8035   -430.02457   -5669.1765   -7746.9035   -2780.6786   -6479.9473    15.462829    13.391237    26.908815    5571.9117 
  131500      131.486    359.03931    14.758212   -444.75953   -430.00131   -4868.5836   -5984.7848   -4081.2984   -4539.6677    15.462831    13.391239    26.908798    5571.9098 
  132000      131.986    365.89473    15.040003     -445.018     -429.978   -5652.5653   -4334.4582   -4335.9533   -8287.2843    15.462834    13.391241     26.90878    5571.9079 
  132500      132.486    367.06482    15.088099   -445.04277   -429.95467   -4647.2772   -7147.0117   -2319.2652   -4475.5547    15.462836    13.391243    26.908763     5571.906 
  133000      132.986    366.30313     15.05679   -444.98833   -429.93154   -5242.1515   -5511.5186    -4772.489   -5442.4469    15.462838    13.391245    26.908745    5571.9041 
  133500      133.486    376.01689    15.456071   -445.36418    -429.9081    -4617.289   -6269.1939   -3476.7387   -4105.9343    15.462841    13.391247    26.908728    5571.9022 
  134000      133.986    375.44768    15.432674    -445.3173   -429.88463   -4463.2635   -3690.9399    -5101.374   -4597.4766    15.462843    13.391249     26.90871    5571.9002 
  134500      134.486    363.70111    14.949835   -444.81041   -429.86058   -5567.8865   -5984.2358   -4867.9537   -5851.4699    15.462846    13.391251    26.908693    5571.8983 
  135000      134.986     369.2003    15.175877   -445.01318    -429.8373    -3822.738   -6464.0164     298.5329   -5302.7306    15.462848    13.391253    26.908675    5571.8964 
  135500      135.486    377.87931    15.532625   -445.34611   -429.81348   -5234.2523    -7506.317    -3162.834   -5033.6059     15.46285    13.391255    26.908658    5571.8945 
  136000      135.986    380.70942    15.648956   -445.43902   -429.79006   -4707.9215   -6411.5805   -1115.5688   -6596.6153    15.462853    13.391258     26.90864    5571.8926 
  136500      136.486    371.77036    15.281519   -445.04801   -429.76649   -4567.3008    -5366.324   -1691.5655    -6644.013    15.462855     13.39126    26.908623    5571.8907 
  137000      136.986    365.92475    15.041237   -444.78387   -429.74263    -2920.333   -3539.9574   -2865.1234   -2355.9181    15.462858    13.391262    26.908605    5571.8888 
  137500      137.486     377.0091    15.496856   -445.21626    -429.7194   -4821.1387   -4715.0313   -2659.5246     -7088.86     15.46286    13.391264    26.908588    5571.8869 
  138000      137.986    368.12554      15.1317   -444.82687   -429.69517   -5514.2237   -7007.0712   -3233.7267   -6301.8733    15.462862    13.391266     26.90857     5571.885 
  138500      138.486    354.42695    14.568623   -444.23942    -429.6708   -4329.7931   -6759.7861   -1957.2371   -4272.3563    15.462865    13.391268    26.908553    5571.8831 
  139000      138.986    385.63203    15.851299   -445.49834   -429.64704   -4685.9529   -5212.6928   -2590.5136   -6254.6523    15.462867     13.39127    26.908535    5571.8812 
  139500      139.486    362.42188    14.897252    -444.5208   -429.62355    -3623.945   -6888.5694   -2336.5443   -1646.7213     15.46287    13.391272    26.908518    5571.8793 
  140000      139.986    359.32014    14.769756   -444.36951   -429.59976   -3542.0514   -6162.8239    258.83258   -4722.1628    15.462872    13.391274      26.9085    5571.8774 
  140500      140.486    356.00864    14.633638   -444.20869   -429.57505   -5256.3134   -5378.5139   -1499.8352    -8890.591    15.462874    13.391276    26.908483    5571.8755 
  141000      140.986    388.44293     15.96684   -445.51901   -429.55217   -4544.3794    -4355.468   -5047.0038   -4230.6665    15.462877    13.391278    26.908465    5571.8736 
  141500      141.486    361.88985    14.875383   -444.40274   -429.52736   -4810.0088   -8728.3433    484.79017   -6186.4732    15.462879     13.39128    26.908448    5571.8717 
  142000      141.986     377.4353    15.514375   -445.01851   -429.50414   -5007.2642   -8779.4042   -3272.6899   -2969.6985    15.462882    13.391282     26.90843    5571.8698 
  142500      142.486    360.20809    14.806255   -444.28612   -429.47987   -4360.8292   -6448.7775   -1364.7378   -5268.9724    15.462884    13.391284    26.908413    5571.8678 
  143000      142.986    391.55184    16.094631   -445.55038   -429.45575   -5196.8295   -6266.9813   -3879.3705   -5444.1366    15.462886    13.391286    26.908395    5571.8659 
  143500      143.486    363.18485    14.928614   -444.36015   -429.43153    -4595.947   -8125.3115    -966.7117   -4695.8177    15.462889    13.391288    26.908378     5571.864 
  144000      143.986    365.06507      15.0059   -444.41289   -429.40699   -4506.1247   -5302.7726   -3133.1503   -5082.4513    15.462891     13.39129     26.90836    5571.8621 
  144500      144.486    398.86525    16.395247    -445.7786   -429.38335   -5253.4843   -4133.0733   -3383.5265    -8243.853    15.462894    13.391292    26.908343    5571.8602 
  145000      144.986    395.14571    16.242356   -445.60166   -429.35931   -4369.3389   -5128.1295   -2676.1431   -5303.7443    15.462896    13.391294    26.908325    5571.8583 
  145500      145.486    380.18904    15.627566   -444.96209   -429.33452   -5629.9265   -7334.0201   -4010.0967   -5545.6628    15.462898    13.391296    26.908308    5571.8564 
  146000      145.986    373.10147    15.336234   -444.64651   -429.31027   -3265.5837   -4102.2106   -136.52731   -5558.0132    15.462901    13.391299     26.90829    5571.8545 
  146500      146.486    373.91582    15.369707   -444.65616   -429.28645   -4557.6396   -7201.3588    231.08147   -6702.6416    15.462903    13.391301    26.908273    5571.8526 
  147000      146.986    387.54086    15.929761   -445.19181   -429.26205   -5519.7906   -10774.434    196.77687   -5981.7149    15.462906    13.391303    26.908255    5571.8507 
  147500      147.486    360.91672    14.835383   -444.07261   -429.23722   -4044.7577   -6201.7347   -31.416953   -5901.1215    15.462908    13.391305    26.908238    5571.8488 
  148000      147.986    370.28066    15.220285   -444.43403   -429.21375    -4747.077   -8167.3724     -3063.78   -3010.0787     15.46291    13.391307     26.90822    5571.8469 
  148500      148.486    344.18984    14.147829   -443.33662   -429.18879   -3163.6644   -5420.6562   -1070.0084   -3000.3287    15.462913    13.391309    26.908203     5571.845 
  149000      148.986    393.24005    16.164025   -445.32971   -429.16568   -5744.5031   -9169.4326    -3319.735   -4744.3417    15.462915    13.391311    26.908185    5571.8431 
  149500      149.486    380.15131    15.626015   -444.76742   -429.14141   -4485.0507   -5102.4243   -509.34466   -7843.3832    15.462918    13.391313    26.908168    5571.8412 
  150000      149.986    370.05587    15.211045    -444.3268   -429.11576   -3899.9147   -7608.1438   -263.10932   -3828.4909     15.46292    13.391315     26.90815    5571.8393 
  150500      150.486    366.50919     15.06526   -444.15749   -429.09223   -4237.0018   -5165.3385    -4357.087   -3188.5799    15.462922    13.391317    26.908133    5571.8374 
  151000      150.986    380.49156    15.640002   -444.70715   -429.06715   -4337.4352    -5956.888   -1334.6998   -5720.7177    15.462925    13.391319    26.908115    5571.8354 
  151500      151.486    373.77115    15.363761   -444.40621   -429.04245    -5619.742     -7280.95   -344.97092    -9233.305    15.462927    13.391321    26.908098    5571.8335 
  152000      151.986    356.11304    14.637929   -443.65603    -429.0181   -3342.1135   -5129.7645   -1200.4961   -3696.0798     15.46293    13.391323     26.90808    5571.8316 
  152500      152.486    380.73505     15.65001   -444.64402   -428.99401   -4474.2149   -5805.8392   -3234.1403    -4382.665    15.462932    13.391325    26.908063    5571.8297 
  153000      152.986    373.98395    15.372508   -444.34198   -428.96947   -2926.8123   -5705.7241     832.1356   -3906.8483    15.462934    13.391327    26.908045    5571.8278 
  153500      153.486    378.26652    15.548542   -444.49344    -428.9449   -3367.2176   -2532.2418   -4273.2808   -3296.1302    15.462937    13.391329    26.908028    5571.8259 
  154000      153.986    378.94073    15.576255   -444.49607   -428.91981    -3263.002   -4103.4187   -1580.9778   -4104.6096    15.462939    13.391331     26.90801     5571.824 
  154500      154.486    377.83494    15.530802   -444.42633   -428.89553   -5198.8145   -5802.8951   -2471.3302    -7322.218    15.462942    13.391333    26.907993    5571.8221 
  155000      154.986    396.13233    16.282911   -445.15476   -428.87185   -5123.2016   -6613.7742   -557.40041   -8198.4301    15.462944    13.391335    26.907975    5571.8202 
  155500      155.486    384.49323    15.804489   -444.65165   -428.84716   -4745.9963   -6052.6514   -2142.6946    -6042.643    15.462946    13.391337    26.907958    5571.8183 
  156000      155.986    420.89512    17.300779   -446.12368    -428.8229    -4799.493   -4041.5392   -2868.3737   -7488.5662    15.462949     13.39134     26.90794    5571.8164 
  156500      156.486    381.34513    15.675087   -444.47344   -428.79836   -4429.8477   -4686.6674   -2431.2336   -6171.6423    15.462951    13.391342    26.907923    5571.8145 
  157000      156.986      369.369    15.182812   -443.95628   -428.77347   -3754.6765   -4483.3854   -1851.3838   -4929.2601    15.462954    13.391344    26.907905    5571.8126 
  157500      157.486    378.16975    15.544564   -444.29304   -428.74847   -4801.4724   -6560.8387   -1492.2257   -6351.3528    15.462956    13.391346    26.907888    5571.8107 
  158000      157.986    394.92275    16.233191     -444.957   -428.72381   -4113.7326   -6967.8371   -2212.5038    -3160.857    15.462958    13.391348     26.90787    5571.8088 
  158500      158.486    390.14173    16.036669   -444.73533   -428.69866   -4298.0504    -5447.118   -2892.8942   -4554.1392    15.462961     13.39135    26.907853    5571.8069 
  159000      158.986    399.02285    16.401725   -445.07607   -428.67435   -4995.1135   -5417.5914   -4566.0496   -5001.6995    15.462963    13.391352    26.907835     5571.805 
  159500      159.486    361.22672    14.848126   -443.49657   -428.64844   -3558.4079   -4765.0854    -2374.067   -3536.0712    15.462966    13.391354    26.907818     5571.803 
  160000      159.986    397.09698    16.322563   -444.94706    -428.6245    -4648.946    -7355.922   -813.86936   -5777.0465    15.462968    13.391356      26.9078    5571.8011 
  160500      160.486    363.75785    14.952167    -443.5512   -428.59904   -4164.3864   -6031.9344   -389.46201   -6071.7627     15.46297    13.391358    26.907783    5571.7992 
  161000      160.986    390.16598    16.037666   -444.61252   -428.57485   -4080.2416   -6288.3636   -447.78383   -5504.5773    15.462973     13.39136    26.907765    5571.7973 
  161500      161.486    362.43939    14.897972   -443.44736   -428.54939   -3957.2357   -6886.1309   -4177.5762   -808.00002    15.462975    13.391362    26.907748    5571.7954 
  162000      161.986    398.51981    16.381048   -444.90516   -428.52411   -4122.5601   -5175.5439     363.5871   -7555.7234    15.462978    13.391364     26.90773    5571.7935 
  162500      162.486    399.47494    16.420308   -444.91981    -428.4995   -4669.4517   -4926.6943   -2911.7937   -6169.8671     15.46298    13.391366    26.907713    5571.7916 
  163000      162.986    391.23826    16.081742   -444.55562   -428.47387   -4069.7748   -7855.6239   -125.92678   -4227.7736    15.462982    13.391368    26.907695    5571.7897 
  163500      163.486    410.50372    16.873643   -445.32378   -428.45013   -5495.5283   -4690.7078   -2892.0008   -8903.8762    15.462985     13.39137    26.907678    5571.7878 
  164000      163.986    347.59013    14.287597   -442.71124   -428.42365   -2064.8109   -4156.4653    113.72749   -2151.6949    15.462987    13.391372     26.90766    5571.7859 
  164500      164.486     384.3338    15.797936   -444.19717   -428.39923   -4495.6109   -6024.4478   -1463.4817   -5998.9031     15.46299    13.391374    26.907643     5571.784 
  165000      164.986    374.82792    15.407199   -443.78114   -428.37394   -3610.3625   -7020.1901   -1234.4897   -2576.4076    15.462992    13.391376    26.907625    5571.7821 
  165500      165.486    390.22899    16.040256   -444.38926     -428.349   -3719.8538   -4872.4341     122.7314   -6409.8588    15.462994    13.391378    26.907608    5571.7802 
  166000      165.986    392.75869    16.144238   -444.46804    -428.3238   -3357.1897   -5309.6779    1066.1981   -5828.0891    15.462997    13.391381     26.90759    5571.7783 
  166500      166.486    391.27675    16.083324   -444.38163   -428.29831   -3597.5059    -4779.139   -1121.0652   -4892.3134    15.462999    13.391383    26.907573    5571.7764 
  167000      166.986    394.18369    16.202813   -444.47515   -428.27234   -4101.8063   -3406.4377   -1303.5067   -7595.4746    15.463002    13.391385    26.907555    5571.7745 
  167500      167.486    371.09894     15.25392   -443.50104   -428.24712   -4934.9449    -5872.717   -1792.1135   -7140.0042    15.463004    13.391387    26.907538    5571.7726 
  168000      167.986    366.28887    15.056204   -443.27849   -428.22229   -3505.6592   -4514.0385   -749.19094   -5253.7483    15.463006    13.391389     26.90752    5571.7706 
  168500      168.486    404.09306    16.610134   -444.80761   -428.19748   -5151.9588   -5865.5417   -2116.4111   -7473.9237    15.463009    13.391391    26.907503    5571.7687 
  169000      168.986    409.34676    16.826086   -444.99798    -428.1719   -4452.8226   -8054.0752   -998.12282   -4306.2698    15.463011    13.391393    26.907485    5571.7668 
  169500      169.486     382.8726    15.737873   -443.88463   -428.14676   -3839.9114   -5609.8156   -1389.6485   -4520.2699    15.463014    13.391395    26.907468    5571.7649 
  170000      169.986    398.83569    16.394032   -444.51533   -428.12129    -3895.486   -7221.2736   -1632.0147   -2833.1698    15.463016    13.391397     26.90745     5571.763 
  170500      170.486    366.37044    15.059556   -443.15419   -428.09464   -3137.2228   -4028.7691   -2634.6058   -2748.2937    15.463018    13.391399    26.907433    5571.7611 
  171000      170.986    395.58381    16.260364   -444.33033   -428.06997   -3760.4815   -6084.4576   -2586.8495   -2610.1374    15.463021    13.391401    26.907415    5571.7592 
  171500      171.486    392.08168     16.11641   -444.16012   -428.04371   -4476.2553   -7356.2112   -3265.6181   -2806.9367    15.463023    13.391403    26.907398    5571.7573 
  172000      171.986    412.47278    16.954581   -444.97358     -428.019   -5599.1719   -8103.5376   -5023.9021   -3670.0759    15.463026    13.391405     26.90738    5571.7554 
  172500      172.486    398.91867    16.397443   -444.39048   -427.99304     -3598.16   -4688.9171   -4401.2379   -1704.3249    15.463028    13.391407    26.907363    5571.7535 
  173000      172.986    389.96234    16.029295   -443.99666   -427.96736   -3879.6292   -6011.0837   -1599.7183   -4028.0855     15.46303    13.391409    26.907345    5571.7516 
  173500      173.486    401.12257    16.488033   -444.42984    -427.9418   -4351.0252   -5256.4555   -4531.2964   -3265.3237    15.463033    13.391411    26.907328    5571.7497 
  174000      173.986    408.35302    16.785239   -444.70215   -427.91691   -5240.3713   -7626.9017   -1198.0575   -6896.1548    15.463035    13.391413     26.90731    5571.7478 
  174500      174.486    395.30363    16.248848   -444.13896   -427.89011   -4260.9917   -3695.9964   -3504.9533   -5582.0254    15.463038    13.391415    26.907293    5571.7459 
  175000      174.986    389.03228    15.991065   -443.85527    -427.8642   -3677.4518   -5838.4365   -1014.2682   -4179.6505     15.46304    13.391417    26.907275     5571.744 
  175500      175.486    383.23455    15.752751   -443.59145    -427.8387    -3181.626   -7506.3348    1827.4623   -3866.0054    15.463042    13.391419    26.907258    5571.7421 
  176000      175.986    405.87951    16.683566   -444.49692   -427.81336   -4571.7464   -7136.3571   -168.13174   -6410.7504    15.463045    13.391422     26.90724    5571.7401 
  176500      176.486    378.47412    15.557075   -443.34431   -427.78723   -2788.0666   -5801.1533    -733.1934   -1829.8531    15.463047    13.391424    26.907223    5571.7382 
  177000      176.986    389.80227    16.022716   -443.78299   -427.76028   -2701.3069   -6522.2418   -1843.4332    261.75442     15.46305    13.391426    26.907205    5571.7363 
  177500      177.486    395.24064    16.246258   -443.98099   -427.73473   -2755.9468   -6252.0718    50.848651   -2066.6173    15.463052    13.391428    26.907188    5571.7344 
  178000      177.986    397.34769    16.332868   -444.04245   -427.70958    -3870.191   -4449.1476   -2478.3745    -4683.051    15.463054     13.39143     26.90717    5571.7325 
  178500      178.486    404.68291     16.63438   -444.31768    -427.6833   -3533.5731   -6770.8243    271.27462   -4101.1698    15.463057    13.391432    26.907153    5571.7306 
  179000      178.986    397.11499    16.323303   -443.97988   -427.65658   -3574.2163   -2991.2379   -4193.1827   -3538.2283    15.463059    13.391434    26.907135    5571.7287 
  179500      179.486     402.4441    16.542355   -444.17334   -427.63099   -3610.2994   -3445.5111   -2822.3269   -4563.0603    15.463062    13.391436    26.907118    5571.7268 
  180000      179.986    382.23578    15.711697   -443.31689   -427.60519   -2918.4349   -4384.6927   -2467.9891   -1902.6229    15.463064    13.391438      26.9071    5571.7249 
  180500      180.486    376.33443    15.469124   -443.04863   -427.57951   -2692.7629   -4957.5683   -171.35506   -2949.3653    15.463066     13.39144    26.907083     5571.723 
  181000      180.986    401.86363    16.518495    -444.0729    -427.5544   -4116.9402   -5132.3334     381.9163   -7600.4035    15.463069    13.391442    26.907065    5571.7211 
  181500      181.486    388.88202    15.984889   -443.51254   -427.52765   -4536.6367    -6082.337   -3016.2046   -4511.3686    15.463071    13.391444    26.907048    5571.7192 
  182000      181.986      397.456     16.33732   -443.83948   -427.50216   -3679.0784   -3745.0279    1208.5051   -8500.7125    15.463074    13.391446     26.90703    5571.7173 
  182500      182.486    407.88349    16.765939   -444.24195   -427.47601   -3042.2732   -3827.1519   -1528.2981   -3771.3698    15.463076    13.391448    26.907013    5571.7154 
  183000      182.986    391.74684    16.102646   -443.55256   -427.44992   -3074.0697    -5148.028   -2027.1804   -2047.0007    15.463078     13.39145    26.906995    5571.7135 
  183500      183.486    416.23806    17.109352   -444.53336   -427.42401   -5016.1447   -5765.2406   -4730.2681   -4552.9256    15.463081    13.391452    26.906978    5571.7116 
  184000      183.986    392.37324    16.128395   -443.52572   -427.39733   -4452.4427   -4522.6268   -4329.5261   -4505.1752    15.463083    13.391454     26.90696    5571.7097 
  184500      184.486    409.01917    16.812621   -444.18417   -427.37155    -4150.599   -5244.8799   -644.41259   -6562.5043    15.463086    13.391456    26.906943    5571.7077 
  185000      184.986    407.65693    16.756626   -444.10198   -427.34535   -2658.0232   -5932.1506   -790.10228   -1251.8168    15.463088    13.391458    26.906925    5571.7058 
  185500      185.486    383.72662    15.772978   -443.09123   -427.31825   -3936.1013   -4557.0908   -1644.3129   -5606.9003     15.46309     13.39146    26.906908    5571.7039 
  186000      185.986    376.32565    15.468763   -442.76018   -427.29142   -2979.9448   -3661.7867   -4079.7437    -1198.304    15.463093    13.391463     26.90689     5571.702 
  186500      186.486    429.85799    17.669195   -444.93559    -427.2664   -4560.9021   -7123.2848      77.5462   -6636.9677    15.463095    13.391465    26.906873    5571.7001 
  187000      186.986    399.21356    16.409564   -443.64935   -427.23979   -3658.2523   -6718.3944   -1709.8883   -2546.4742    15.463098    13.391467    26.906855    5571.6982 
  187500      187.486    405.89447    16.684181   -443.89745   -427.21327   -4344.8378   -6241.6543   -1451.3846   -5341.4746      15.4631    13.391469    26.906838    5571.6963 
  188000      187.986    406.75742    16.719652   -443.90633   -427.18667    -4487.995    -4330.072   -2161.3393   -6972.5737    15.463102    13.391471     26.90682    5571.6944 
  188500      188.486    402.31828    16.537183   -443.69685   -427.15966   -4016.2045   -8473.0134   -2118.1871    -1457.413    15.463105    13.391473    26.906803    5571.6925 
  189000      188.986    400.01899    16.442671   -443.57534   -427.13267   -4176.8001   -9190.2304   -146.87469   -3193.2953    15.463107    13.391475    26.906785    5571.6906 
  189500      189.486    421.58514    17.329142   -444.43644    -427.1073   -4454.8201   -8085.5486   -2593.6727   -2685.2389     15.46311    13.391477    26.906768    5571.6887 
  190000      189.986    408.53082    16.792547   -443.87279   -427.08024    -4455.469   -4304.6037   -5477.9194    -3583.884    15.463112    13.391479     26.90675    5571.6868 
  190500      190.486    393.66705    16.181576   -443.23551   -427.05394   -3403.5599   -3936.9292    -1941.164   -4332.5867    15.463114    13.391481    26.906733    5571.6849 
  191000      190.986    412.98113    16.975476    -444.0037   -427.02822   -3297.8015   -4300.7432    241.19997   -5833.8614    15.463117    13.391483    26.906715     5571.683 
  191500      191.486    427.64665    17.578299   -444.58046   -427.00216   -4242.9016   -6140.9617   -41.505015   -6546.2382    15.463119    13.391485    26.906698    5571.6811 
  192000      191.986    404.22661    16.615624   -443.59075   -426.97513   -4231.9272   -7260.8109   -1880.8889   -3554.0819    15.463122    13.391487     26.90668    5571.6792 
  192500      192.486    408.31445    16.783654   -443.73237   -426.94872   -4234.7206   -8957.3708   -1427.5268   -2319.2641    15.463124    13.391489    26.906663    5571.6772 
  193000      192.986    389.58849    16.013928   -442.93624   -426.92232   -3233.8109   -7141.5928    226.74446   -2786.5844    15.463126    13.391491    26.906645    5571.6753 
  193500      193.486    415.32631    17.071874   -443.96827   -426.89639   -3549.1271   -2903.0645   -1463.1057    -6281.211    15.463129    13.391493    26.906628    5571.6734 
  194000      193.986    407.88606    16.766045   -443.63579   -426.86975   -4095.6292   -7686.1575   -2033.2445   -2567.4856    15.463131    13.391495     26.90661    5571.6715 
  194500      194.486    415.74497    17.089083    -443.9321   -426.84301   -3542.4954   -3763.6548   -3540.9504   -3322.8811    15.463134    13.391497    26.906593    5571.6696 
  195000      194.986    417.16455    17.147435   -443.96432   -426.81689   -3300.2356   -6316.3462   -1557.5554   -2026.8053    15.463136    13.391499    26.906575    5571.6677 
  195500      195.486    403.44819    16.583627   -443.37349   -426.78986    -3285.119   -3767.4538   -256.38112    -5831.522    15.463138    13.391501    26.906558    5571.6658 
  196000      195.986    429.33306    17.647618   -444.41086   -426.76324   -3489.9496   -5150.3885   -1362.4594   -3957.0011    15.463141    13.391504     26.90654    5571.6639 
  196500      196.486    427.91616    17.589377   -444.32629   -426.73692   -3128.5795   -5869.4883   -2882.4757   -633.77439    15.463143    13.391506    26.906523     5571.662 
  197000      196.986    406.30327    16.700985   -443.41061   -426.70962     -3521.31     -4364.62   -983.29189   -5216.0182    15.463146    13.391508    26.906505    5571.6601 
  197500      197.486    427.06262    17.554292   -444.23747   -426.68318    -3650.249   -5416.8887    257.65911   -5791.5175    15.463148     13.39151    26.906488    5571.6582 
  198000      197.986    410.11744    16.857765    -443.5138   -426.65604   -4654.6802   -6701.5981   -2852.5555   -4409.8871     15.46315    13.391512     26.90647    5571.6563 
  198500      198.486    435.57991    17.904393   -444.53413   -426.62973   -3055.9432   -6164.0315   -1909.2116   -1094.5867    15.463153    13.391514    26.906453    5571.6544 
  199000      198.986    436.49652     17.94207   -444.54518   -426.60311   -3850.0401   -4257.2069   -3056.9929   -4235.9205    15.463155    13.391516    26.906435    5571.6525 
  199500      199.486    409.99006    16.852529   -443.42754   -426.57501   -2775.9775   -4052.6683   -73.558773   -4201.7056    15.463158    13.391518    26.906418    5571.6506 
  200000      199.986    412.23128    16.944654   -443.49266   -426.54801   -2316.0416   -4432.8851    126.21898   -2641.4586     15.46316     13.39152      26.9064    5571.6487 
  200500      200.486    394.71099    16.224487   -442.74567   -426.52118   -3260.3341   -2768.1196   -2877.5335   -4135.3491    15.463162    13.391522    26.906383    5571.6467 
  201000      200.986    422.24477    17.356256   -443.85108   -426.49482   -2646.5167   -5452.7751   -1463.7906   -1022.9842    15.463165    13.391524    26.906365    5571.6448 
  201500      201.486    415.88216    17.094722   -443.56246   -426.46774   -4216.9773   -2023.8401    -5123.718   -5503.3737    15.463167    13.391526    26.906348    5571.6429 
  202000      201.986    427.07853    17.554946   -443.99505    -426.4401   -3334.6274   -6020.6957    -837.0988   -3146.0878     15.46317    13.391528     26.90633     5571.641 
  202500      202.486      389.455    16.008441   -442.42146   -426.41302   -2779.9528   -7466.9871    295.14667   -1168.0179    15.463172     13.39153    26.906313    5571.6391 
  203000      202.986    428.51682    17.614066   -444.00155   -426.38749   -3278.1704   -1872.9636   -976.23889   -6985.3086    15.463174    13.391532    26.906295    5571.6372 
  203500      203.486    405.68636    16.675627   -443.03536   -426.35973   -4023.7627   -4754.5094    -381.7937    -6934.985    15.463177    13.391534    26.906278    5571.6353 
  204000      203.986    413.23501    16.985912   -443.31845   -426.33254   -4798.8843    -8494.506   -1346.3228   -4555.8241    15.463179    13.391536     26.90626    5571.6334 
  204500      204.486    415.95971     17.09791   -443.40354   -426.30563   -4276.5684   -3649.8495   -3660.2962   -5519.5594    15.463182    13.391538    26.906243    5571.6315 
  205000      204.986    384.97725    15.824384   -442.10247   -426.27809   -2753.3986   -1174.4059   -3016.6095   -4069.1804    15.463184     13.39154    26.906225    5571.6296 
  205500      205.486     388.2862    15.960398   -442.21122   -426.25082   -2826.2103   -3151.3324    1879.6989   -7206.9976    15.463186    13.391542    26.906208    5571.6277 
  206000      205.986    411.42038    16.911322   -443.13522   -426.22389    -3284.355   -3397.1632   -3905.8361   -2550.0655    15.463189    13.391545     26.90619    5571.6258 
  206500      206.486    408.33301    16.784417   -442.98199   -426.19757   -2728.6693   -4666.5868   -1415.3827   -2104.0385    15.463191    13.391547    26.906173    5571.6239 
  207000      206.986    417.28871    17.152538   -443.32266   -426.17012   -3390.8843   -3917.6044    -106.9443   -6148.1043    15.463194    13.391549    26.906155     5571.622 
  207500      207.486     435.5995    17.905198   -444.04863   -426.14343   -3116.7696   -3777.0428   -1592.0502   -3981.2158    15.463196    13.391551    26.906138    5571.6201 
  208000      207.986    392.34135    16.127084   -442.24273   -426.11565   -2385.6162   -4777.4919   -1025.9255   -1353.4311    15.463198    13.391553     26.90612    5571.6182 
  208500      208.486    427.83487    17.586035   -443.67502   -426.08899   -3470.5601   -3530.6844    -2640.139   -4240.8568    15.463201    13.391555    26.906103    5571.6163 
  209000      208.986    416.59258    17.123924   -443.18509   -426.06116   -2462.3914   -8582.3717    376.87316    818.32424    15.463203    13.391557    26.906085    5571.6143 
  209500      209.486    422.38872    17.362173   -443.39676   -426.03458   -2025.0101   -6444.9293    1817.8676   -1447.9684    15.463206    13.391559    26.906068    5571.6124 
  210000      209.986    392.15961    16.119613   -442.12635   -426.00674   -2117.8883   -3060.8352   -575.73382   -2717.0957    15.463208    13.391561     26.90605    5571.6105 
  210500      210.486    433.96494     17.83801   -443.81921    -425.9812   -2830.5076   -5179.7292    844.74535   -4156.5388     15.46321    13.391563    26.906033    5571.6086 
  211000      210.986    428.24983    17.603092   -443.55751   -425.95442   -3720.9852   -5491.9703   -1748.9431   -3922.0423    15.463213    13.391565    26.906015    5571.6067 
  211500      211.486    421.95579    17.344377   -443.27068    -425.9263   -3229.8912   -6309.2833    1892.2049   -5272.5951    15.463215    13.391567    26.905998    5571.6048 
  212000      211.986    441.00455    18.127371   -444.02685   -425.89948   -3019.8701   -6256.9429   -259.45003   -2543.2175    15.463218    13.391569     26.90598    5571.6029 
[...]
  948500      948.486    576.40749    23.693072   -437.81645   -414.12338    2301.9817   -816.82802    6149.9638    1572.8094    15.466753    13.394589    26.880203     5568.793 
  949000      948.986    570.54903    23.452261   -437.57129   -414.11902    1398.7382   -3094.8365    2558.5951     4732.456    15.466755    13.394591    26.880185    5568.7911 
  949500      949.486    553.08533    22.734421   -436.85481   -414.12039    3158.3759    1658.7679    3511.8793    4304.4805    15.466758    13.394593    26.880168    5568.7891 
  950000      949.986    549.06654     22.56923   -436.68695   -414.11772    1938.8879    2850.3527    1224.8774    1741.4337     15.46676    13.394595     26.88015    5568.7872 
  950500      950.486    560.63913    23.044918    -437.1579   -414.11298    3492.4761   -598.91044    3455.1541    7621.1846    15.466762    13.394597    26.880133    5568.7853 
  951000      950.986    564.80221     23.21604   -437.32687   -414.11083     2518.831    289.00245   -187.61881    7455.1092    15.466765    13.394599    26.880115    5568.7834 
  951500      951.486    566.63087    23.291207   -437.39967   -414.10847    2889.9938   -1076.7519     4556.241    5190.4924    15.466767    13.394601    26.880098    5568.7815 
  952000      951.986    552.46812    22.709051   -436.81357   -414.10452     2538.553    2168.4823    25.010123    5422.1666     15.46677    13.394603     26.88008    5568.7796 
  952500      952.486    536.70932    22.061289   -436.16269    -414.1014     1347.718   -3624.7378     3369.933    4297.9588    15.466772    13.394605    26.880063    5568.7777 
  953000      952.986    593.36018    24.389908   -438.48992   -414.10001    1032.6842    28.295788     3320.016   -250.25926    15.466774    13.394607    26.880045    5568.7758 
  953500      953.486     548.8479    22.560243    -436.6565   -414.09625    1476.7525   -483.51942   -65.490766    4979.2677    15.466777    13.394609    26.880028    5568.7739 
  954000      953.986    586.59095     24.11166   -438.20591   -414.09425    1570.1457    3097.5562   -410.23238    2023.1134    15.466779    13.394611     26.88001     5568.772 
  954500      954.486     568.3285    23.360987   -437.45263   -414.09164    1771.1099   -3332.2166    1447.7118    7197.8346    15.466782    13.394613    26.879993    5568.7701 
  955000      954.986    568.57791    23.371239   -437.46001   -414.08877    1649.1079   -2570.1502    4549.0761    2968.3979    15.466784    13.394615    26.879975    5568.7681 
  955500      955.486    569.37887    23.404162   -437.48989   -414.08572    2691.6325   -1848.0553       2984.8    6938.1527    15.466786    13.394617    26.879958    5568.7662 
  956000      955.986    572.92123     23.54977   -437.63319   -414.08342    1096.9563   -99.287791    1608.4388     1781.718    15.466789     13.39462     26.87994    5568.7643 
  956500      956.486    565.31513    23.237124   -437.31798   -414.08086    1684.4087     -1161.38    620.37169    5594.2344    15.466791    13.394622    26.879923    5568.7624 
  957000      956.986    553.68307    22.758991   -436.83602   -414.07703    2342.0839   -2293.8374    3456.0635    5864.0258    15.466794    13.394624    26.879905    5568.7605 
  957500      957.486    570.16497    23.436475   -437.50989   -414.07341    2308.2052   -1747.8299    137.09423    8535.3514    15.466796    13.394626    26.879888    5568.7586 
  958000      957.986    564.35902    23.197823   -437.26842   -414.07059    3331.0011    3967.0521    3063.7746    2962.1764    15.466798    13.394628     26.87987    5568.7567 
  958500      958.486    579.14617    23.805645   -437.87495   -414.06931    1191.5197   -4353.7448    1857.2773    6071.0265    15.466801     13.39463    26.879853    5568.7548 
  959000      958.986    566.26539    23.276184    -437.3435   -414.06731    727.56336    99.148129   -246.70279    2330.2447    15.466803    13.394632    26.879835    5568.7529 
  959500      959.486    575.80928    23.668483   -437.73437   -414.06589    2435.5431     2406.022   -375.80641    5276.4136    15.466806    13.394634    26.879818     5568.751 
  960000      959.986    577.24783    23.727614   -437.79054   -414.06293    819.95925   -2492.6517   -1601.4962    6554.0257    15.466808    13.394636      26.8798    5568.7491 
  960500      960.486    565.92105     23.26203   -437.32151   -414.05949    2029.3473   -287.87262    3169.3659    3206.5485     15.46681    13.394638    26.879783    5568.7471 
  961000      960.986    572.86478     23.54745   -437.60381   -414.05636    2668.5073    3228.0293   -1568.2521    6345.7446    15.466813     13.39464    26.879765    5568.7452 
  961500      961.486    562.59236    23.125205   -437.17819   -414.05298    3135.1193    3516.3829   -73.988485    5962.9634    15.466815    13.394642    26.879748    5568.7433 
  962000      961.986    588.19906    24.177761    -438.2273   -414.04954    1886.8553    1592.8617    12.913583    4054.7907    15.466818    13.394644     26.87973    5568.7414 
  962500      962.486    572.50995    23.532865    -437.5781   -414.04524    456.59932   -783.71678   -1233.5002    3387.0149     15.46682    13.394646    26.879713    5568.7395 
  963000      962.986    564.79667    23.215812   -437.25534   -414.03952    866.10425    1892.4035    497.99343    207.91576    15.466822    13.394648    26.879695    5568.7376 
  963500      963.486    568.53498    23.369474   -437.40621   -414.03674    1435.5085   -56.946929   -1559.0013    5922.4738    15.466825     13.39465    26.879678    5568.7357 
  964000      963.986    550.45194    22.626176   -436.65899   -414.03281    1798.5098   -1249.6834   -427.54664    7072.7594    15.466827    13.394652     26.87966    5568.7338 
  964500      964.486    557.77598    22.927229   -436.95649   -414.02926    3749.3246     2652.372     -41.3455    8636.9473     15.46683    13.394654    26.879643    5568.7319 
  965000      964.986    577.05598    23.719728    -437.7468   -414.02707    691.02647   -910.25272    782.18291    2201.1492    15.466832    13.394656    26.879625      5568.73 
  965500      965.486     595.9463    24.496209   -438.51805   -414.02184    2980.9983    3102.8428   -1205.4942    7045.6463    15.466834    13.394658    26.879608    5568.7281 
  966000      965.986    574.08485    23.597601   -437.61539   -414.01779    2866.6551   -252.32811     3105.949    5746.3446    15.466837    13.394661     26.87959    5568.7261 
  966500      966.486     623.1568     25.61469   -439.62781   -414.01312    1372.1334   -961.71578    1254.1541    3823.9619    15.466839    13.394663    26.879573    5568.7242 
  967000      966.986    592.89626    24.370838   -438.38019   -414.00935     2640.535   -3415.9034    5574.5789    5762.9295    15.466842    13.394665    26.879555    5568.7223 
  967500      967.486    576.70754    23.705406   -437.71008   -414.00467    1849.7187   -3528.3391    7612.9799    1464.5153    15.466844    13.394667    26.879538    5568.7204 
  968000      967.986    593.33429    24.388844   -438.38982   -414.00098    1329.3012   -3421.6015    3551.5079    3857.9973    15.466846    13.394669     26.87952    5568.7185 
  968500      968.486    603.47597    24.805714   -438.80179   -413.99608     1532.175   -2658.5433     766.5915    6488.4767    15.466849    13.394671    26.879503    5568.7166 
  969000      968.986    529.62956    21.770278   -435.75958    -413.9893     3845.099   -4891.6141    7513.5006    8913.4106    15.466851    13.394673    26.879485    5568.7147 
  969500      969.486    555.16409    22.819868    -436.8049   -413.98503    2865.6443   -1478.1588    3125.7484    6949.3434    15.466854    13.394675    26.879468    5568.7128 
  970000      969.986    555.48418    22.833025    -436.8135   -413.98048    384.19737   -5043.2892    4502.9695    1692.9118    15.466856    13.394677     26.87945    5568.7109 
  970500      970.486      567.693    23.334865   -437.31052   -413.97565    3342.6737    -409.6136    6035.0958     4402.539    15.466858    13.394679    26.879433     5568.709 
  971000      970.986    547.86334    22.519773   -436.49016   -413.97039    4033.2941    2130.5079    1787.7214    8181.6531    15.466861    13.394681    26.879415    5568.7071 
  971500      971.486    582.81861    23.956599   -437.92394   -413.96734    3399.9809     1266.148    2769.9419    6163.8527    15.466863    13.394683    26.879398    5568.7051 
  972000      971.986    589.89175    24.247339   -438.20938   -413.96204    1741.4112   -1460.6392    2809.3941    3875.4787    15.466866    13.394685     26.87938    5568.7032 
  972500      972.486    531.46094    21.845556   -435.80131   -413.95576    3472.2269    1342.6594    7138.8329    1935.1883    15.466868    13.394687    26.879363    5568.7013 
  973000      972.986    563.85998     23.17731    -437.1286   -413.95129    3525.6464    1602.8579    4301.3806    4672.7007     15.46687    13.394689    26.879345    5568.6994 
  973500      973.486    552.17681    22.697077    -436.6425   -413.94542    2643.7858    989.77688    1237.2481    5704.3323    15.466873    13.394691    26.879328    5568.6975 
  974000      973.986    578.16091    23.765146   -437.70411   -413.93897    2640.0267   -1053.6611    4884.4116    4089.3296    15.466875    13.394693     26.87931    5568.6956 
  974500      974.486    551.82954    22.682802   -436.61725   -413.93445    2972.1791     392.2931    4506.2994    4017.9446    15.466878    13.394695    26.879293    5568.6937 
  975000      974.986    566.23365    23.274879   -437.20457   -413.92969    3344.0361   -324.61727    6824.1655      3532.56     15.46688    13.394697    26.879275    5568.6918 
  975500      975.486    561.75382    23.090737   -437.01543   -413.92469    4061.3266    2352.8344    3746.9062    6084.2392    15.466882    13.394699    26.879258    5568.6899 
  976000      975.986    566.07073    23.268182   -437.18691   -413.91873    1673.9745   -2571.3099    3776.9827    3816.2506    15.466885    13.394702     26.87924     5568.688 
  976500      976.486    593.90368    24.412248    -438.3252   -413.91295    1313.6039    254.72724     2081.187    1604.8975    15.466887    13.394704    26.879223    5568.6861 
  977000      976.986    555.44758    22.831521   -436.73744   -413.90592    2225.6209   -924.48495    1716.2144    5885.1333     15.46689    13.394706    26.879205    5568.6841 
  977500      977.486    572.42264    23.529276   -437.43042   -413.90115    2599.0439   -1296.5019   -2457.1412    11550.775    15.466892    13.394708    26.879188    5568.6822 
  978000      977.986    602.27474    24.756338   -438.65312   -413.89678     2223.216    1046.5419    1113.2932    4509.8128    15.466894     13.39471     26.87917    5568.6803 
  978500      978.486    573.48305    23.572864   -437.46307    -413.8902     2694.934    2440.6388    2068.2491    3575.9142    15.466897    13.394712    26.879153    5568.6784 
  979000      978.986    563.61374    23.167188   -437.05037   -413.88319    432.90795   -1035.3036    3689.6149   -1355.5874    15.466899    13.394714    26.879135    5568.6765 
  979500      979.486    524.37601    21.554332   -435.43143   -413.87709    3838.4108   -459.62273    8527.0574    3447.7978    15.466902    13.394716    26.879118    5568.6746 
  980000      979.986    589.38972    24.226703   -438.09864   -413.87194    2752.3448   -440.37771    3712.5917    4984.8204    15.466904    13.394718      26.8791    5568.6727 
  980500      980.486    584.12456     24.01028   -437.87525   -413.86498    1860.5672    2669.2885    4448.7429   -1536.3298    15.466906     13.39472    26.879083    5568.6708 
  981000      980.986    572.44447    23.530173   -437.38772   -413.85755    3578.5178    2377.8482    2312.9706    6044.7345    15.466909    13.394722    26.879065    5568.6689 
  981500      981.486     583.6585    23.991123   -437.84412   -413.85299    852.41039   -2454.7201    1909.1453     3102.806    15.466911    13.394724    26.879048     5568.667 
  982000      981.986     534.5465    21.972388   -435.81772   -413.84534    3651.6081    1881.0459    1462.4266    7611.3518    15.466914    13.394726     26.87903    5568.6651 
  982500      982.486     577.6609    23.744593    -437.5854   -413.84081    1568.9966   -2309.6254    4591.6811    2424.9341    15.466916    13.394728    26.879013    5568.6631 
  983000      982.986    559.79977    23.010416    -436.8454   -413.83499     2775.345    370.66057    1154.7275     6800.647    15.466918     13.39473    26.878995    5568.6612 
  983500      983.486    594.62405    24.441859     -438.271   -413.82914    3724.0201   -2701.8042    6093.0049    7780.8595    15.466921    13.394732    26.878978    5568.6593 
  984000      983.986    587.57492    24.152106   -437.97459   -413.82248    2107.6592   -4533.6183    4771.0481    6085.5477    15.466923    13.394734     26.87896    5568.6574 
  984500      984.486    601.30315    24.716401   -438.53308   -413.81668     2314.154   -1197.1197    5164.1309    2975.4507    15.466926    13.394736    26.878943    5568.6555 
  985000      984.986    569.64793    23.415222   -437.22556   -413.81033    2816.0675   -2476.1314    6127.8535    4796.4805    15.466928    13.394738    26.878925    5568.6536 
  985500      985.486     583.2467    23.974196   -437.77802   -413.80383    3777.8899   -272.62482    4022.1376    7584.1569     15.46693     13.39474    26.878908    5568.6517 
  986000      985.986    576.25357    23.686745   -437.48369   -413.79694    2232.2966   -3311.9766    5787.4194    4221.4469    15.466933    13.394743     26.87889    5568.6498 
  986500      986.486    600.08022    24.666133   -438.45657   -413.79044    1702.9587   -2194.7288   -968.26111    8271.8658    15.466935    13.394745    26.878873    5568.6479 
  987000      986.986    575.61486    23.660491   -437.44523   -413.78474    3413.6782   -1883.5157    4027.1204    8097.4299    15.466938    13.394747    26.878855     5568.646 
  987500      987.486    593.08501    24.378597   -438.15658   -413.77798    1881.2795   -976.18713    3562.7076    3057.3179     15.46694    13.394749    26.878838     5568.644 
  988000      987.986    600.60872    24.687857   -438.45768   -413.76982    3572.9851    -592.3133     4564.377    6746.8916    15.466942    13.394751     26.87882    5568.6421 
  988500      988.486    568.88689     23.38394   -437.14668   -413.76274    1395.5692   -1468.3452    2337.6953    3317.3577    15.466945    13.394753    26.878803    5568.6402 
  989000      988.986    574.81879    23.627769   -437.38389   -413.75612    3266.6155    3177.1674      2893.16    3729.5192    15.466947    13.394755    26.878785    5568.6383 
  989500      989.486    608.80833      25.0249   -438.77422   -413.74932    1768.9004    2156.3464    3270.4161   -120.06127     15.46695    13.394757    26.878768    5568.6364 
  990000      989.986    564.22567    23.192342     -436.933   -413.74065    2719.2939   -3289.3505    3551.5051    7895.7271    15.466952    13.394759     26.87875    5568.6345 
  990500      990.486    590.96015    24.291255   -438.02582   -413.73457    2180.8901    2079.7974   -1681.2639    6144.1368    15.466954    13.394761    26.878733    5568.6326 
  991000      990.986    568.82786    23.381513   -437.10756   -413.72605    2585.5189    716.27699     2996.718    4043.5616    15.466957    13.394763    26.878715    5568.6307 
  991500      991.486    578.37577    23.773978   -437.49289   -413.71891    2535.1838   -510.92274    2486.2403    5630.2339    15.466959    13.394765    26.878698    5568.6288 
  992000      991.986    584.20736    24.013683   -437.72579   -413.71211    1333.1423   -654.56532   -487.54073    5141.5331    15.466962    13.394767     26.87868    5568.6269 
  992500      992.486    551.16094    22.655319   -436.35921   -413.70389    3662.1544   -1970.7947    4870.5287    8086.7291    15.466964    13.394769    26.878663     5568.625 
  993000      992.986      538.093    22.118165   -435.81387   -413.69571    3533.4553    472.13709    5639.2093    4489.0197    15.466966    13.394771    26.878645     5568.623 
  993500      993.486    547.84525    22.519029   -436.20707   -413.68804    2297.6948   -2133.0382    3045.7714    5980.3511    15.466969    13.394773    26.878628    5568.6211 
  994000      993.986    595.32472     24.47066   -438.15178   -413.68112    3226.9787    2646.6565    662.36554     6371.914    15.466971    13.394775     26.87861    5568.6192 
  994500      994.486    549.80707    22.599669   -436.27332   -413.67365    2168.7845    1886.7761    803.06787    3816.5097    15.466974    13.394777    26.878593    5568.6173 
  995000      994.986    575.15362    23.641532   -437.30789   -413.66636    2569.1848   -2595.8735    3254.4556    7048.9724    15.466976    13.394779    26.878575    5568.6154 
  995500      995.486    576.41462    23.693365   -437.35232   -413.65895    3439.7697    -683.7645    4675.3586    6327.7149    15.466978    13.394781    26.878558    5568.6135 
  996000      995.986    563.01266    23.142481   -436.79411   -413.65163    3518.1499   -927.37501    3543.9153    7937.9093    15.466981    13.394784     26.87854    5568.6116 
  996500      996.486    566.85172    23.300285    -436.9454   -413.64512    2570.0895    47.186629    1223.7881    6439.2938    15.466983    13.394786    26.878523    5568.6097 
  997000      996.986    553.27209    22.742098   -436.37664   -413.63454      1428.03   -1364.2088    6813.7445   -1165.4457    15.466986    13.394788    26.878505    5568.6078 
  997500      997.486    579.85764    23.834889   -437.46225   -413.62736    3379.4005   -1983.7756    5792.1167    6329.8606    15.466988     13.39479    26.878488    5568.6059 
  998000      997.986    560.22349    23.027833   -436.64829   -413.62046     4131.107   -75.300133    3751.0638    8717.5573     15.46699    13.394792     26.87847     5568.604 
  998500      998.486    584.17292    24.012268   -437.62325   -413.61098    2244.1325   -268.93209    3426.7745    3574.5552    15.466993    13.394794    26.878453     5568.602 
  999000      998.986    591.81255    24.326293   -437.92903   -413.60274    1525.1596   -2608.7706    3150.5587    4033.6906    15.466995    13.394796    26.878435    5568.6001 
  999500      999.486    574.88974    23.630685   -437.22555   -413.59487    3185.3924   -1951.6413    2395.9212    9111.8972    15.466998    13.394798    26.878418    5568.5982 
 1000000      999.986    583.54279    23.986367   -437.57335   -413.58698    2646.7606   -2406.1496    4410.4179    5936.0135       15.467      13.3948      26.8784    5568.5963 
 1000014         1000    613.93536    25.235645   -438.82277   -413.58713    2210.9506   -1407.9883    3787.4283    4253.4118       15.467      13.3948      26.8784    5568.5963 
Loop time of 913.632 on 28 procs for 1000000 steps with 319 atoms

Performance: 94.568 ns/day, 0.254 hours/ns, 1094.532 timesteps/s
87.2% CPU use with 28 MPI tasks x no OpenMP threads

MPI task timing breakdown:
Section |  min time  |  avg time  |  max time  |%varavg| %total
---------------------------------------------------------------
Pair    | 740.99     | 793        | 829.53     |  80.0 | 86.80
Neigh   | 0.012115   | 0.020109   | 0.026319   |   2.6 |  0.00
Comm    | 72.874     | 108.49     | 159.27     | 209.5 | 11.87
Output  | 0.1001     | 0.10635    | 0.24141    |   8.0 |  0.01
Modify  | 4.8606     | 6.7874     | 9.4361     |  51.5 |  0.74
Other   |            | 5.226      |            |       |  0.57

Nlocal:    11.3929 ave 16 max 5 min
Histogram: 2 1 2 4 0 3 3 8 1 4
Nghost:    649.393 ave 686 max 594 min
Histogram: 3 1 1 1 1 3 4 8 5 1
Neighs:    715.214 ave 976 max 318 min
Histogram: 1 2 2 1 4 2 1 9 2 4
FullNghs:  1430.43 ave 2048 max 622 min
Histogram: 2 1 2 4 0 3 5 7 2 2

Total # of neighbors = 40052
Ave neighs/atom = 125.555
Neighbor list builds = 298
Dangerous builds = 0

write_restart   POSCAR_1x1x1.rest

#unfix    1
#undump   1
Total wall time: 0:15:13
