LAMMPS (7 Dec 2015)
#----------- Initialize Simulation ------------ restart01
#processors	2 2 2
units		metal
boundary	p p p     ## periodic boundary condition  on x y z axis ##
atom_style atomic
#atom_modify map array sort 0 0.0

read_data	POSCAR_1x1x1.lammps
  triclinic box = (0 0 0) to (15.5669 13.4813 26.1436) with tilt (-7.78335 0 0)
  2 by 2 by 7 MPI processor grid
  reading atoms ...
  319 atoms

#----------- Define Potential -----------------
pair_style meam
pair_coeff * * MgAlZn.library.meam Mg Al Zn MgAlZn.parameter.meam Mg Al Zn 	#1=Mg 2=Al 3=Zn	#atoms/mass

#----------- Neighbor List --------------------
neighbor 2.0 bin
neigh_modify delay 10 check yes

#--------------  Run a simulation (minimization) ---------------------------------------
minimize       1.0e-4   1.0e-6   100   1000          #結構優化的條件
WARNING: Resetting reneighboring criteria during minimization (../min.cpp:168)
Neighbor list info ...
  2 neighbor list requests
  update every 1 steps, delay 0 steps, check yes
  max neighbors/atom: 2000, page size: 100000
  master list distance cutoff = 8
  ghost atom cutoff = 8
  binsize = 4 -> bins = 6 4 7
Memory usage per processor = 8.65616 Mbytes
Step Temp E_pair E_mol TotEng Press 
       0            0   -437.51568            0   -437.51568    4559.5992 
      13            0   -459.81609            0   -459.81609   -11514.325 
Loop time of 0.0185606 on 28 procs for 13 steps with 319 atoms

83.4% CPU use with 28 MPI tasks x no OpenMP threads

Minimization stats:
  Stopping criterion = energy tolerance
  Energy initial, next-to-last, final = 
        -437.515682572     -459.773682858     -459.816094103
  Force two-norm initial, final = 20.7192 0.740436
  Force max component initial, final = 3.23584 0.168814
  Final line search alpha, max atom move = 0.477425 0.0805959
  Iterations, force evaluations = 13 19

MPI task timing breakdown:
Section |  min time  |  avg time  |  max time  |%varavg| %total
---------------------------------------------------------------
Pair    | 0.014455   | 0.015622   | 0.016638   |   0.4 | 84.17
Neigh   | 0          | 0          | 0          |   0.0 |  0.00
Comm    | 0.0011103  | 0.0021084  | 0.0032443  |   1.1 | 11.36
Output  | 0          | 0          | 0          |   0.0 |  0.00
Modify  | 0          | 0          | 0          |   0.0 |  0.00
Other   |            | 0.0008304  |            |       |  4.47

Nlocal:    11.3929 ave 16 max 6 min
Histogram: 1 1 5 1 1 3 5 4 4 3
Nghost:    660.393 ave 674 max 643 min
Histogram: 2 0 1 4 3 5 6 3 1 3
Neighs:    722.643 ave 997 max 396 min
Histogram: 2 3 3 0 3 4 3 4 3 3
FullNghs:  1445.29 ave 2035 max 760 min
Histogram: 2 4 2 1 2 3 4 4 4 2

Total # of neighbors = 40468
Ave neighs/atom = 126.859
Neighbor list builds = 0
Dangerous builds = 0
velocity all  create 600.0 4928459 #rot yes dist gaussian

#--------------  Run a simulation (Relaxation)  ----------------------------------------
fix  1  all  nvt   temp  600.0  600.0  100				#damping constant
#fix  2  all  npt   temp  393.0  393.0  50 iso 0.0 0.0 1000.0
fix  2  all deform 1 x final 0 15.5717 y final 0 13.4854 z final 0 26.1086 xy final -7.78575 units lattice
#fix  3  all  npt   temp  393.0  393.0  50 z 0.0 0.0 1000.0

#variable b equal 1
#fix 2 all efield  0.0  0.0  v_b
#compute pot all pe/atom


#----------- Output --------------------------
thermo	 500
timestep  0.001		#1.0 fs
thermo_style	custom step time temp ke pe etotal press pxx pyy pzz lx ly lz vol

dump 1 all custom 10000 dump.eq id type x y z
dump_modify 1 sort  id

run        1000000	#1000 ps
Neighbor list info ...
  2 neighbor list requests
  update every 1 steps, delay 10 steps, check yes
  max neighbors/atom: 2000, page size: 100000
  master list distance cutoff = 8
  ghost atom cutoff = 8
  binsize = 4 -> bins = 6 4 7
Memory usage per processor = 7.5621 Mbytes
Step Time Temp KinEng PotEng TotEng Press Pxx Pyy Pzz Lx Ly Lz Volume 
      13            0          600    24.662836   -459.81609   -435.15326   -6712.9814   -15122.027   -10699.817       5682.9      15.5669      13.4813      26.1436    5486.5495 
     500        0.487    300.32574    12.344807    -447.4936   -435.14879   -902.02921   -13299.161   -6928.2957    17521.369    15.566902    13.481302    26.143583    5486.5475 
    1000        0.987    307.48852    12.639231   -447.78711   -435.14788   -607.81896   -12282.306   -5205.4936    15664.342    15.566905    13.481304    26.143565    5486.5455 
    1500        1.487    305.20824    12.545501   -447.69244   -435.14694   -546.72485   -9535.0566   -5412.2568    13307.139    15.566907    13.481306    26.143548    5486.5435 
    2000        1.987    315.40276    12.964544   -448.11064    -435.1461   -127.62601   -10607.244   -5670.2403    15894.606     15.56691    13.481308     26.14353    5486.5415 
    2500        2.487    318.93496    13.109734   -448.25444   -435.14471   -1141.1408   -11129.756   -6518.5959    14224.929    15.566912     13.48131    26.143513    5486.5396 
    3000        2.987      321.561    13.217677   -448.36032   -435.14264   -236.53525   -9409.6187   -7288.0689    15988.082    15.566914    13.481312    26.143495    5486.5376 
    3500        3.487     296.5734    12.190568   -447.33074   -435.14017    355.86327   -11659.939   -4703.8267    17431.356    15.566917    13.481314    26.143478    5486.5356 
    4000        3.987    317.54141    13.052453   -448.19076   -435.13831   -245.68307   -11861.708   -2907.3605    14032.019    15.566919    13.481316     26.14346    5486.5336 
    4500        4.487     291.9453    12.000332    -447.1354   -435.13507   -108.11653   -12639.764   -5661.9226    17977.337    15.566922    13.481318    26.143443    5486.5316 
    5000        4.987    297.11291    12.212745   -447.34505   -435.13231    519.40605   -8410.8598   -7310.8637    17279.942    15.566924     13.48132    26.143425    5486.5296 
    5500        5.487    291.20123    11.969747   -447.09861   -435.12886     1161.538   -8855.2145   -7372.7792    19712.608    15.566926    13.481322    26.143408    5486.5276 
    6000        5.987    315.18321     12.95552   -448.08142    -435.1259    1189.6993   -9603.4311   -4845.2435    18017.773    15.566929    13.481325     26.14339    5486.5256 
    6500        6.487    313.51255    12.886847   -448.00904   -435.12219    1389.0546   -8667.9534   -6303.2414    19138.359    15.566931    13.481327    26.143373    5486.5236 
    7000        6.987    315.11793    12.952836   -448.07032   -435.11748    820.46782   -10687.159   -3537.4333    16685.996    15.566934    13.481329    26.143355    5486.5216 
    7500        7.487    326.33744    13.414011   -448.52716   -435.11315    1061.3403   -10169.348   -5462.7972    18816.166    15.566936    13.481331    26.143338    5486.5196 
    8000        7.987    317.77333    13.061986   -448.17014   -435.10815   -493.32124   -9578.8918   -8160.7906    16259.719    15.566938    13.481333     26.14332    5486.5176 
    8500        8.487    326.95502    13.439397   -448.54257   -435.10317    438.73224   -9818.0503    -5928.808    17063.055    15.566941    13.481335    26.143303    5486.5156 
    9000        8.987    307.37995    12.634769   -447.73223   -435.09747    1148.0998   -9142.5284   -5529.2434    18116.071    15.566943    13.481337    26.143285    5486.5137 
    9500        9.487    296.92629    12.205074   -447.29644   -435.09137    46.059624   -10756.377   -6312.3049    17206.861    15.566946    13.481339    26.143268    5486.5117 
   10000        9.987    319.20012    13.120634   -448.20674   -435.08611   -1271.3032    -12537.21   -3925.1019    12648.402    15.566948    13.481341     26.14325    5486.5097 
   10500       10.487    315.99479    12.988879   -448.06855   -435.07967   -12.192744   -10775.142   -6162.1034    16900.667     15.56695    13.481343    26.143233    5486.5077 
   11000       10.987    320.37069     13.16875   -448.24182   -435.07307    -139.4563    -11030.94   -7025.8636    17638.434    15.566953    13.481345    26.143215    5486.5057 
   11500       11.487    319.12064    13.117366   -448.18307   -435.06571   -384.69474   -9715.0408   -8280.6872    16841.644    15.566955    13.481347    26.143198    5486.5037 
   12000       11.987     317.6261    13.055934    -448.1141   -435.05817    79.550835   -8804.8421   -7617.4831    16660.978    15.566958    13.481349     26.14318    5486.5017 
   12500       12.487    301.04122    12.374217   -447.42481   -435.05059    662.60855   -9214.2152   -5386.1993     16588.24     15.56696    13.481351    26.143163    5486.4997 
   13000       12.987    314.81622    12.940434    -447.9834   -435.04296    331.65911   -11135.244    -4419.222    16549.443    15.566962    13.481353    26.143145    5486.4977 
   13500       13.487    305.46763    12.556163   -447.59055   -435.03439   -487.18556   -10839.433   -5468.8842    14846.761    15.566965    13.481355    26.143128    5486.4957 
   14000       13.987    312.76166    12.855982   -447.88198     -435.026   -104.07189   -13725.759   -5151.5478    18565.091    15.566967    13.481357     26.14311    5486.4937 
   14500       14.487    294.49466    12.105122   -447.12215   -435.01703   -6.7786208    -9277.769   -6749.2184    16006.652     15.56697    13.481359    26.143093    5486.4917 
   15000       14.987     308.2593    12.670914   -447.67892     -435.008   -284.57133   -11383.294   -5885.3914    16414.971    15.566972    13.481361    26.143075    5486.4897 
   15500       15.487    312.16682    12.831532    -447.8304   -434.99886    1276.4753   -8750.6196   -5425.4413    18005.487    15.566974    13.481363    26.143058    5486.4877 
   16000       15.987    300.97883    12.371652   -447.35981   -434.98816    915.38204   -10077.243   -7759.5583    20582.947    15.566977    13.481366     26.14304    5486.4858 
   16500       16.487    306.30922    12.590756   -447.56894   -434.97818    861.03388   -9835.0582   -2183.8696    14602.029    15.566979    13.481368    26.143023    5486.4838 
   17000       16.987     318.9434    13.110081   -448.07775   -434.96767   -572.73913    -10308.18   -3864.2457    12454.209    15.566982     13.48137    26.143005    5486.4818 
   17500       17.487    306.35108    12.592477   -447.54931   -434.95684    525.24409    -8288.835   -6887.2159    16751.783    15.566984    13.481372    26.142988    5486.4798 
   18000       17.987     307.0668    12.621897    -447.5677    -434.9458   -5.8732095   -12229.839   -5593.6331    17805.853    15.566986    13.481374     26.14297    5486.4778 
   18500       18.487    296.69218    12.195451   -447.12987   -434.93442   -87.770816   -12225.677    -4338.763    16301.128    15.566989    13.481376    26.142953    5486.4758 
   19000       18.987    332.32791    13.660248   -448.58381   -434.92356   -795.36692   -10022.596    -7471.757    15108.252    15.566991    13.481378    26.142935    5486.4738 
   19500       19.487     320.7392    13.183897   -448.09577   -434.91188    129.99937   -9400.8762   -7373.8886    17164.763    15.566994     13.48138    26.142918    5486.4718 
   20000       19.987    291.48398    11.981369   -446.88067    -434.8993    774.66088   -8123.8623   -5970.2094    16418.054    15.566996    13.481382      26.1429    5486.4698 
   20500       20.487    323.91557    13.314461   -448.20279   -434.88833    128.12034   -11192.015   -5357.8877    16934.263    15.566998    13.481384    26.142883    5486.4678 
   21000       20.987    315.13185    12.953409   -447.82862   -434.87521    424.25266   -9257.4115   -7405.6146    17935.784    15.567001    13.481386    26.142865    5486.4658 
   21500       21.487    310.71384    12.771807   -447.63418   -434.86237    838.28531   -10616.846   -7207.3333    20339.036    15.567003    13.481388    26.142848    5486.4638 
   22000       21.987    316.79174    13.021638   -447.87068   -434.84904    426.51422   -10031.645   -4207.3462    15518.534    15.567006     13.48139     26.14283    5486.4618 
   22500       22.487    310.36842    12.757609   -447.59292   -434.83531   -291.03794    -9512.918   -7713.2756     16353.08    15.567008    13.481392    26.142813    5486.4599 
   23000       22.987    302.17488    12.420816   -447.24202   -434.82121    639.26198    -10247.03   -4960.1392    17124.955     15.56701    13.481394    26.142795    5486.4579 
   23500       23.487     320.0844    13.156981    -447.9644   -434.80742   -764.47208    -12201.66   -6439.7359     16347.98    15.567013    13.481396    26.142778    5486.4559 
   24000       23.987    300.22581      12.3407   -447.13307   -434.79237    756.62437   -9157.6796   -6950.8116    18378.364    15.567015    13.481398     26.14276    5486.4539 
   24500       24.487    305.37066    12.552177   -447.32996   -434.77778   -326.76286   -12820.831   -7840.3526    19680.895    15.567018      13.4814    26.142743    5486.4519 
   25000       24.987    317.34059    13.044198    -447.8072     -434.763     16.18884   -11025.949   -6132.6461    17207.161     15.56702    13.481402    26.142725    5486.4499 
   25500       25.487    304.39619    12.512122   -447.25872    -434.7466    838.60173   -10136.077   -6364.1208    19016.003    15.567022    13.481404    26.142708    5486.4479 
   26000       25.987    315.69151    12.976413    -447.7077   -434.73129    461.90536   -10000.739   -6894.8663    18281.322    15.567025    13.481407     26.14269    5486.4459 
   26500       26.487    323.72698    13.306709    -448.0224   -434.71569   -697.83425    -11235.46   -6312.1269    15454.084    15.567027    13.481409    26.142673    5486.4439 
   27000       26.987     334.4313    13.746707   -448.44731   -434.70061   -318.30484   -11518.299   -9070.9256     19634.31     15.56703    13.481411    26.142655    5486.4419 
   27500       27.487     317.3174    13.043245   -447.72712   -434.68387    632.96866   -9667.5104   -4377.8621    15944.279    15.567032    13.481413    26.142638    5486.4399 
   28000       27.987     331.7633    13.637039   -448.30484    -434.6678   -1049.6066   -12942.562   -7231.0238    17024.766    15.567034    13.481415     26.14262    5486.4379 
   28500       28.487    324.43806    13.335938   -447.98742   -434.65148   -152.13945   -11039.693   -7962.5931    18545.867    15.567037    13.481417    26.142603    5486.4359 
   29000       28.987    314.64963    12.933587   -447.56771   -434.63412    276.06039   -9605.0691   -6946.5238    17379.774    15.567039    13.481419    26.142585     5486.434 
   29500       29.487     320.6386    13.179762   -447.79736    -434.6176    1418.5961   -9747.4886    -4269.862    18273.139    15.567042    13.481421    26.142568     5486.432 
   30000       29.987    314.99344    12.947719   -447.54819   -434.60047    713.77211   -11147.573   -5508.0493    18796.938    15.567044    13.481423     26.14255      5486.43 
   30500       30.487    315.91016      12.9854   -447.56902   -434.58362    962.43892   -9647.6472   -7764.1965     20299.16    15.567046    13.481425    26.142533     5486.428 
   31000       30.987    316.54391    13.011451   -447.57702   -434.56557    147.99964    -9243.474   -6276.7412    15964.214    15.567049    13.481427    26.142515     5486.426 
   31500       31.487     316.9075    13.026396   -447.57448   -434.54808   -817.45118   -10894.435   -9086.6788     17528.76    15.567051    13.481429    26.142498     5486.424 
   32000       31.987    322.26401    13.246574   -447.77762   -434.53105    922.86508   -10452.609   -6012.9461     19234.15    15.567054    13.481431     26.14248     5486.422 
   32500       32.487    326.04102    13.401827   -447.91453   -434.51271    259.56721   -11982.699   -5085.3707    17846.771    15.567056    13.481433    26.142463      5486.42 
   33000       32.987    321.09842    13.198662   -447.69292   -434.49425   -290.82343   -11713.917   -6593.1185    17434.565    15.567058    13.481435    26.142445     5486.418 
   33500       33.487    320.12166    13.158513    -447.6345   -434.47599    229.45673   -10252.937   -5112.9649    16054.272    15.567061    13.481437    26.142428     5486.416 
   34000       33.987    317.64458    13.056693   -447.51442   -434.45773    528.18165   -9847.3409   -6597.9817    18029.868    15.567063    13.481439     26.14241     5486.414 
   34500       34.487    326.06179     13.40268   -447.84224   -434.43956    21.928919   -11230.874   -8049.3912    19346.052    15.567066    13.481441    26.142393     5486.412 
   35000       34.987    329.86053    13.558827   -447.98015   -434.42132    534.87564   -9481.9171   -3253.2768    14339.821    15.567068    13.481443    26.142375      5486.41 
   35500       35.487    335.14768    13.776154   -448.17885    -434.4027    35.692092   -8532.9964   -7140.7715    15780.844     15.56707    13.481445    26.142358     5486.408 
   36000       35.987    317.29268    13.042229   -447.42607   -434.38384   -251.50222   -10173.377   -5957.3108    15376.181    15.567073    13.481448     26.14234    5486.4061 
   36500       36.487    303.30989     12.46747   -446.83202   -434.36455    285.79259   -9128.0321   -7230.2419    17215.652    15.567075     13.48145    26.142323    5486.4041 
   37000       36.987    327.11276     13.44588   -447.79205   -434.34617    51.849934   -11506.854   -3798.5148    15460.919    15.567078    13.481452    26.142305    5486.4021 
   37500       37.487    325.49946    13.379566   -447.70649   -434.32693   -733.61832   -10692.104   -7580.9754    16072.224     15.56708    13.481454    26.142288    5486.4001 
   38000       37.987     314.3499    12.921266   -447.22855   -434.30728    689.59776   -11975.013   -5737.3507    19781.157    15.567082    13.481456     26.14227    5486.3981 
   38500       38.487    306.43641    12.595985   -446.88436   -434.28837    1100.2207   -10362.373   -3608.6009    17271.636    15.567085    13.481458    26.142253    5486.3961 
   39000       38.987    305.63091    12.562875   -446.83216   -434.26929    252.09368   -11175.816   -4815.8521     16747.95    15.567087     13.48146    26.142235    5486.3941 
   39500       39.487    329.99977     13.56455   -447.81538   -434.25083    1183.8357   -10177.243   -4325.6745    18054.425     15.56709    13.481462    26.142218    5486.3921 
   40000       39.987    339.31222    13.947336   -448.17885   -434.23152   -741.50167   -11477.577   -3635.9214    12888.994    15.567092    13.481464      26.1422    5486.3901 
   40500       40.487    334.25151    13.739317   -447.95217   -434.21285    432.70681    -12609.86   -4414.5324    18322.513    15.567094    13.481466    26.142183    5486.3881 
   41000       40.987    306.77265    12.609806   -446.80292   -434.19311    741.12015   -9890.7157   -7260.8143    19374.891    15.567097    13.481468    26.142165    5486.3861 
   41500       41.487    324.66082    13.345094   -447.51938   -434.17429    946.80981   -9615.1807   -4979.2888    17434.899    15.567099     13.48147    26.142148    5486.3841 
   42000       41.987    314.30016    12.919222   -447.07464   -434.15542    1363.8559   -10584.632   -4139.7935    18815.993    15.567102    13.481472     26.14213    5486.3821 
   42500       42.487    315.69224    12.976443   -447.11262   -434.13618    565.12954   -7592.4149   -5613.5382    14901.342    15.567104    13.481474    26.142113    5486.3802 
   43000       42.987    345.14333    14.187022   -448.30469   -434.11767     666.6827   -9351.7715   -4375.7423    15727.562    15.567106    13.481476    26.142095    5486.3782 
   43500       43.487    306.37697    12.593542   -446.69163   -434.09809    715.61081   -10777.571   -5148.1577    18072.561    15.567109    13.481478    26.142078    5486.3762 
   44000       43.987    338.61721    13.918768   -447.99875   -434.07999    887.68376   -10535.802   -4585.7292    17784.582    15.567111     13.48148     26.14206    5486.3742 
   44500       44.487    332.44354    13.665001   -447.72539   -434.06038    255.04193   -11486.391   -2727.6872    14979.204    15.567114    13.481482    26.142043    5486.3722 
   45000       44.987    324.77521    13.349796   -447.39174   -434.04194    196.89992   -7599.5278   -8375.8635    16566.091    15.567116    13.481484    26.142025    5486.3702 
   45500       45.487    333.37245    13.703183   -447.72614   -434.02296    807.54024   -9408.2206    -6827.349     18658.19    15.567118    13.481486    26.142008    5486.3682 
   46000       45.987    323.33154    13.290454   -447.29498   -434.00453    507.76137   -10010.396   -7449.1899     18982.87    15.567121    13.481489     26.14199    5486.3662 
   46500       46.487    335.51551    13.791273   -447.77743   -433.98616   -143.62281   -12083.304   -5065.1069    16717.542    15.567123    13.481491    26.141973    5486.3642 
   47000       46.987    326.99649    13.441101   -447.40844   -433.96734    611.03231   -11048.973   -6558.6145    19440.685    15.567126    13.481493    26.141955    5486.3622 
   47500       47.487    325.72355    13.388777     -447.338   -433.94922    420.18466   -9646.2278   -6331.6305    17238.412    15.567128    13.481495    26.141938    5486.3602 
   48000       47.987    316.29889    13.001379   -446.93218    -433.9308   -1051.1828   -12077.851   -5103.4293    14027.732     15.56713    13.481497     26.14192    5486.3582 
   48500       48.487    339.60302    13.959289   -447.87207   -433.91278    731.90051   -11341.372   -8520.8236    22057.897    15.567133    13.481499    26.141903    5486.3562 
   49000       48.987    325.42609     13.37655    -447.2715   -433.89495    143.79169   -9216.6407   -7039.7496    16687.765    15.567135    13.481501    26.141885    5486.3542 
   49500       49.487    308.73834    12.690605   -446.56647   -433.87587    698.59125    -10932.36   -5519.3187    18547.452    15.567138    13.481503    26.141868    5486.3523 
   50000       49.987     318.6286    13.097142   -446.95598   -433.85884    773.59796   -9321.3887   -3642.9577     15285.14     15.56714    13.481505     26.14185    5486.3503 
   50500       50.487    317.31523    13.043155   -446.88333   -433.84018    1379.9865   -9445.7043   -6470.6575    20056.321    15.567142    13.481507    26.141833    5486.3483 
   51000       50.987    315.04943     12.95002   -446.77272    -433.8227    1384.9886   -9852.0451   -5508.4463    19515.457    15.567145    13.481509    26.141815    5486.3463 
   51500       51.487    337.21071    13.860954   -447.66642   -433.80546    402.00742   -10052.596   -5914.8826    17173.501    15.567147    13.481511    26.141798    5486.3443 
   52000       51.987    332.01884    13.647544   -447.43516   -433.78761    302.64854   -11949.375   -4288.5026    17145.824     15.56715    13.481513     26.14178    5486.3423 
   52500       52.487    324.34872    13.332266   -447.10204   -433.76977    625.28112   -11734.601    -5652.796    19263.241    15.567152    13.481515    26.141763    5486.3403 
   53000       52.987    326.48243    13.419971   -447.17264   -433.75267    121.46926   -10284.319   -7864.7883    18513.515    15.567154    13.481517    26.141745    5486.3383 
   53500       53.487     325.1125     13.36366   -447.09962   -433.73596   -210.82288   -10899.459   -5937.6582    16204.649    15.567157    13.481519    26.141728    5486.3363 
   54000       53.987     315.4884    12.968064   -446.68654   -433.71847    792.97278   -10842.904   -4224.5861    17446.408    15.567159    13.481521     26.14171    5486.3343 
   54500       54.487    331.33226    13.619322   -447.32077   -433.70145    997.06509   -10740.441   -5147.2142     18878.85    15.567162    13.481523    26.141693    5486.3323 
   55000       54.987    343.27969    14.110418   -447.79547   -433.68505   -429.16203   -11051.664   -6772.1094    16536.288    15.567164    13.481525    26.141675    5486.3303 
   55500       55.487    324.86227    13.353375   -447.02081   -433.66743    1181.2587   -8885.8655   -5488.6404    17918.282    15.567166    13.481527    26.141658    5486.3283 
   56000       55.987    332.34638    13.661007   -447.31157   -433.65056    506.68232    -10215.99   -6800.7122    18536.749    15.567169     13.48153     26.14164    5486.3264 
   56500       56.487    322.04934     13.23775   -446.87152   -433.63377    648.92512   -9251.5088   -7315.5393    18513.823    15.567171    13.481532    26.141623    5486.3244 
   57000       56.987    332.67553    13.674537   -447.29207   -433.61754    1511.7652   -8651.5949   -4541.4583    17728.349    15.567174    13.481534    26.141605    5486.3224 
   57500       57.487    338.61218    13.918561   -447.51948   -433.60092    909.52497   -9264.7137   -4948.3295    16941.618    15.567176    13.481536    26.141588    5486.3204 
   58000       57.987    342.29701    14.070025   -447.65494   -433.58491    911.46694   -9208.5278   -5790.7408    17733.669    15.567178    13.481538     26.14157    5486.3184 
   58500       58.487    316.75284    13.020039   -446.58833   -433.56829    990.88686   -11301.028   -4008.6007    18282.289    15.567181     13.48154    26.141553    5486.3164 
   59000       58.987    331.50913    13.626592   -447.17856   -433.55197    169.98071    -10045.37   -7830.1472    18385.459    15.567183    13.481542    26.141535    5486.3144 
   59500       59.487    342.01142    14.058286   -447.59481   -433.53652   -151.17019   -10410.825    -5928.062    15885.377    15.567186    13.481544    26.141518    5486.3124 
   60000       59.987      333.959    13.727293   -447.24791   -433.52061    -367.9264   -10268.916   -9215.4406    18380.578    15.567188    13.481546      26.1415    5486.3104 
   60500       60.487    329.53308    13.545367   -447.04964   -433.50427    922.17511   -9743.5976   -4399.0016    16909.124     15.56719    13.481548    26.141483    5486.3084 
   61000       60.987    330.35472     13.57914   -447.06759   -433.48845    378.39758   -10659.033   -5465.9848    17260.211    15.567193     13.48155    26.141465    5486.3064 
   61500       61.487    330.55585    13.587408   -447.05984   -433.47244    1828.0593   -9116.8766   -6010.8226    20611.877    15.567195    13.481552    26.141448    5486.3044 
   62000       61.987    322.01874    13.236492   -446.69254   -433.45604     1231.067   -9576.1693   -5696.2019    18965.572    15.567198    13.481554     26.14143    5486.3024 
   62500       62.487    333.08978    13.691564   -447.13172   -433.44016    269.94957   -7987.2863    -7105.097    15902.232      15.5672    13.481556    26.141413    5486.3004 
   63000       62.987     334.0436     13.73077   -447.15548   -433.42471    471.15407   -11452.734   -4878.3909    17744.587    15.567202    13.481558    26.141395    5486.2985 
   63500       63.487    351.75635    14.458848   -447.86778   -433.40893    659.54099   -11658.863   -4149.7514    17787.237    15.567205     13.48156    26.141378    5486.2965 
   64000       63.987    335.37919     13.78567   -447.17813   -433.39246    1198.5331   -9886.5574   -6065.6962    19547.853    15.567207    13.481562     26.14136    5486.2945 
   64500       64.487    332.13947    13.652502   -447.02896   -433.37645    974.36413   -11082.025   -3847.8747    17852.992     15.56721    13.481564    26.141343    5486.2925 
   65000       64.987    318.77278    13.103068   -446.46384   -433.36077    943.28126   -10525.028   -7951.2706    21306.142    15.567212    13.481566    26.141325    5486.2905 
   65500       65.487    338.58349    13.917382   -447.26251   -433.34513    1281.8877   -9649.6668   -4803.5758    18298.905    15.567214    13.481568    26.141308    5486.2885 
   66000       65.987    326.86132    13.435545   -446.76465    -433.3291    636.51482   -11693.023   -6921.4741    20524.041    15.567217    13.481571     26.14129    5486.2865 
   66500       66.487    348.41978    14.321699   -447.63493   -433.31323    1842.2221   -10255.654   -8712.4989    24494.819    15.567219    13.481573    26.141273    5486.2845 
   67000       66.987    330.26528    13.575464   -446.87295   -433.29749     397.7403   -9924.8763   -3818.7337    14936.831    15.567222    13.481575    26.141255    5486.2825 
   67500       67.487    343.67673    14.126738   -447.40881   -433.28208    1712.2999   -10471.201   -1066.9012    16675.002    15.567224    13.481577    26.141238    5486.2805 
   68000       67.987    328.65746    13.509375   -446.77549   -433.26611    790.36604   -10103.179   -3167.4918    15641.769    15.567226    13.481579     26.14122    5486.2785 
   68500       68.487    329.72694    13.553336   -446.80353   -433.25019    839.73628   -10812.975   -5942.6309    19274.814    15.567229    13.481581    26.141203    5486.2765 
   69000       68.987    305.68162    12.564959   -445.79876    -433.2338    1214.9691   -10807.792   -6770.6737    21223.373    15.567231    13.481583    26.141185    5486.2745 
   69500       69.487    344.87076    14.175818   -447.39442   -433.21861    505.15399   -10046.332   -6619.5859     18181.38    15.567234    13.481585    26.141168    5486.2726 
   70000       69.987     330.5505    13.587188    -446.7895   -433.20231    1671.5248   -8159.5167   -5732.5033    18906.594    15.567236    13.481587     26.14115    5486.2706 
   70500       70.487    341.64283    14.043135    -447.2298   -433.18666    1188.0273   -9390.1103   -6754.0676     19708.26    15.567238    13.481589    26.141133    5486.2686 
   71000       70.987    346.77042    14.253903   -447.42509   -433.17119   -167.41708    -9565.526   -4394.5969    13457.872    15.567241    13.481591    26.141115    5486.2666 
   71500       71.487    334.93856    13.767558   -446.92257   -433.15501    474.35168     -13429.4   -8945.1774    23797.633    15.567243    13.481593    26.141098    5486.2646 
   72000       71.987    338.01496    13.894013   -447.03302   -433.13901    928.87692   -11029.398   -5614.4469    19430.475    15.567246    13.481595     26.14108    5486.2626 
   72500       72.487    341.50384    14.037422   -447.16053   -433.12311      976.539   -9961.9354   -4834.9125    17726.465    15.567248    13.481597    26.141063    5486.2606 
   73000       72.987    333.43122    13.705599    -446.8124    -433.1068    445.04288   -10882.544   -6295.8987    18513.571     15.56725    13.481599    26.141045    5486.2586 
   73500       73.487    335.83171    13.804271   -446.89534   -433.09107    1546.9468   -10677.692   -6319.3197    21637.853    15.567253    13.481601    26.141028    5486.2566 
   74000       73.987    330.13291    13.570023   -446.64472    -433.0747    1542.4582   -7432.7031    -5321.818    17381.896    15.567255    13.481603     26.14101    5486.2546 
   74500       74.487    338.13214    13.898829   -446.95822   -433.05939    1452.5136   -10361.117   -5945.8815    20664.539    15.567258    13.481605    26.140993    5486.2526 
   75000       74.987    315.38277    12.963722   -446.00686   -433.04314    328.03639   -11142.075   -5784.7883    17910.973     15.56726    13.481607    26.140975    5486.2506 
   75500       75.487    355.01799    14.592917   -447.62059   -433.02767    1150.1217   -8887.3034   -6893.6656    19231.334    15.567262    13.481609    26.140958    5486.2486 
   76000       75.987     343.8325    14.133141   -447.14396   -433.01082    188.39202    -12180.81   -7720.6719    20466.658    15.567265    13.481612     26.14094    5486.2466 
   76500       76.487    338.54167    13.915663   -446.91068   -432.99501    1555.4628   -8749.5001   -6267.7943    19683.683    15.567267    13.481614    26.140923    5486.2447 
   77000       76.987    337.84794    13.887147   -446.86524   -432.97809    1594.5774   -9927.8135   -4531.0842     19242.63     15.56727    13.481616    26.140905    5486.2427 
   77500       77.487    349.61687    14.370906   -447.33261   -432.96171    1377.6776   -8311.8366    -6378.962    18823.831    15.567272    13.481618    26.140888    5486.2407 
   78000       77.987     342.7912    14.090338   -447.03575   -432.94542     1046.764   -8065.7824   -7277.5843    18483.659    15.567274     13.48162     26.14087    5486.2387 
   78500       78.487    340.81634    14.009162   -446.93873   -432.92957    1502.2374   -9002.2227   -5139.8031    18648.738    15.567277    13.481622    26.140853    5486.2367 
   79000       78.987    346.56549    14.245479   -447.15789   -432.91241    1640.2341   -7159.6327   -7052.0907    19132.426    15.567279    13.481624    26.140835    5486.2347 
   79500       79.487    347.32321    14.276625   -447.17238   -432.89576    452.79482   -11904.016   -1263.9909    14526.392    15.567282    13.481626    26.140818    5486.2327 
   80000       79.987    365.49999    15.023777   -447.90295   -432.87917    337.71425   -9422.3836   -7965.7063    18401.233    15.567284    13.481628      26.1408    5486.2307 
   80500       80.487    341.84911    14.051614   -446.91339   -432.86178    21.523558   -11552.901    -5582.474    17199.946    15.567286     13.48163    26.140783    5486.2287 
   81000       80.987    341.03543    14.018168   -446.86346   -432.84529    553.30842   -9551.0365   -5121.2341    16332.196    15.567289    13.481632    26.140765    5486.2267 
   81500       81.487     355.2065    14.600666   -447.42888   -432.82822   -196.82297   -11113.148   -4040.9985    14563.677    15.567291    13.481634    26.140748    5486.2247 
   82000       81.987    312.95737    12.864027   -445.67412    -432.8101     1160.265   -10806.856   -5589.7577    19877.409    15.567294    13.481636     26.14073    5486.2227 
   82500       82.487    324.54498    13.340333   -446.13379   -432.79345     1406.016   -9714.9712   -6520.7158    20453.735    15.567296    13.481638    26.140713    5486.2207 
   83000       82.987    339.96488    13.974163   -446.75022   -432.77606    2030.4696   -9281.6495   -6008.0539    21381.112    15.567298     13.48164    26.140695    5486.2187 
   83500       83.487    338.81065    13.926719   -446.68535   -432.75863    1321.4108   -9079.1838   -1913.7275    14957.144    15.567301    13.481642    26.140678    5486.2168 
   84000       83.987    351.81809    14.461386   -447.20238     -432.741    156.93379   -12208.495   -3782.8605    16462.157    15.567303    13.481644     26.14066    5486.2148 
   84500       84.487    332.21618    13.655655   -446.37863   -432.72298     303.3032    -10592.08   -7265.6403     18767.63    15.567306    13.481646    26.140643    5486.2128 
   85000       84.987    332.18414    13.654338   -446.36033   -432.70599    1674.0986   -6181.4034   -5311.3424    16515.042    15.567308    13.481648    26.140625    5486.2108 
   85500       85.487    356.88451     14.66964   -447.35754    -432.6879    1511.4493   -10656.897   -3417.6137    18608.859     15.56731     13.48165    26.140608    5486.2088 
   86000       85.987    354.71195    14.580337   -447.25065   -432.67032    1934.6857   -7237.2924   -5746.1697    18787.519    15.567313    13.481653     26.14059    5486.2068 
   86500       86.487    350.16454    14.393417   -447.04578   -432.65237    1729.1402   -11071.512   -5015.5991    21274.532    15.567315    13.481655    26.140573    5486.2048 
   87000       86.987    328.05756    13.484716   -446.11859   -432.63388    1711.2535   -10424.857   -3824.0159    19382.634    15.567318    13.481657    26.140555    5486.2028 
   87500       87.487    343.71424     14.12828   -446.74533   -432.61705    1047.7373   -8218.1198   -6137.2508    17498.582     15.56732    13.481659    26.140538    5486.2008 
   88000       87.987    343.44842    14.117353   -446.71622   -432.59887    1750.0164   -8336.0226   -7714.8737    21300.946    15.567322    13.481661     26.14052    5486.1988 
   88500       88.487    341.77362    14.048511   -446.62932   -432.58081    731.90898   -12000.103    -3658.885    17854.715    15.567325    13.481663    26.140503    5486.1968 
   89000       88.987    356.29932    14.645586   -447.20795   -432.56236   -955.86608   -10504.629   -6264.0003    13901.031    15.567327    13.481665    26.140485    5486.1948 
   89500       89.487    351.33763    14.441637   -446.98578   -432.54414    786.71595   -11654.174   -2687.7456    16702.068     15.56733    13.481667    26.140468    5486.1928 
   90000       89.987    344.95689    14.179359    -446.7045   -432.52514    1119.5998   -11014.075   -5900.3494    20273.224    15.567332    13.481669     26.14045    5486.1908 
   90500       90.487    346.73738    14.252545   -446.75863   -432.50609    865.82413   -9687.8649   -6408.5334    18693.871    15.567334    13.481671    26.140433    5486.1889 
   91000       90.987    342.30558    14.070377   -446.55804   -432.48766    2084.4484   -9447.7715   -4740.9182    20442.035    15.567337    13.481673    26.140415    5486.1869 
   91500       91.487    341.86258    14.052168   -446.52099   -432.46882    843.19073   -10759.283   -5722.2275    19011.083    15.567339    13.481675    26.140398    5486.1849 
   92000       91.987    358.70895    14.744633   -447.19539   -432.45076    71.756759   -10123.431   -7155.0846    17493.786    15.567342    13.481677     26.14038    5486.1829 
   92500       92.487    339.99795    13.975523   -446.40696   -432.43144    1959.3339   -8820.6843   -7609.4272    22308.113    15.567344    13.481679    26.140363    5486.1809 
   93000       92.987    334.40514    13.745632    -446.1578   -432.41217    1820.6231   -11032.474   -3623.9405    20118.284    15.567346    13.481681    26.140345    5486.1789 
   93500       93.487     340.8023    14.008585   -446.40143   -432.39285    744.95548   -11728.638    -4967.941    18931.445    15.567349    13.481683    26.140328    5486.1769 
   94000       93.987    364.09822    14.966158    -447.3406   -432.37444   -134.54236   -9879.6472   -6219.7373    15695.757    15.567351    13.481685     26.14031    5486.1749 
   94500       94.487    345.11311     14.18578    -446.5413   -432.35552    3175.0454   -6142.4765   -4132.8172     19800.43    15.567354    13.481687    26.140293    5486.1729 
   95000       94.987    356.43748    14.651265   -446.98734   -432.33608    804.41708   -9137.6216   -6067.0159    17617.889    15.567356    13.481689    26.140275    5486.1709 
   95500       95.487    336.96616    13.850902   -446.16738   -432.31648    375.62457   -12606.802   -4094.1437     17827.82    15.567358    13.481691    26.140258    5486.1689 
   96000       95.987    342.28192    14.069405   -446.36561   -432.29621     928.0987   -8184.6954   -5122.4288     16091.42    15.567361    13.481694     26.14024    5486.1669 
   96500       96.487    341.01582    14.017362   -446.29479   -432.27743    2146.4378   -9807.9148   -2928.5503    19175.779    15.567363    13.481696    26.140223    5486.1649 
   97000       96.987    343.26256    14.109714   -446.36691    -432.2572    1567.9809    -7900.006   -5849.3049    18453.254    15.567366    13.481698    26.140205     5486.163 
   97500       97.487     344.1054    14.144358   -446.38217   -432.23781    204.22603   -12423.909    -1727.256    14763.843    15.567368      13.4817    26.140188     5486.161 
   98000       97.987    330.14606    13.570563    -445.7881   -432.21753     2773.929   -12100.138   -2128.0704    22549.996     15.56737    13.481702     26.14017     5486.159 
   98500       98.487     336.0413    13.812886   -446.01086   -432.19798    1395.2571   -9251.6693   -6873.1544    20310.595    15.567373    13.481704    26.140153     5486.157 
   99000       98.987    333.46696    13.707068   -445.88502   -432.17796    1968.2711     -7970.23   -5812.2281    19687.271    15.567375    13.481706    26.140135     5486.155 
   99500       99.487    347.04337    14.265123   -446.42252    -432.1574    1305.7872   -9672.1655   -2514.3543    16103.881    15.567378    13.481708    26.140118     5486.153 
  100000       99.987    353.96715    14.549723   -446.68723   -432.13751    151.93111   -10531.518   -5321.4856    16308.797     15.56738     13.48171      26.1401     5486.151 
  100500      100.487    342.61495    14.083094    -446.1999   -432.11681   -69.855795   -12234.493   -4021.0416    16045.967    15.567382    13.481712    26.140083     5486.149 
  101000      100.987    351.35958    14.442539   -446.53958   -432.09704    857.35013   -10810.161   -2331.7739    15713.985    15.567385    13.481714    26.140065     5486.147 
  101500      101.487    344.21166    14.148726    -446.2247   -432.07598    1149.6982   -11259.185   -5240.6124    19948.892    15.567387    13.481716    26.140048     5486.145 
  102000      101.987    340.13886    13.981315   -446.03722   -432.05591    1347.4238   -9478.5826   -2402.3318    15923.186     15.56739    13.481718     26.14003     5486.143 
  102500      102.487    345.36518    14.196141   -446.23128   -432.03514    1377.8769   -10178.587   -3990.4426     18302.66    15.567392     13.48172    26.140013     5486.141 
  103000      102.987    361.31989    14.851955   -446.86713   -432.01518    271.90845   -10925.865   -3606.7956    15348.386    15.567394    13.481722    26.139995     5486.139 
  103500      103.487    364.76196     14.99344   -446.98831   -431.99487    723.28104   -9362.1494   -3407.4122    14939.405    15.567397    13.481724    26.139978     5486.137 
  104000      103.987    365.47365    15.022694   -446.99609   -431.97339    581.64222   -10449.996   -4671.0707    16865.994    15.567399    13.481726     26.13996    5486.1351 
  104500      104.487    347.74408    14.293925   -446.24599   -431.95206    1219.1546   -9366.6269   -2763.1719    15787.263    15.567402    13.481728    26.139943    5486.1331 
  105000      104.987    334.32629    13.742391   -445.67324   -431.93085    1170.4637    -9639.919   -5880.7396     19032.05    15.567404     13.48173    26.139925    5486.1311 
  105500      105.487    354.69652    14.579703   -446.48989   -431.91019    2010.0629   -8837.9312   -3842.6298     18710.75    15.567406    13.481732    26.139908    5486.1291 
  106000      105.987    355.80836    14.625405   -446.51394   -431.88854    605.31218     -11201.5    -5800.537    18817.973    15.567409    13.481735     26.13989    5486.1271 
  106500      106.487    347.49965    14.283878   -446.15139   -431.86751    1667.3074   -8765.0687   -4648.8309    18415.822    15.567411    13.481737    26.139873    5486.1251 
  107000      106.987    334.46418    13.748058   -445.59424   -431.84618    2635.2159   -8283.5735   -3954.6166    20143.838    15.567414    13.481739    26.139855    5486.1231 
  107500      107.487     348.8005    14.337349   -446.16233   -431.82498    493.48083   -9548.9173   -3296.9855    14326.345    15.567416    13.481741    26.139838    5486.1211 
  108000      107.987    336.21881    13.820182   -445.62327   -431.80309    680.67106   -10345.111   -5418.8676    17805.991    15.567418    13.481743     26.13982    5486.1191 
  108500      108.487     383.2371    15.752856   -447.53511   -431.78225    37.166305    -11229.05   -3523.7244    14864.274    15.567421    13.481745    26.139803    5486.1171 
  109000      108.987    341.59964     14.04136   -445.80183   -431.76047    2192.9534   -8811.0604   -4498.4641    19888.385    15.567423    13.481747    26.139785    5486.1151 
  109500      109.487    366.16585    15.051147   -446.79044   -431.73929    1942.3743   -8373.8265   -4591.7954    18792.745    15.567426    13.481749    26.139768    5486.1131 
  110000      109.987    335.16653    13.776928   -445.49429   -431.71736    2510.0707   -9623.7464   -6540.7108    23694.669    15.567428    13.481751     26.13975    5486.1111 
  110500      110.487    344.69125    14.168439   -445.86414    -431.6957    1337.1314   -8045.3011   -4762.5978    16819.293     15.56743    13.481753    26.139733    5486.1091 
  111000      110.987    352.16471    14.475634   -446.14997   -431.67434    1159.7724   -11321.367   -4665.7601    19466.445    15.567433    13.481755    26.139715    5486.1072 
  111500      111.487     353.3094    14.522686   -446.17496   -431.65227    1516.9755   -7335.1047   -4866.8622    16752.893    15.567435    13.481757    26.139698    5486.1052 
  112000      111.987    348.83769    14.338878   -445.96966   -431.63078    830.92403   -12266.376   -5140.9829    19900.131    15.567438    13.481759     26.13968    5486.1032 
  112500      112.487    351.28133    14.439323   -446.04809   -431.60877    2541.5784   -8751.9746   -2666.1051    19042.815     15.56744    13.481761    26.139663    5486.1012 
  113000      112.987    381.61303    15.686099   -447.27332   -431.58722    530.48378   -7741.9358   -9358.1258    18691.513    15.567442    13.481763    26.139645    5486.0992 
  113500      113.487    348.61095    14.329558   -445.89387   -431.56432    2026.4001   -9321.6756   -2548.9236    17949.799    15.567445    13.481765    26.139628    5486.0972 
  114000      113.987    346.61533    14.247528   -445.78985   -431.54232    1497.1712   -7568.8703   -5306.2406    17366.624    15.567447    13.481767     26.13961    5486.0952 
  114500      114.487    363.19202    14.928908   -446.44917   -431.52026    290.41319   -13146.451   -3597.5227    17615.213     15.56745    13.481769    26.139593    5486.0932 
  115000      114.987    344.63902    14.166292   -445.66406   -431.49777    3126.0852   -6544.6264   -2007.3163    17930.198    15.567452    13.481771    26.139575    5486.0912 
  115500      115.487    351.25898    14.438404   -445.91405   -431.47565    1717.3874   -7911.5866   -5083.4238    18147.173    15.567454    13.481773    26.139558    5486.0892 
  116000      115.987    362.33729    14.893775   -446.34738   -431.45361    1131.6525   -7368.3183    -6647.853    17411.129    15.567457    13.481776     26.13954    5486.0872 
  116500      116.487    363.48224    14.940838   -446.37224    -431.4314    1264.8021   -10256.348   -3314.2299    17364.984    15.567459    13.481778    26.139523    5486.0852 
  117000      116.987    358.63958    14.741782    -446.1505   -431.40872    1665.5672   -9065.3125    -3406.634    17468.648    15.567462     13.48178    26.139505    5486.0832 
  117500      117.487    369.70007     15.19642   -446.58341   -431.38699    1208.0418    -9653.518   -3902.9776    17180.621    15.567464    13.481782    26.139488    5486.0812 
  118000      117.987    368.77652    15.158458    -446.5226   -431.36414    1891.7053   -7672.0609   -3224.8842    16572.061    15.567466    13.481784     26.13947    5486.0793 
  118500      118.487    353.97499    14.550045   -445.89082   -431.34077    2597.7773   -10057.583   -3797.5881    21648.503    15.567469    13.481786    26.139453    5486.0773 
  119000      118.987    364.33226    14.975778   -446.29404   -431.31827    1483.0715   -7157.5245    -4491.641     16098.38    15.567471    13.481788    26.139435    5486.0753 
  119500      119.487    352.89445     14.50563   -445.80142   -431.29579    1484.7223   -11628.775   -4694.4563    20777.398    15.567474     13.48179    26.139418    5486.0733 
  120000      119.987    356.90786      14.6706   -445.94431   -431.27371    907.98721   -9024.5665   -6323.7667    18072.295    15.567476    13.481792      26.1394    5486.0713 
  120500      120.487    357.08327     14.67781   -445.92852   -431.25071    1197.5119   -11688.215   -2555.8722    17836.623    15.567478    13.481794    26.139383    5486.0693 
  121000      120.987     364.9858    15.002641   -446.22992   -431.22728    387.07159   -9391.4016   -7726.7838      18279.4    15.567481    13.481796    26.139365    5486.0673 
  121500      121.487    364.16079     14.96873   -446.17401   -431.20528    2137.2058   -9089.6305   -7468.8202    22970.068    15.567483    13.481798    26.139348    5486.0653 
  122000      121.987    358.94714    14.754424   -445.93636   -431.18193    691.76972   -10540.332   -6782.5177    19398.159    15.567486      13.4818     26.13933    5486.0633 
  122500      122.487    344.55042    14.162651    -445.3215   -431.15884    3953.9943   -5262.3012   -3270.9207    20395.205    15.567488    13.481802    26.139313    5486.0613 
  123000      122.987    349.26641      14.3565   -445.49307   -431.13657    2014.7784   -10344.766   -5318.5682     21707.67     15.56749    13.481804    26.139295    5486.0593 
  123500      123.487    362.77991    14.911969   -446.02524   -431.11328    1038.6936   -7469.0611   -9109.1906    19694.333    15.567493    13.481806    26.139278    5486.0573 
  124000      123.987    344.89871    14.176967   -445.26813   -431.09117    2363.1773   -7554.7576   -5068.9965    19713.286    15.567495    13.481808     26.13926    5486.0553 
  124500      124.487    346.20638    14.230718   -445.29857   -431.06785    1553.3292   -10791.146   -5676.2592    21127.393    15.567498     13.48181    26.139243    5486.0533 
  125000      124.987    377.03247    15.497817   -446.54337   -431.04556     1946.169   -8888.2922   -5323.4042    20050.203      15.5675    13.481812    26.139225    5486.0514 
  125500      125.487    359.89867    14.793536   -445.81627   -431.02274    2071.7712   -10386.082   -5410.4902    22011.886    15.567502    13.481814    26.139208    5486.0494 
  126000      125.987    365.76921    15.034843   -446.03467   -430.99983    1084.0229    -12168.79   -4287.3131    19708.172    15.567505    13.481817     26.13919    5486.0474 
  126500      126.487    373.56664    15.355355   -446.33223   -430.97688    2476.4727   -13011.683   -3043.8229    23484.924    15.567507    13.481819    26.139173    5486.0454 
  127000      126.987    353.92234    14.547881   -445.50168   -430.95379    682.92329   -9956.3942   -6952.4156     18957.58     15.56751    13.481821    26.139155    5486.0434 
  127500      127.487     368.1773    15.133827   -446.06461   -430.93078    1924.8366   -7564.6025   -3822.0674     17161.18    15.567512    13.481823    26.139138    5486.0414 
  128000      127.987    364.17521    14.969322   -445.87671   -430.90739    2573.1728   -7844.3106   -5079.8806     20643.71    15.567514    13.481825     26.13912    5486.0394 
  128500      128.487    359.11096    14.761158   -445.64456    -430.8834    1583.7926   -9132.5174   -5709.9741    19593.869    15.567517    13.481827    26.139103    5486.0374 
  129000      128.987    365.89562    15.040039   -445.90014   -430.86011    1411.3518   -10119.135   -1582.0141    15935.204    15.567519    13.481829    26.139085    5486.0354 
  129500      129.487    353.49498    14.530314   -445.36709   -430.83678    2632.0947   -9206.4015   -1160.5248     18263.21    15.567522    13.481831    26.139068    5486.0334 
  130000      129.987    374.79103    15.405683   -446.21965   -430.81397    745.67348   -7337.1928   -8664.9558    18239.169    15.567524    13.481833     26.13905    5486.0314 
  130500      130.487    348.91405    14.342017   -445.13198   -430.78996    3275.1153   -8459.6157   -1865.6682     20150.63    15.567526    13.481835    26.139033    5486.0294 
  131000      130.987    354.33968    14.565035   -445.33192   -430.76689    2919.2297   -8762.6339   -4941.2013    22461.524    15.567529    13.481837    26.139015    5486.0274 
  131500      131.487    380.09704    15.623785   -446.36732   -430.74353    1784.3976   -8868.1524   -3143.5436    17364.889    15.567531    13.481839    26.138998    5486.0254 
  132000      131.987    356.27722    14.644677   -445.36499   -430.72032    1330.7622   -12150.234   -2128.4622    18270.983    15.567534    13.481841     26.13898    5486.0235 
  132500      132.487    372.18151    15.298419   -445.99625   -430.69783    3373.5284   -8912.2864   -2928.3206    21961.192    15.567536    13.481843    26.138963    5486.0215 
  133000      132.987    361.80504    14.871897   -445.54571   -430.67381    1401.8298   -8898.9311   -7116.4474    20220.868    15.567538    13.481845    26.138945    5486.0195 
  133500      133.487    371.83546    15.284195   -445.93476   -430.65057    1217.9421   -10099.131   -4312.4441    18065.402    15.567541    13.481847    26.138928    5486.0175 
  134000      133.987    395.98272    16.276761   -446.90413   -430.62737    1732.0162   -7248.5487    -4399.494    16844.091    15.567543    13.481849     26.13891    5486.0155 
  134500      134.487    357.85546    14.709551   -445.31265    -430.6031    3226.1878   -8810.7161   -1624.5229    20113.802    15.567546    13.481851    26.138893    5486.0135 
  135000      134.987    357.12521    14.679534   -445.25862   -430.57909    2531.6025   -8629.5235   -3817.3826    20041.714    15.567548    13.481853    26.138875    5486.0115 
  135500      135.487    355.61141     14.61731   -445.17318   -430.55587    1896.3766    -9388.584   -3144.0404    18221.754     15.56755    13.481855    26.138858    5486.0095 
  136000      135.987     369.5428    15.189956    -445.7217   -430.53174    1655.9237   -10026.013   -3881.8981    18875.682    15.567553    13.481858     26.13884    5486.0075 
  136500      136.487    374.04186    15.374888   -445.88295   -430.50806     1554.975   -11878.482   -6225.2043    22768.612    15.567555     13.48186    26.138823    5486.0055 
  137000      136.987    366.99615    15.085276   -445.56952   -430.48425    2270.9099   -10271.168     -3774.73    20858.627    15.567558    13.481862    26.138805    5486.0035 
  137500      137.487    354.83195     14.58527    -445.0457   -430.46043    3535.7293   -8681.0802   -5273.8446    24562.113     15.56756    13.481864    26.138788    5486.0015 
  138000      137.987    349.64788     14.37218   -444.80915   -430.43697    2193.8636   -7676.1302   -4958.0401    19215.761    15.567562    13.481866     26.13877    5485.9995 
  138500      138.487    354.38625     14.56695   -444.98024   -430.41329    2554.8998   -9558.6746   -5990.9796    23214.354    15.567565    13.481868    26.138753    5485.9975 
  139000      138.987    379.63003    15.604588   -445.99423   -430.38965    1988.0096   -8887.1476   -2603.6541     17454.83    15.567567     13.48187    26.138735    5485.9955 
  139500      139.487    386.39117    15.882503   -446.24873   -430.36623    2467.9561    -12120.73   -2805.7064    22330.304     15.56757    13.481872    26.138718    5485.9936 
  140000      139.987    363.44678     14.93938   -445.28148    -430.3421     2143.405   -9196.7005   -2906.2716    18533.187    15.567572    13.481874      26.1387    5485.9916 
  140500      140.487    344.78374    14.172241   -444.48978   -430.31754    2392.4979   -8381.2973   -6394.5137    21953.305    15.567574    13.481876    26.138683    5485.9896 
  141000      140.987    395.21095    16.245038   -446.53912   -430.29408    1094.5595   -10073.443   -4595.9235    17953.045    15.567577    13.481878    26.138665    5485.9876 
  141500      141.487    367.22305    15.094603   -445.36451   -430.26991     2370.835   -7506.6277   -6761.5327    21380.665    15.567579     13.48188    26.138648    5485.9856 
  142000      141.987    387.11685    15.912332   -446.15831   -430.24598      2372.62   -8706.0922   -6738.2406    22562.193    15.567582    13.481882     26.13863    5485.9836 
  142500      142.487    350.05678    14.388988   -444.61023   -430.22124    1981.4696   -7609.7069   -4141.9868    17696.102    15.567584    13.481884    26.138613    5485.9816 
  143000      142.987    369.96964    15.207501    -445.4051    -430.1976    1867.8314   -9855.0204   -5779.0579    21237.572    15.567586    13.481886    26.138595    5485.9796 
  143500      143.487    369.04471    15.169482   -445.34383   -430.17435    1930.8867    -9284.469   -4960.2923    20037.421    15.567589    13.481888    26.138578    5485.9776 
  144000      143.987    371.31814     15.26293   -445.41262   -430.14969    1614.9207   -6759.6295   -6334.7329    17939.125    15.567591     13.48189     26.13856    5485.9756 
  144500      144.487    360.30023    14.810042   -444.93549   -430.12545    2745.4416   -9329.3663   -3958.1982    21523.889    15.567594    13.481892    26.138543    5485.9736 
  145000      144.987    375.07988    15.417556   -445.51966   -430.10211    3475.7019   -7769.0382   -8726.4242    26922.568    15.567596    13.481894    26.138525    5485.9716 
  145500      145.487     365.7711    15.034921   -445.11239   -430.07746    2569.0811   -8221.3241   -6420.0898    22348.657    15.567598    13.481896    26.138508    5485.9696 
  146000      145.987     387.0171    15.908232   -445.96155   -430.05331    2507.7143   -6082.1294   -5339.3735    18944.646    15.567601    13.481899     26.13849    5485.9676 
  146500      146.487    355.09004    14.595879   -444.62401   -430.02813    2706.4816    -7580.203   -3654.9421     19354.59    15.567603    13.481901    26.138473    5485.9657 
  147000      146.987     369.7472    15.198357   -445.20353   -430.00518    2988.0169   -8529.4473    -2404.456    19897.954    15.567606    13.481903    26.138455    5485.9637 
  147500      147.487    388.17474    15.955816   -445.93702    -429.9812    2392.6415   -6939.0126   -6495.0039    20611.941    15.567608    13.481905    26.138438    5485.9617 
  148000      147.987    379.77187    15.610419   -445.56661   -429.95619    2537.7066   -9437.2537   -3572.2499    20622.623     15.56761    13.481907     26.13842    5485.9597 
  148500      148.487    392.71333    16.142374   -446.07474   -429.93237    1618.6982   -7436.5597   -6375.8928    18668.547    15.567613    13.481909    26.138403    5485.9577 
  149000      148.987    392.50907    16.133978   -446.04082   -429.90684    2533.8604   -7770.6952   -3978.6787    19350.955    15.567615    13.481911    26.138385    5485.9557 
  149500      149.487    377.16104    15.503101    -445.3854    -429.8823    2311.2373   -6528.8249   -5841.9019    19304.439    15.567618    13.481913    26.138368    5485.9537 
  150000      149.987    381.85781    15.696161   -445.55449   -429.85833    2635.8075   -9326.5176   -6486.6423    23720.582     15.56762    13.481915     26.13835    5485.9517 
  150500      150.487    376.19844    15.463534   -445.29744    -429.8339     3398.995   -9200.1535   -438.64782    19835.786    15.567622    13.481917    26.138333    5485.9497 
  151000      150.987    384.20482    15.792634   -445.60214   -429.80951    2509.1268   -9926.1937   -1769.8339    19223.408    15.567625    13.481919    26.138315    5485.9477 
  151500      151.487     372.7825    15.323122   -445.10752    -429.7844    2910.4152   -7921.1666   -255.01419    16907.426    15.567627    13.481921    26.138298    5485.9457 
  152000      151.987    364.89711    14.998996   -444.75883   -429.75984    2736.1888   -9440.0497   -3131.8318    20780.448     15.56763    13.481923     26.13828    5485.9437 
  152500      152.487    384.11839    15.789081   -445.52527   -429.73619     2348.802   -8796.2194   -4218.9555    20061.581    15.567632    13.481925    26.138263    5485.9417 
  153000      152.987    379.07228    15.581662   -445.29365   -429.71199    2441.3482   -6899.9271   -4192.6517    18416.624    15.567634    13.481927    26.138245    5485.9397 
  153500      153.487    369.86108    15.203038   -444.89057   -429.68753    1262.2596   -8450.2599    -5290.418    17527.457    15.567637    13.481929    26.138228    5485.9378 
  154000      153.987    377.78726    15.528842     -445.192   -429.66316    2205.7952   -6956.7992   -3320.5928    16894.777    15.567639    13.481931     26.13821    5485.9358 
  154500      154.487    402.33001    16.537665   -446.17629   -429.63862    2183.3588   -9010.1166   -7202.3617    22762.555    15.567642    13.481933    26.138193    5485.9338 
  155000      154.987    365.52937    15.024984   -444.63818   -429.61319     3371.475    -7984.612   -3378.0065    21477.044    15.567644    13.481935    26.138175    5485.9318 
  155500      155.487      389.479    16.009428   -445.59871   -429.58928    853.25705   -10255.436   -5309.5027     18124.71    15.567646    13.481937    26.138158    5485.9298 
  156000      155.987    383.71539    15.772516   -445.33722   -429.56471    2646.9219    -9004.502   -3470.5929    20415.861    15.567649     13.48194     26.13814    5485.9278 
  156500      156.487    370.10628    15.213117   -444.75287   -429.53975    2784.6429   -8637.7886   -4421.5953    21413.313    15.567651    13.481942    26.138123    5485.9258 
  157000      156.987    384.68135    15.812221   -445.32763   -429.51541     3720.341    -10690.72   -3415.3222    25267.065    15.567654    13.481944    26.138105    5485.9238 
  157500      157.487    383.04112      15.7448   -445.23527   -429.49047    2646.0299   -9982.5365   -2868.6304    20789.257    15.567656    13.481946    26.138088    5485.9218 
  158000      157.987     380.6964    15.648421   -445.11384   -429.46542    1823.2511   -11515.741   -1714.0908    18699.585    15.567658    13.481948     26.13807    5485.9198 
  158500      158.487    382.21996    15.711047    -445.1519   -429.44085    1867.5799   -8373.7975   -6845.6358    20822.173    15.567661     13.48195    26.138053    5485.9178 
  159000      158.987    356.89208    14.669951   -444.08589   -429.41593    3187.7115   -8787.7557   -1287.1082    19637.998    15.567663    13.481952    26.138035    5485.9158 
  159500      159.487    392.66105    16.140225   -445.53023   -429.39001    1945.9443   -6961.0075   -7287.7075    20086.548    15.567666    13.481954    26.138018    5485.9138 
  160000      159.987    386.64602    15.892979   -445.25842   -429.36544    2569.9322   -7756.2207   -4744.6885    20210.706    15.567668    13.481956       26.138    5485.9118 
  160500      160.487    347.89362    14.300072   -443.64008   -429.34001    3376.3476   -6865.5513   -3540.5391    20535.133     15.56767    13.481958    26.137983    5485.9098 
  161000      160.987     375.6477    15.440896    -444.7573   -429.31641    2777.3767   -7698.4821   -3876.3253    19906.937    15.567673     13.48196    26.137965    5485.9079 
  161500      161.487    375.30809    15.426936    -444.7175   -429.29057    1859.9716   -10733.955    -3582.385    19896.255    15.567675    13.481962    26.137948    5485.9059 
  162000      161.987    369.34299    15.181743   -444.44763   -429.26589    3814.7118   -8300.7243   -1803.7376    21548.597    15.567678    13.481964     26.13793    5485.9039 
  162500      162.487    358.42916    14.733132   -443.97396   -429.24082    3124.9411   -8753.1901   -5289.5552    23417.569     15.56768    13.481966    26.137913    5485.9019 
  163000      162.987     390.2567    16.041395   -445.25762   -429.21623    2585.3024   -9381.8526   -5101.9314    22239.691    15.567682    13.481968    26.137895    5485.8999 
  163500      163.487    388.83946    15.983139   -445.17407   -429.19093     3559.734   -8506.0378   -4836.0664    24021.306    15.567685     13.48197    26.137878    5485.8979 
  164000      163.987     408.6347    16.796817   -445.96366   -429.16685     1755.567   -9964.9222   -4726.4098    19958.033    15.567687    13.481972     26.13786    5485.8959 
  164500      164.487    376.72402    15.485137   -444.62604    -429.1409    4039.8441   -7401.3264    -2529.501     22050.36     15.56769    13.481974    26.137843    5485.8939 
  165000      164.987    371.90132    15.286902   -444.40279   -429.11589    2648.1877   -7797.9711    -4497.405    20239.939    15.567692    13.481976    26.137825    5485.8919 
  165500      165.487    405.48702    16.667433   -445.75846   -429.09103    2323.3791   -10758.009   -2733.1041     20461.25    15.567694    13.481978    26.137808    5485.8899 
  166000      165.987    383.04138    15.744811   -444.80963   -429.06482    3172.5572   -6286.7305   -6736.1917    22540.594    15.567697    13.481981     26.13779    5485.8879 
  166500      166.487    373.37486    15.347472   -444.38661   -429.03914    2946.3164   -7766.7412   -3923.3291    20529.019    15.567699    13.481983    26.137773    5485.8859 
  167000      166.987    385.51687    15.846565   -444.86006   -429.01349    2398.1464    -9338.664   -3637.0854    20170.189    15.567702    13.481985    26.137755    5485.8839 
  167500      167.487    399.83553     16.43513   -445.42501   -428.98988     2169.937   -10028.122   -3740.8001    20278.733    15.567704    13.481987    26.137738    5485.8819 
  168000      167.987    387.69769    15.936207   -444.90044   -428.96423    3037.8264   -8201.8922   -4586.2095    21901.581    15.567706    13.481989     26.13772      5485.88 
  168500      168.487    393.64978    16.180867   -445.11997   -428.93911    3701.6985   -3752.8867   -9078.4115    23936.394    15.567709    13.481991    26.137703     5485.878 
  169000      168.987    397.40315    16.335148   -445.24888   -428.91373    3457.2479   -10433.662   -4577.0997    25382.506    15.567711    13.481993    26.137685     5485.876 
  169500      169.487    377.04166    15.498194   -444.38682   -428.88862    3817.1021    -7618.704   -1785.0644    20855.075    15.567714    13.481995    26.137668     5485.874 
  170000      169.987    394.57354    16.218837   -445.08219   -428.86335    3143.7413   -8421.3915   -407.34604    18259.961    15.567716    13.481997     26.13765     5485.872 
  170500      170.487    374.77493    15.405021   -444.24302     -428.838    3235.6966   -9361.4981   -1078.2682    20146.856    15.567718    13.481999    26.137633      5485.87 
  171000      170.987    380.61145    15.644929   -444.45759   -428.81266    2726.1412   -9225.9576   -4071.9692     21476.35    15.567721    13.482001    26.137615     5485.868 
  171500      171.487    388.51775    15.969916   -444.75632    -428.7864    2863.2895   -7362.0157   -4682.9583    20634.843    15.567723    13.482003    26.137598     5485.866 
  172000      171.987     385.4076    15.842074   -444.60348   -428.76141    2419.5763   -9013.3723   -1429.5277    17701.629    15.567726    13.482005     26.13758     5485.864 
  172500      172.487    391.64765    16.098569   -444.83387    -428.7353    2645.4104   -7880.1122   -4782.8119    20599.155    15.567728    13.482007    26.137563     5485.862 
  173000      172.987    383.71866     15.77265   -444.48224   -428.70959    4271.4647   -6069.5874   -6370.4618    25254.443     15.56773    13.482009    26.137545      5485.86 
  173500      173.487    403.73241     16.59531   -445.27946   -428.68415    3158.5678   -8461.9212   -4742.0115    22679.636    15.567733    13.482011    26.137528     5485.858 
  174000      173.987    381.58037    15.684757   -444.34318   -428.65842    3754.9609   -8765.1215   -3069.6246    23099.629    15.567735    13.482013     26.13751     5485.856 
  174500      174.487    404.16988    16.613292   -445.24581   -428.63252    3738.9122   -6125.6738   -4554.8961    21897.306    15.567738    13.482015    26.137493     5485.854 
  175000      174.987    413.41148    16.993166   -445.60044   -428.60727     1124.654   -11307.746   -4272.3565    18954.064     15.56774    13.482017    26.137475    5485.8521 
  175500      175.487     387.0492    15.909551   -444.49043   -428.58088    3274.6845   -8831.3105   -5973.4046    24628.769    15.567742    13.482019    26.137458    5485.8501 
  176000      175.987     383.1397    15.748852    -444.3043   -428.55544    3488.6132   -6491.8741   -4025.5585    20983.272    15.567745    13.482022     26.13744    5485.8481 
  176500      176.487    383.21264    15.751851   -444.28137   -428.52952    3123.8873   -6568.9677   -2564.6439    18505.274    15.567747    13.482024    26.137423    5485.8461 
  177000      176.987     387.6732    15.935201   -444.43815   -428.50295    3774.1638   -6222.9952   -5363.8883    22909.375     15.56775    13.482026    26.137405    5485.8441 
  177500      177.487    396.89336    16.314193   -444.79165   -428.47746     2018.661   -7114.4877   -5976.6082    19147.079    15.567752    13.482028    26.137388    5485.8421 
  178000      177.987    383.02086    15.743967   -444.19478   -428.45081    2834.8258   -7240.2808   -5148.5087    20893.267    15.567754     13.48203     26.13737    5485.8401 
  178500      178.487    402.29063    16.536046   -444.96081   -428.42476    3734.2452   -7494.1519   -2179.7298    20876.617    15.567757    13.482032    26.137353    5485.8381 
  179000      178.987    393.76192    16.185476   -444.58476   -428.39929    3399.1446   -7027.4145   -5227.8648    22452.713    15.567759    13.482034    26.137335    5485.8361 
  179500      179.487    389.79459      16.0224   -444.39606   -428.37366    3737.4199   -8652.7548   -3739.1813    23604.196    15.567762    13.482036    26.137318    5485.8341 
  180000      179.987    372.44399    15.309208   -443.65691    -428.3477    3230.5903   -7783.0691    -6818.464    24293.304    15.567764    13.482038      26.1373    5485.8321 
  180500      180.487    398.59597    16.384178   -444.70667   -428.32249    3597.6531   -8107.6362   -4970.4075    23871.003    15.567766     13.48204    26.137283    5485.8301 
  181000      180.987    391.20762    16.080482   -444.37608    -428.2956    3420.6558   -8521.5331   -4822.9631    23606.464    15.567769    13.482042    26.137265    5485.8281 
  181500      181.487    363.35936    14.935787   -443.20424   -428.26845    4191.4511   -7260.8478   -2862.9656    22698.167    15.567771    13.482044    26.137248    5485.8261 
  182000      181.987    388.78407    15.980863   -444.22431   -428.24345    3167.0587   -7786.6244   -5308.7529    22596.554    15.567774    13.482046     26.13723    5485.8241 
  182500      182.487    407.74886    16.760405   -444.97758   -428.21718    3126.4206   -8832.5979   -3045.6901     21257.55    15.567776    13.482048    26.137213    5485.8222 
  183000      182.987    384.55202    15.806906   -443.99714   -428.19024    3045.7056   -8020.9818   -4515.3452    21673.444    15.567778     13.48205    26.137195    5485.8202 
  183500      183.487    401.67558    16.510765   -444.67555   -428.16479    4665.5524   -7282.8707   -2713.2117     23992.74    15.567781    13.482052    26.137178    5485.8182 
  184000      183.987    399.57004    16.424217   -444.56296   -428.13874    3192.9767   -6264.9538   -6285.9284    22129.812    15.567783    13.482054     26.13716    5485.8162 
  184500      184.487    389.59826     16.01433   -444.12615   -428.11182    2669.9194   -8331.5641   -7138.4034    23479.726    15.567786    13.482056    26.137143    5485.8142 
  185000      184.987    379.37007    15.593903   -443.67921   -428.08531    3821.8569   -7716.7922   -3655.6184    22837.981    15.567788    13.482058    26.137125    5485.8122 
  185500      185.487    410.09241    16.856736   -444.91644    -428.0597    3019.4863   -7128.3396   -3687.1752    19873.974     15.56779     13.48206    26.137108    5485.8102 
  186000      185.987    406.62649     16.71427    -444.7473   -428.03303    2504.8099   -8761.6436   -2628.4185    18904.492    15.567793    13.482063     26.13709    5485.8082 
  186500      186.487    407.52993    16.751406   -444.75864   -428.00723    2875.5239   -8144.8451   -927.53006    17698.947    15.567795    13.482065    26.137073    5485.8062 
  187000      186.987    400.09439     16.44577   -444.42654   -427.98077    3379.6644   -8695.9462   -6556.6302     25391.57    15.567798    13.482067    26.137055    5485.8042 
  187500      187.487    389.13252    15.995186   -443.94881   -427.95363    3409.2695   -7068.3656   -3542.2208    20838.395      15.5678    13.482069    26.137038    5485.8022 
  188000      187.987    426.81316    17.544038   -445.47277   -427.92873     2361.595    -10054.99   -4422.5394    21562.315    15.567802    13.482071     26.13702    5485.8002 
  188500      188.487    402.26036    16.534802   -444.43644   -427.90164    3915.1488    -6545.047   -3587.4146    21877.908    15.567805    13.482073    26.137003    5485.7982 
  189000      188.987    389.92586    16.027796   -443.90301   -427.87522    4027.8867   -6241.6086   -4512.1647    22837.433    15.567807    13.482075    26.136985    5485.7962 
  189500      189.487    392.16524    16.119845   -443.96893   -427.84909    3239.6303   -8471.5754   -2812.7398    21003.206     15.56781    13.482077    26.136968    5485.7942 
  190000      189.987    387.67229    15.935163   -443.75801   -427.82285    3590.0898   -8343.4221   -3914.1459    23027.837    15.567812    13.482079     26.13695    5485.7923 
  190500      190.487    396.19337     16.28542   -444.08068   -427.79526    3675.7822   -7840.9825   -3891.1483    22759.477    15.567814    13.482081    26.136933    5485.7903 
  191000      190.987    423.93653    17.425795    -445.1959   -427.77011     3416.851    -6444.013    -3518.053    20212.619    15.567817    13.482083    26.136915    5485.7883 
  191500      191.487    387.67491    15.935271   -443.67798    -427.7427    4100.8658   -7764.9468   -2826.5202    22894.064    15.567819    13.482085    26.136898    5485.7863 
  192000      191.987    398.49619    16.380077   -444.09639   -427.71631    3050.9294   -9378.7782   -7024.0595    25555.626    15.567822    13.482087     26.13688    5485.7843 
  192500      192.487    401.96162    16.522522   -444.21254   -427.69002    3189.8433   -8185.1274   -4019.9602    21774.618    15.567824    13.482089    26.136863    5485.7823 
  193000      192.987    395.42022     16.25364   -443.91664     -427.663    2074.1566   -9786.0623   -3540.6729    19549.205    15.567826    13.482091    26.136845    5485.7803 
  193500      193.487    391.49433    16.092267   -443.72935   -427.63708    4015.1188   -5448.7515   -2273.3317     19767.44    15.567829    13.482093    26.136828    5485.7783 
  194000      193.987    410.54964    16.875531   -444.48605   -427.61052    3963.1179   -5766.5837   -5810.7284    23466.666    15.567831    13.482095     26.13681    5485.7763 
  194500      194.487    417.75775    17.171818   -444.75615   -427.58434    2726.2728   -5998.2141   -5961.6774     20138.71    15.567834    13.482097    26.136793    5485.7743 
  195000      194.987    403.76493    16.596647   -444.15393   -427.55728    4615.5226   -8068.1965   -247.36481    22162.129    15.567836    13.482099    26.136775    5485.7723 
  195500      195.487    407.07824     16.73284   -444.26414    -427.5313    2887.4694   -10528.921   -3452.4707      22643.8    15.567838    13.482101    26.136758    5485.7703 
  196000      195.987    416.41421    17.116592   -444.62105   -427.50446    3651.1647    -8675.417   -3357.6475    22986.559    15.567841    13.482104     26.13674    5485.7683 
  196500      196.487    427.94508    17.590565   -445.06894   -427.47837    3450.4641   -6937.3187   -1650.4435    18939.155    15.567843    13.482106    26.136723    5485.7663 
  197000      196.987     400.5868    16.466011   -443.91634   -427.45033    2569.3207   -7490.1266   -5715.5625    20913.651    15.567846    13.482108    26.136705    5485.7644 
  197500      197.487    401.97194    16.522947   -443.94707   -427.42413    5095.7734   -6874.0532   -4031.7033    26193.077    15.567848     13.48211    26.136688    5485.7624 
  198000      197.987    387.17353    15.914662   -443.31187   -427.39721    2817.5225   -8002.2761   -3542.9256    19997.769     15.56785    13.482112     26.13667    5485.7604 
  198500      198.487    402.14962     16.53025   -443.90105    -427.3708    2352.4705   -5960.1528    -3898.732    16916.296    15.567853    13.482114    26.136653    5485.7584 
  199000      198.987    403.91887    16.602974   -443.94708   -427.34411    2263.5512   -9700.8541   -4369.5102    20861.018    15.567855    13.482116    26.136635    5485.7564 
  199500      199.487    418.35112    17.196208   -444.51407   -427.31786     5092.979   -6287.5648   -1766.5253    23333.027    15.567858    13.482118    26.136618    5485.7544 
  200000      199.987    403.90105    16.602242   -443.89325     -427.291    3708.4332   -7526.8046   -2062.7952    20714.899     15.56786     13.48212      26.1366    5485.7524 
  200500      200.487    415.36077    17.073291   -444.33798   -427.26469    3916.7396   -6261.6373   -1199.4894    19211.346    15.567862    13.482122    26.136583    5485.7504 
  201000      200.987    416.20957     17.10818   -444.34533   -427.23715    3419.0658   -6719.3081   -2404.8982    19381.404    15.567865    13.482124    26.136565    5485.7484 
  201500      201.487    404.43357    16.624131   -443.83478   -427.21065    2423.7478   -11417.734    -1527.578    20216.556    15.567867    13.482126    26.136548    5485.7464 
  202000      201.987    423.59588    17.411793   -444.59587   -427.18408    3621.8216   -7587.9673   -5656.6373     24110.07     15.56787    13.482128     26.13653    5485.7444 
  202500      202.487    412.64531    16.961673   -444.11857    -427.1569    3259.1563   -8736.7322   -2406.2021    20920.403    15.567872     13.48213    26.136513    5485.7424 
  203000      202.987    419.55632    17.245748   -444.37536   -427.12962    3870.3062   -5450.5757   -5326.9885    22388.483    15.567874    13.482132    26.136495    5485.7404 
  203500      203.487    414.66537    17.044707   -444.14708   -427.10237    4437.1096     -6085.67   -2765.7955    22162.794    15.567877    13.482134    26.136478    5485.7384 
  204000      203.987    425.65367    17.496377   -444.57241   -427.07603    4129.2591   -7834.5452   -2688.6321    22910.955    15.567879    13.482136     26.13646    5485.7364 
  204500      204.487    415.70553    17.087462   -444.13589   -427.04842    3036.3817   -9589.1442   -4514.1226    23212.412    15.567882    13.482138    26.136443    5485.7345 
  205000      204.987    427.12019    17.556658   -444.57773   -427.02107    3581.2394   -5497.8363   -5455.5612    21697.116    15.567884     13.48214    26.136425    5485.7325 
  205500      205.487    404.03576    16.607779   -443.60209   -426.99432    3491.5409   -7022.7219   -3401.7545    20899.099    15.567886    13.482142    26.136408    5485.7305 
  206000      205.987    426.21409    17.519414   -444.48636   -426.96695    3402.1838   -10449.714   -2808.6831    23464.949    15.567889    13.482145     26.13639    5485.7285 
  206500      206.487    435.22049    17.889619   -444.82906   -426.93944    2782.3816   -8730.0785   -5400.3194    22477.543    15.567891    13.482147    26.136373    5485.7265 
  207000      206.987    423.01651    17.387978   -444.30057   -426.91259    3019.7997   -8856.2673   -1501.0275    19416.694    15.567894    13.482149    26.136355    5485.7245 
  207500      207.487    441.39796    18.143542   -445.02845   -426.88491    3455.4455   -7449.9444   -3592.5423    21408.823    15.567896    13.482151    26.136338    5485.7225 
  208000      207.987     435.3479    17.894856   -444.75272   -426.85786    3595.0967   -6948.8689   -3790.8692    21525.028    15.567898    13.482153     26.13632    5485.7205 
  208500      208.487    429.91471    17.671526   -444.50278   -426.83126    3165.5217   -7238.7186   -1475.3379    18210.621    15.567901    13.482155    26.136303    5485.7185 
  209000      208.987    408.95311    16.809906   -443.61391   -426.80401     4749.097   -7040.1162   -3475.5519    24762.959    15.567903    13.482157    26.136285    5485.7165 
  209500      209.487    416.91028    17.136983   -443.91379   -426.77681     3924.307   -7809.2111   -2966.8233    22548.955    15.567906    13.482159    26.136268    5485.7145 
  210000      209.987    432.85896    17.792549   -444.54134   -426.74879    4895.0569   -10012.639   -883.48833    25581.298    15.567908    13.482161     26.13625    5485.7125 
  210500      210.487    418.97964    17.222043   -443.94365   -426.72161    5455.0804   -6981.1833   -949.71207    24296.137     15.56791    13.482163    26.136233    5485.7105 
  211000      210.987    416.30481    17.112095   -443.80613   -426.69404    3440.6724   -9126.3647   -1506.4878     20954.87    15.567913    13.482165    26.136215    5485.7085 
  211500      211.487    417.32962     17.15422   -443.82021   -426.66599    3713.5283   -8184.9194   -2655.1079    21980.612    15.567915    13.482167    26.136198    5485.7065 
  212000      211.987    429.65336    17.660784   -444.29919    -426.6384    2266.5417   -9611.7646   -4671.9958    21083.386    15.567918    13.482169     26.13618    5485.7046 
[...]
  948500      948.487    562.27771    23.112271   -437.76813   -414.65585    11244.919   -746.26418    4321.7839    30159.236    15.571453    13.485189    26.110403    5482.7663 
  949000      948.987    566.49719    23.285712   -437.93922    -414.6535    9771.5598   -1686.5782    2399.2467    28602.011    15.571455    13.485191    26.110385    5482.7643 
  949500      949.487    566.87147    23.301097   -437.95461   -414.65351    8890.8259   -2735.0837    902.38445    28505.177    15.571458    13.485193    26.110368    5482.7623 
  950000      949.987    573.42573    23.570507   -438.22034   -414.64983    7685.5525   -4148.0941    3565.3641    23639.387     15.57146    13.485195     26.11035    5482.7603 
  950500      950.487    539.49946    22.175977   -436.82449   -414.64851    12096.085   -2300.6477    5176.6723    33412.231    15.571462    13.485197    26.110333    5482.7583 
  951000      950.987      554.785    22.804286   -437.45139   -414.64711    9259.3819   -2304.2305    5600.3303    24482.046    15.571465    13.485199    26.110315    5482.7564 
  951500      951.487    546.15686    22.449628   -437.09499   -414.64536    10233.448   -5154.9433    3222.3222    32632.965    15.571467    13.485201    26.110298    5482.7544 
  952000      951.987    571.95468    23.510041     -438.152   -414.64196    9590.6187   -4645.9563     2999.798    30418.014     15.57147    13.485203     26.11028    5482.7524 
  952500      952.487    586.27552    24.098695   -438.73845   -414.63976    8857.1558   -5591.5109    2337.7235    29825.255    15.571472    13.485205    26.110263    5482.7504 
  953000      952.987     575.3238    23.648527    -438.2852   -414.63667    9862.5417   -2640.6554    5219.0197    27009.261    15.571474    13.485207    26.110245    5482.7484 
  953500      953.487    585.99177    24.087031   -438.72228   -414.63524    8321.2194   -4568.5832    606.68014    28925.561    15.571477    13.485209    26.110228    5482.7464 
  954000      953.987    520.58449    21.398483   -436.03042   -414.63193    9754.7563   -5790.9681    5241.7653    29813.472    15.571479    13.485211     26.11021    5482.7444 
  954500      954.487    584.78599    24.037468   -438.66716   -414.62969    8005.1493   -5845.0458    421.90319     29438.59    15.571482    13.485213    26.110193    5482.7424 
  955000      954.987    588.35753    24.184275   -438.81155   -414.62728    10309.028   -5190.6554    4992.8826    31124.857    15.571484    13.485215    26.110175    5482.7404 
  955500      955.487    588.01381    24.170146   -438.79464    -414.6245    9739.5677   -1078.2498   -2347.7187    32644.672    15.571486    13.485217    26.110158    5482.7384 
  956000      955.987    573.69063    23.581396   -438.20243   -414.62104    8047.0526   -5788.0975    3049.0491    26880.206    15.571489     13.48522     26.11014    5482.7364 
  956500      956.487    585.18018    24.053671   -438.67326   -414.61959    9445.3632   -2790.7088    365.99156    30760.807    15.571491    13.485222    26.110123    5482.7344 
  957000      956.987     588.3645    24.184562   -438.80194   -414.61738     8738.934   -5260.0831   -1414.6047     32891.49    15.571494    13.485224    26.110105    5482.7324 
  957500      957.487    570.95488    23.468944   -438.08197   -414.61302    10521.841   -1485.8943    942.77617     32108.64    15.571496    13.485226    26.110088    5482.7304 
  958000      957.987    561.83058    23.093892   -437.70394   -414.61005    9110.3158   -5803.8852    4455.4335    28679.399    15.571498    13.485228     26.11007    5482.7284 
  958500      958.487    576.85772    23.711579   -438.32056   -414.60898    9479.6532   -4866.2763    175.43732    33129.799    15.571501     13.48523    26.110053    5482.7264 
  959000      958.987    574.48944    23.614231   -438.21689   -414.60265    9666.8129   -3243.0539     1704.904    30538.588    15.571503    13.485232    26.110035    5482.7244 
  959500      959.487    519.00606    21.333602   -435.93048   -414.59688    11188.929   -5476.0166    4355.4617    34687.341    15.571506    13.485234    26.110018    5482.7224 
  960000      959.987    557.20371    22.903706    -437.4983   -414.59459    11038.277   -3190.9974    2117.7324    34188.097    15.571508    13.485236        26.11    5482.7204 
  960500      960.487    581.71533    23.911249   -438.50092   -414.58967    11061.304   -2485.8091    4533.0441    31136.678     15.57151    13.485238    26.109983    5482.7184 
  961000      960.987    570.67929    23.457616   -438.04544   -414.58782    10690.057    -4923.465    1223.2269     35770.41    15.571513     13.48524    26.109965    5482.7164 
  961500      961.487    596.20069    24.506666   -439.08955   -414.58289    8854.5222   -4896.8555    3147.8826    28312.539    15.571515    13.485242    26.109948    5482.7144 
  962000      961.987    551.22287    22.657865   -437.23763   -414.57976    11430.559    789.60448    2447.7697    31054.303    15.571518    13.485244     26.10993    5482.7124 
  962500      962.487    552.86031    22.725172   -437.30268   -414.57751    9554.5573   -3423.4484    1916.7239    30170.396     15.57152    13.485246    26.109913    5482.7104 
  963000      962.987    535.14984    21.997188   -436.57004   -414.57286    9242.6969   -6082.6898    5580.8192    28229.961    15.571522    13.485248    26.109895    5482.7084 
  963500      963.487     542.0192    22.279551   -436.85207   -414.57252    10818.941    -4700.582    5226.4486    31930.957    15.571525     13.48525    26.109878    5482.7064 
  964000      963.987    558.33267    22.950111    -437.5194   -414.56928    9244.0148   -4854.6022   -2014.6776    34601.324    15.571527    13.485252     26.10986    5482.7044 
  964500      964.487    600.65992    24.689961   -439.25851   -414.56855    7989.6059   -4656.5548    1383.7625     27241.61     15.57153    13.485254    26.109843    5482.7025 
  965000      964.987    545.31442       22.415   -436.97996   -414.56496    8289.0066   -7780.5814    2926.2356    29721.366    15.571532    13.485256    26.109825    5482.7005 
  965500      965.487    572.30916    23.524611   -438.08716   -414.56255    9126.7468   -2268.9219    6868.8029    22780.359    15.571534    13.485258    26.109808    5482.6985 
  966000      965.987    574.85891    23.629418   -438.18763   -414.55821    9417.6632   -3115.7668    4698.0539    26670.703    15.571537    13.485261     26.10979    5482.6965 
  966500      966.487    587.24332    24.138476   -438.68991   -414.55143    10430.234   -3490.6073    -918.8917      35700.2    15.571539    13.485263    26.109773    5482.6945 
  967000      966.987     563.0982    23.145997   -437.69222   -414.54622    9277.8895   -1210.5964   -1105.4549     30149.72    15.571542    13.485265    26.109755    5482.6925 
  967500      967.487    542.96876    22.318582   -436.85991   -414.54133    9795.5243   -1687.2018    2119.7299    28954.045    15.571544    13.485267    26.109738    5482.6905 
  968000      967.987    563.44947    23.160436   -437.69774   -414.53731    9120.6272   -5693.6794     1515.295    31540.266    15.571546    13.485269     26.10972    5482.6885 
  968500      968.487    595.70569    24.486319   -439.01923   -414.53292     7889.694   -5365.3798    818.83023    28215.632    15.571549    13.485271    26.109703    5482.6865 
  969000      968.987    570.79831    23.462508   -437.99186   -414.52935    9239.1833   -7161.7932    3622.6323    31256.711    15.571551    13.485273    26.109685    5482.6845 
  969500      969.487    599.26311    24.632546   -439.15736   -414.52481     8999.438   -6065.7028    2113.4568     30950.56    15.571554    13.485275    26.109668    5482.6825 
  970000      969.987    576.86979    23.712075   -438.23231   -414.52024     7630.115   -9054.3286    8154.5312    23790.142    15.571556    13.485277     26.10965    5482.6805 
  970500      970.487    615.65255    25.306229   -439.82284   -414.51661    7515.1871   -5044.6677    3464.3723    24125.857    15.571558    13.485279    26.109633    5482.6785 
  971000      970.987    587.02363    24.129446   -438.64114   -414.51169    7732.8587   -5309.8948   -1051.1104    29559.581    15.571561    13.485281    26.109615    5482.6765 
  971500      971.487    563.44109    23.160092   -437.66693   -414.50684    10521.565    -1747.838    7183.2484    26129.285    15.571563    13.485283    26.109598    5482.6745 
  972000      971.987    569.52394    23.410125    -437.9125   -414.50237    8986.7563   -1268.1871    1049.8552    27178.601    15.571566    13.485285     26.10958    5482.6725 
  972500      972.487    554.24362    22.782032   -437.28064   -414.49861    9504.3138   -2424.9509    3429.1936    27508.699    15.571568    13.485287    26.109563    5482.6705 
  973000      972.987     543.2409    22.329768   -436.82195   -414.49219    10130.376   -1356.9621    610.37458    31137.717     15.57157    13.485289    26.109545    5482.6685 
  973500      973.487     545.1192    22.406976   -436.89462   -414.48764    8794.9997   -4705.2917    1087.7117    30002.579    15.571573    13.485291    26.109528    5482.6665 
  974000      973.987    578.10337    23.762781    -438.2441   -414.48132    8837.4945   -5770.9464    4069.9296      28213.5    15.571575    13.485293     26.10951    5482.6645 
  974500      974.487    534.85982    21.985266   -436.46197   -414.47671    9366.3619   -5185.6075    3763.4699    29521.223    15.571578    13.485295    26.109493    5482.6625 
  975000      974.987    535.15738    21.997497   -436.46951   -414.47202     10847.79   -4316.3188    1436.1601     35423.53     15.57158    13.485297    26.109475    5482.6605 
  975500      975.487    559.35398    22.992092    -437.4596   -414.46751    9564.1939    -2809.931    1858.1773    29644.335    15.571582    13.485299    26.109458    5482.6585 
  976000      975.987    584.39603    24.021439   -438.48339   -414.46195    10376.177   -3589.1936    1109.8111    33607.913    15.571585    13.485302     26.10944    5482.6565 
  976500      976.487      575.971     23.67513   -438.13299   -414.45786    8902.4076   -4083.5992    5729.6806    25061.141    15.571587    13.485304    26.109423    5482.6545 
  977000      976.987    551.77547     22.68058   -437.13223   -414.45165    9765.3673   -3261.4616     266.7449    32290.819     15.57159    13.485306    26.109405    5482.6525 
  977500      977.487    552.79691    22.722565   -437.16645   -414.44389    8813.4557   -4649.4569    5170.4763    25919.348    15.571592    13.485308    26.109388    5482.6505 
  978000      977.987    541.74222    22.268165   -436.70717   -414.43901    9682.8814   -4012.3626    1704.6494    31356.357    15.571594     13.48531     26.10937    5482.6486 
  978500      978.487    544.85194     22.39599   -436.83034   -414.43435    10248.639    -5296.584    4645.0011    31397.501    15.571597    13.485312    26.109353    5482.6466 
  979000      978.987    576.66945     23.70384   -438.13282   -414.42898    8855.5222   -2013.5573   -385.95179    28966.076    15.571599    13.485314    26.109335    5482.6446 
  979500      979.487    586.33875    24.101294   -438.52307   -414.42178    9656.6435   -6121.5916    239.37711    34852.145    15.571602    13.485316    26.109318    5482.6426 
  980000      979.987    597.89933    24.576488   -438.99025   -414.41376    8316.3471   -6825.1465    636.77825     31137.41    15.571604    13.485318      26.1093    5482.6406 
  980500      980.487    588.36017    24.184383   -438.59152   -414.40714    12035.266   -4987.5487    4033.6419    37059.705    15.571606     13.48532    26.109283    5482.6386 
  981000      980.987    597.15835     24.54603   -438.94694   -414.40091    9746.3293   -561.77451    1307.7515    28493.011    15.571609    13.485322    26.109265    5482.6366 
  981500      981.487    532.29759    21.879947   -436.27384   -414.39389     9860.097    -3314.907    1088.6369    31806.561    15.571611    13.485324    26.109248    5482.6346 
  982000      981.987    554.65218    22.798826   -437.18639   -414.38756    10028.977   -5262.9155    4578.8327    30771.015    15.571614    13.485326     26.10923    5482.6326 
  982500      982.487    551.21003    22.657337   -437.03844    -414.3811    9667.7246   -1746.5998    3129.6309    27620.143    15.571616    13.485328    26.109213    5482.6306 
  983000      982.987     559.7025    23.006418   -437.37925   -414.37283    10708.655   -3339.0493    4416.7505    31048.265    15.571618     13.48533    26.109195    5482.6286 
  983500      983.487    580.63693    23.866922   -438.23651   -414.36958    10706.584   -3642.6577    3943.4874    31818.923    15.571621    13.485332    26.109178    5482.6266 
  984000      983.987    570.04801    23.431667   -437.79223   -414.36057    10400.765   -4876.3201    961.35465    35117.259    15.571623    13.485334     26.10916    5482.6246 
  984500      984.487    541.58031     22.26151   -436.61694   -414.35543    9832.8647   -5473.6278    5616.6438    29355.578    15.571626    13.485336    26.109143    5482.6226 
  985000      984.987    553.04894    22.732925   -437.08233   -414.34941    10000.578   -2722.5634     3606.106    29118.192    15.571628    13.485338    26.109125    5482.6206 
  985500      985.487    601.71703    24.733414   -439.07719   -414.34378    9637.7094   -5948.7312    2613.9106    32247.949     15.57163     13.48534    26.109108    5482.6186 
  986000      985.987    591.58725    24.317032   -438.65406   -414.33703    8253.7747   -3938.5721   -1033.1887    29733.085    15.571633    13.485343     26.10909    5482.6166 
  986500      986.487     559.7534     23.00851   -437.33765   -414.32914    9140.4789   -202.45309   -1578.4701     29202.36    15.571635    13.485345    26.109073    5482.6146 
  987000      986.987     623.4913    25.628439   -439.95272   -414.32428     7254.805   -6552.0636   -783.52648    29100.005    15.571638    13.485347    26.109055    5482.6126 
  987500      987.487    530.90243    21.822599   -436.13785   -414.31525    9718.0642   -7672.9134    4035.2311    32791.875     15.57164    13.485349    26.109038    5482.6106 
  988000      987.987    585.71599    24.075695   -438.38522   -414.30952     9334.377    -2994.097     735.8898    30261.338    15.571642    13.485351     26.10902    5482.6086 
  988500      988.487    584.17792    24.012474   -438.31512   -414.30265    10834.023     -1212.39    1340.0657    32374.393    15.571645    13.485353    26.109003    5482.6066 
  989000      988.987    566.46433    23.284361   -437.57743   -414.29306    11045.542     -2571.96    7536.7949     28171.79    15.571647    13.485355    26.108985    5482.6046 
  989500      989.487    579.88167    23.835877    -438.1222   -414.28632    10158.263   -1249.0942     6021.636    25702.246     15.57165    13.485357    26.108968    5482.6026 
  990000      989.987    563.35156    23.156411    -437.4364   -414.27998    9397.3253   -2258.5933    586.43519    29864.134    15.571652    13.485359     26.10895    5482.6006 
  990500      990.487    562.26918    23.111921   -437.38446   -414.27253    8696.4495   -4874.9173    1171.8535    29792.412    15.571654    13.485361    26.108933    5482.5986 
  991000      990.987    561.24399     23.06978   -437.33596   -414.26618    9118.2116   -593.27854   -122.29213    28070.206    15.571657    13.485363    26.108915    5482.5966 
  991500      991.487    570.25378    23.440125   -437.69916   -414.25903     10596.36   -1133.8305    218.41282    32704.499    15.571659    13.485365    26.108898    5482.5947 
  992000      991.987    570.81129    23.463042   -437.71544    -414.2524    7422.9712   -7563.7944    4869.2266    24963.481    15.571662    13.485367     26.10888    5482.5927 
  992500      992.487    567.76972    23.338019   -437.58368   -414.24567    9295.8276   -7283.3068    598.62706    34572.163    15.571664    13.485369    26.108863    5482.5907 
  993000      992.987     587.4983    24.148957   -438.38628   -414.23732    11392.327    -143.5419    1374.7587    32945.764    15.571666    13.485371    26.108845    5482.5887 
  993500      993.487    570.74455    23.460298   -437.69008   -414.22978    10028.018   -2689.6997    2354.0609    30419.694    15.571669    13.485373    26.108828    5482.5867 
  994000      993.987    556.96158    22.893753   -437.11665    -414.2229    9861.0483   -1238.3789   -320.99126    31142.515    15.571671    13.485375     26.10881    5482.5847 
  994500      994.487    605.90668    24.905628   -439.12259   -414.21696    9650.5065   -3298.1375    1960.8853    30288.772    15.571674    13.485377    26.108793    5482.5827 
  995000      994.987    573.78668    23.585344    -437.7934   -414.20806    8601.3308   -6803.1461   -209.51973    32816.658    15.571676    13.485379    26.108775    5482.5807 
  995500      995.487    577.66881    23.744918     -437.945   -414.20008    9669.8343   -5777.8848    2363.2597    32424.128    15.571678    13.485381    26.108758    5482.5787 
  996000      995.987    569.99228    23.429377   -437.62214   -414.19276    8410.5927   -5206.4141    2007.2098    28430.982    15.571681    13.485384     26.10874    5482.5767 
  996500      996.487    582.41853    23.940154   -438.12471   -414.18456    10837.836   -2242.6811    2045.0946    32711.096    15.571683    13.485386    26.108723    5482.5747 
  997000      996.987    574.95831    23.633504   -437.81027   -414.17677    9428.1677   -1956.4856   -633.83047    30874.819    15.571686    13.485388    26.108705    5482.5727 
  997500      997.487    588.12163    24.174578   -438.34409   -414.16951    9574.7907   -7843.0075    729.12582    35838.254    15.571688     13.48539    26.108688    5482.5707 
  998000      997.987    583.99995    24.005158   -438.16911   -414.16395    8173.3688   -6539.2242    806.68793    30252.643     15.57169    13.485392     26.10867    5482.5687 
  998500      998.487    566.94443    23.304096   -437.46072   -414.15662    9175.9206   -5254.5029      2290.79    30491.475    15.571693    13.485394    26.108653    5482.5667 
  999000      998.987    589.32875    24.224197   -438.37204   -414.14785    10614.646   -2671.4688    1142.1855    33373.221    15.571695    13.485396    26.108635    5482.5647 
  999500      999.487    581.11331    23.886503   -438.02544   -414.13894    9382.2921   -3353.0617    1263.9352    30236.003    15.571698    13.485398    26.108618    5482.5627 
 1000000      999.987     545.6564    22.429057      -436.56   -414.13095    11429.558   -2425.2518    7981.8154    28732.109      15.5717      13.4854      26.1086    5482.5607 
 1000013         1000    524.44361    21.557111   -435.68616   -414.12905    11815.435   -904.12378    5171.7511    31178.678      15.5717      13.4854      26.1086    5482.5607 
Loop time of 940.411 on 28 procs for 1000000 steps with 319 atoms

Performance: 91.875 ns/day, 0.261 hours/ns, 1063.365 timesteps/s
87.3% CPU use with 28 MPI tasks x no OpenMP threads

MPI task timing breakdown:
Section |  min time  |  avg time  |  max time  |%varavg| %total
---------------------------------------------------------------
Pair    | 757.94     | 813.04     | 857.77     |  86.8 | 86.46
Neigh   | 0.013968   | 0.021131   | 0.030237   |   3.0 |  0.00
Comm    | 72.336     | 115.85     | 169.15     | 223.2 | 12.32
Output  | 0.099607   | 0.10193    | 0.12111    |   1.2 |  0.01
Modify  | 4.901      | 6.3503     | 8.2027     |  37.0 |  0.68
Other   |            | 5.046      |            |       |  0.54

Nlocal:    11.3929 ave 17 max 6 min
Histogram: 2 3 4 1 2 8 3 1 0 4
Nghost:    655.857 ave 674 max 637 min
Histogram: 3 0 2 3 4 4 7 3 1 1
Neighs:    723.143 ave 1100 max 386 min
Histogram: 2 3 3 3 3 8 1 1 2 2
FullNghs:  1446.29 ave 2184 max 761 min
Histogram: 2 3 4 1 2 8 3 1 1 3

Total # of neighbors = 40496
Ave neighs/atom = 126.947
Neighbor list builds = 310
Dangerous builds = 0

write_restart   POSCAR_1x1x1.rest

#unfix    1
#undump   1
Total wall time: 0:15:40
