LAMMPS (7 Dec 2015)
#----------- Initialize Simulation ------------ restart01
#processors	2 2 2
units		metal
boundary	p p p     ## periodic boundary condition  on x y z axis ##
atom_style atomic
#atom_modify map array sort 0 0.0

read_data	POSCAR_1x1x1.lammps
  triclinic box = (0 0 0) to (15.4908 13.4154 26.7034) with tilt (-7.7453 0 0)
  2 by 2 by 7 MPI processor grid
  reading atoms ...
  319 atoms

#----------- Define Potential -----------------
pair_style meam
pair_coeff * * MgAlZn.library.meam Mg Al Zn MgAlZn.parameter.meam Mg Al Zn 	#1=Mg 2=Al 3=Zn	#atoms/mass

#----------- Neighbor List --------------------
neighbor 2.0 bin
neigh_modify delay 10 check yes

#--------------  Run a simulation (minimization) ---------------------------------------
minimize       1.0e-4   1.0e-6   100   1000          #結構優化的條件
WARNING: Resetting reneighboring criteria during minimization (../min.cpp:168)
Neighbor list info ...
  2 neighbor list requests
  update every 1 steps, delay 0 steps, check yes
  max neighbors/atom: 2000, page size: 100000
  master list distance cutoff = 8
  ghost atom cutoff = 8
  binsize = 4 -> bins = 6 4 7
Memory usage per processor = 8.6519 Mbytes
Step Temp E_pair E_mol TotEng Press 
       0            0   -437.48961            0   -437.48961   -1058.3697 
      11            0   -459.39212            0   -459.39212    -16805.13 
Loop time of 0.0189294 on 28 procs for 11 steps with 319 atoms

84.1% CPU use with 28 MPI tasks x no OpenMP threads

Minimization stats:
  Stopping criterion = energy tolerance
  Energy initial, next-to-last, final = 
        -437.489608105     -459.353492915     -459.392121826
  Force two-norm initial, final = 21.5114 0.7416
  Force max component initial, final = 3.38266 0.249704
  Final line search alpha, max atom move = 0.482029 0.120365
  Iterations, force evaluations = 11 19

MPI task timing breakdown:
Section |  min time  |  avg time  |  max time  |%varavg| %total
---------------------------------------------------------------
Pair    | 0.014477   | 0.016048   | 0.016912   |   0.4 | 84.78
Neigh   | 0          | 0          | 0          |   0.0 |  0.00
Comm    | 0.0012275  | 0.002036   | 0.0035763  |   1.2 | 10.76
Output  | 0          | 0          | 0          |   0.0 |  0.00
Modify  | 0          | 0          | 0          |   0.0 |  0.00
Other   |            | 0.000845   |            |       |  4.46

Nlocal:    11.3929 ave 17 max 5 min
Histogram: 1 1 4 2 2 7 5 3 0 3
Nghost:    645.893 ave 677 max 592 min
Histogram: 2 2 0 0 0 5 4 8 5 2
Neighs:    720 ave 1125 max 306 min
Histogram: 1 1 4 3 4 5 6 1 1 2
FullNghs:  1440 ave 2148 max 630 min
Histogram: 1 1 4 2 3 6 5 3 0 3

Total # of neighbors = 40320
Ave neighs/atom = 126.395
Neighbor list builds = 0
Dangerous builds = 0
velocity all  create 600.0 4928459 #rot yes dist gaussian

#--------------  Run a simulation (Relaxation)  ----------------------------------------
fix  1  all  nvt   temp  600.0  600.0  100				#damping constant
#fix  2  all  npt   temp  393.0  393.0  50 iso 0.0 0.0 1000.0
fix  2  all deform 1 x final 0 15.4955 y final 0 13.4195 z final 0 26.6685 xy final -7.74765 units lattice
#fix  3  all  npt   temp  393.0  393.0  50 z 0.0 0.0 1000.0

#variable b equal 1
#fix 2 all efield  0.0  0.0  v_b
#compute pot all pe/atom


#----------- Output --------------------------
thermo	 500
timestep  0.001		#1.0 fs
thermo_style	custom step time temp ke pe etotal press pxx pyy pzz lx ly lz vol

dump 1 all custom 10000 dump.eq id type x y z
dump_modify 1 sort  id

run        1000000	#1000 ps
Neighbor list info ...
  2 neighbor list requests
  update every 1 steps, delay 10 steps, check yes
  max neighbors/atom: 2000, page size: 100000
  master list distance cutoff = 8
  ghost atom cutoff = 8
  binsize = 4 -> bins = 6 4 7
Memory usage per processor = 7.55986 Mbytes
Step Time Temp KinEng PotEng TotEng Press Pxx Pyy Pzz Lx Ly Lz Volume 
      11            0          600    24.662836   -459.39212   -434.72929   -12058.142   -13987.776   -10601.035   -11585.616      15.4908      13.4154      26.7034    5549.3745 
     500        0.489    305.70979    12.566117    -447.2906   -434.72448   -4172.4762   -11356.097    -4058.112      2896.78    15.490802    13.415402    26.703383    5549.3726 
    1000        0.989    316.19462    12.997093   -447.72127   -434.72417   -5337.9324   -9595.3684   -6210.8681   -207.56062    15.490805    13.415404    26.703365    5549.3707 
    1500        1.489    306.71691    12.607515   -447.33043   -434.72291   -4816.3657   -7696.6991   -5591.2387   -1161.1594    15.490807    13.415406    26.703348    5549.3687 
    2000        1.989     320.4478    13.171919   -447.89419   -434.72227   -5744.4659   -9574.3221   -6206.9682   -1452.1074    15.490809    13.415408    26.703331    5549.3668 
    2500        2.489    313.22613    12.875074    -447.5954   -434.72033   -4874.7288   -9106.4459   -6770.6236    1252.8832    15.490812     13.41541    26.703313    5549.3649 
    3000        2.989    312.21251     12.83341   -447.55255   -434.71914    -5422.631   -8549.3629   -8417.6194    699.08926    15.490814    13.415412    26.703296    5549.3629 
    3500        3.489    308.83966    12.694769   -447.41195   -434.71718   -5200.5367   -10226.938   -4827.9087   -546.76288    15.490816    13.415414    26.703278     5549.361 
    4000        3.989    317.98203    13.070564   -447.78559   -434.71503   -5413.0318   -8979.9238   -5244.1484   -2015.0232    15.490819    13.415416    26.703261    5549.3591 
    4500        4.489    300.40584      12.3481   -447.06004   -434.71194   -4207.5967   -7801.4472   -5358.7279    537.38482    15.490821    13.415418    26.703243    5549.3571 
    5000        4.989    327.82879    13.475313   -448.18505   -434.70973   -5026.5926   -8234.9577   -3236.3993   -3608.4207    15.490823     13.41542    26.703226    5549.3552 
    5500        5.489    326.59857    13.424745    -448.1314   -434.70666   -6314.6923    -8813.562   -8382.5862   -1747.9286    15.490826    13.415423    26.703208    5549.3532 
    6000        5.989    321.02351    13.195584   -447.89867   -434.70309   -5708.1499   -9524.7264    -6189.842   -1409.8814    15.490828    13.415425    26.703191    5549.3513 
    6500        6.489    330.27924    13.576038   -448.27442   -434.69838    -5113.454   -7911.2168   -5721.9329   -1707.2124     15.49083    13.415427    26.703174    5549.3494 
    7000        6.989     325.5235    13.380554   -448.07516   -434.69461    -5899.916   -9987.2356   -6954.1369   -758.37563    15.490833    13.415429    26.703156    5549.3474 
    7500        7.489    310.58706    12.766596   -447.45614   -434.68955   -4095.2512   -9913.6233   -9483.3559    7111.2256    15.490835    13.415431    26.703139    5549.3455 
    8000        7.989    294.31298    12.097655   -446.78243   -434.68478   -5262.8002   -10085.187   -6460.1341     756.9205    15.490838    13.415433    26.703121    5549.3436 
    8500        8.489    317.68903    13.058521   -447.73917   -434.68065   -5201.1933   -8320.1056   -7050.5248   -232.94962     15.49084    13.415435    26.703104    5549.3416 
    9000        8.989    299.93518    12.328753   -447.00349   -434.67474   -4972.9461   -9085.6709   -7966.8136    2133.6462    15.490842    13.415437    26.703086    5549.3397 
    9500        9.489    329.84382     13.55814   -448.22765   -434.66951   -5083.1833   -10102.341   -6688.3695    1541.1603    15.490845    13.415439    26.703069    5549.3378 
   10000        9.989    332.98341    13.687192    -448.3506    -434.6634   -6025.5301   -11360.071   -6161.8122   -554.70731    15.490847    13.415441    26.703051    5549.3358 
   10500       10.489    334.82319    13.762815   -448.41981     -434.657   -6081.2221   -11298.993   -3590.2995   -3354.3736    15.490849    13.415443    26.703034    5549.3339 
   11000       10.989    338.89705     13.93027   -448.58046   -434.65019   -5719.8854   -9669.1377   -7908.8338    418.31536    15.490852    13.415445    26.703016    5549.3319 
   11500       11.489    313.01877    12.866551   -447.50969   -434.64314   -4800.5418   -10448.671   -5155.4375    1202.4833    15.490854    13.415447    26.702999      5549.33 
   12000       11.989    307.78385    12.651371   -447.28742   -434.63605   -4099.0813   -10404.583   -6953.2271    5060.5667    15.490856    13.415449    26.702982    5549.3281 
   12500       12.489     319.6208    13.137925   -447.76629   -434.62836   -5215.4313   -8635.5986   -6262.4362   -748.25903    15.490859    13.415451    26.702964    5549.3261 
   13000       12.989     305.2774    12.548344    -447.1688   -434.62046   -5883.2883   -11271.603   -3718.4132   -2659.8493    15.490861    13.415453    26.702947    5549.3242 
   13500       13.489      310.847    12.777281   -447.38944   -434.61216   -5049.1507    -10638.83   -5378.4314    869.80899    15.490863    13.415455    26.702929    5549.3223 
   14000       13.989      326.364    13.415103   -448.01924   -434.60414   -4301.4864   -10325.236   -6890.9776    4311.7545    15.490866    13.415457    26.702912    5549.3203 
   14500       14.489    319.97688    13.152562   -447.74761   -434.59505   -5125.1701   -8886.9997   -6543.8256    55.315147    15.490868    13.415459    26.702894    5549.3184 
   15000       14.989     330.7245     13.59434   -448.18066   -434.58632   -5043.2855   -8610.4866   -6718.0347    198.66473     15.49087    13.415461    26.702877    5549.3164 
   15500       15.489    313.97264    12.905759    -447.4824   -434.57664   -4528.6116   -10167.176    -7023.413     3604.754    15.490873    13.415464    26.702859    5549.3145 
   16000       15.989    304.44166    12.513991   -447.08023   -434.56624   -4102.5882   -6975.0307   -6796.2791    1463.5452    15.490875    13.415466    26.702842    5549.3126 
   16500       16.489    321.46356    13.213671   -447.76991   -434.55624   -5388.5052   -7988.2574   -6861.9715   -1315.2867    15.490877    13.415468    26.702825    5549.3106 
   17000       16.989     324.3876    13.333864    -447.8802   -434.54634   -4939.9659   -10790.315   -4982.9697    953.38746     15.49088     13.41547    26.702807    5549.3087 
   17500       17.489    319.60316      13.1372   -447.67291   -434.53571   -4478.3294   -7411.2712   -6594.6463    570.92932    15.490882    13.415472     26.70279    5549.3068 
   18000       17.989    317.09604    13.034146   -447.55887   -434.52472   -4059.0396   -8554.5647   -6556.7555    2934.2014    15.490885    13.415474    26.702772    5549.3048 
   18500       18.489    306.35506    12.592641   -447.10586   -434.51321   -5573.9096   -9465.3184   -7741.7608    485.35051    15.490887    13.415476    26.702755    5549.3029 
   19000       18.989    326.71392    13.429486   -447.93179   -434.50231    -5119.113   -8630.3031   -5789.7566   -937.27929    15.490889    13.415478    26.702737     5549.301 
   19500       19.489    310.26261     12.75326   -447.24301   -434.48975   -4247.8441   -8402.3258    -5737.619    1396.4124    15.490892     13.41548     26.70272     5549.299 
   20000       19.989    304.06692    12.498588   -446.97669    -434.4781   -4757.6188   -7744.7273   -7012.7817     484.6526    15.490894    13.415482    26.702702    5549.2971 
   20500       20.489    293.54388    12.066041   -446.53155   -434.46551   -4084.1322   -7226.1786   -6182.8448    1156.6267    15.490896    13.415484    26.702685    5549.2951 
   21000       20.989    312.27915    12.836149   -447.28953   -434.45338   -5776.8139   -9058.3745   -9793.1827    1521.1154    15.490899    13.415486    26.702667    5549.2932 
   21500       21.489    327.23935    13.451084   -447.89098    -434.4399   -5545.8301    -8821.496   -8460.8363    644.84218    15.490901    13.415488     26.70265    5549.2913 
   22000       21.989    312.90693    12.861954   -447.28929   -434.42734   -4431.2553    -7943.037   -6955.0958    1604.3669    15.490903     13.41549    26.702633    5549.2893 
   22500       22.489    317.09427    13.034073    -447.4474   -434.41333    -4340.492   -7339.5345   -5932.1024    250.16088    15.490906    13.415492    26.702615    5549.2874 
   23000       22.989    330.38311    13.580307   -447.97982   -434.39951   -6412.4031   -10104.371   -5534.1526   -3598.6853    15.490908    13.415494    26.702598    5549.2855 
   23500       23.489    321.50419    13.215342   -447.60128   -434.38594   -3882.6279   -8166.1242   -6454.8428    2973.0834     15.49091    13.415496     26.70258    5549.2835 
   24000       23.989    327.95404    13.480461   -447.85171   -434.37125   -5416.7958   -11085.711   -6821.9986    1657.3216    15.490913    13.415498    26.702563    5549.2816 
   24500       24.489    322.14558    13.241706   -447.59833   -434.35663    -3718.069   -7465.3211   -6016.9132    2328.0272    15.490915      13.4155    26.702545    5549.2797 
   25000       24.989    321.91205    13.232106   -447.57386   -434.34175   -5378.8134    -11636.87   -6190.3346    1690.7648    15.490917    13.415502    26.702528    5549.2777 
   25500       25.489    345.31588    14.194115   -448.52091    -434.3268   -5483.9991   -9929.8941      -7314.4    792.29664     15.49092    13.415505     26.70251    5549.2758 
   26000       25.989    328.36338    13.497287   -447.80884   -434.31156   -5688.1673   -9773.3949   -3800.0762   -3491.0309    15.490922    13.415507    26.702493    5549.2738 
   26500       26.489    329.20392    13.531837   -447.82747   -434.29563   -5326.8192   -10008.952   -5323.9795   -647.52582    15.490924    13.415509    26.702476    5549.2719 
   27000       26.989     331.2908    13.617618    -447.8972   -434.27958   -5778.7344   -9993.6716   -6173.4887   -1169.0428    15.490927    13.415511    26.702458      5549.27 
   27500       27.489    321.12703    13.199839   -447.46324    -434.2634   -4601.9653   -8447.1682   -2571.1209   -2787.6068    15.490929    13.415513    26.702441     5549.268 
   28000       27.989    323.20573    13.285283   -447.53234   -434.24706   -3894.0053   -6071.6392   -6201.2055    590.82895    15.490932    13.415515    26.702423    5549.2661 
   28500       28.489    310.87043    12.778244   -447.00854   -434.23029   -4601.2251   -8735.9514   -6103.4361    1035.7121    15.490934    13.415517    26.702406    5549.2642 
   29000       28.989    328.44954    13.500829   -447.71467   -434.21384   -5719.0724   -9407.8987   -6533.3598   -1215.9588    15.490936    13.415519    26.702388    5549.2622 
   29500       29.489    311.51735    12.804835     -447.001   -434.19617   -5111.2584   -7372.0953   -6019.9756   -1941.7045    15.490939    13.415521    26.702371    5549.2603 
   30000       29.989    320.50034    13.174079   -447.35343   -434.17936   -4708.8154   -9263.5081   -7003.5252    2140.5872    15.490941    13.415523    26.702353    5549.2584 
   30500       30.489     315.1156     12.95274   -447.11464    -434.1619   -4935.6271   -9901.8715    -6818.957     1913.947    15.490943    13.415525    26.702336    5549.2564 
   31000       30.989    328.35252     13.49684   -447.64157   -434.14473   -5088.5126    -12783.66   -3653.0625    1171.1849    15.490946    13.415527    26.702318    5549.2545 
   31500       31.489    340.21442     13.98442   -448.11184   -434.12742   -5786.3351   -11019.329   -6697.8747    358.19811    15.490948    13.415529    26.702301    5549.2525 
   32000       31.989    324.98351    13.358358   -447.46809   -434.10973   -4488.2447   -8756.9247   -4273.8969   -433.91263     15.49095    13.415531    26.702284    5549.2506 
   32500       32.489    310.55837    12.765417   -446.85652    -434.0911   -4381.0511   -7094.6295   -6287.4784    238.95456    15.490953    13.415533    26.702266    5549.2487 
   33000       32.989    309.77379    12.733167   -446.80615   -434.07298   -4279.0852   -10386.692   -2706.8726    256.30879    15.490955    13.415535    26.702249    5549.2467 
   33500       33.489    310.27706    12.753853   -446.80827   -434.05441   -4308.7984   -7432.3726   -6610.7985    1116.7758    15.490957    13.415537    26.702231    5549.2448 
   34000       33.989    313.94436    12.904597   -446.94073   -434.03614    -3951.623   -7020.0294   -6125.6968    1290.8571     15.49096    13.415539    26.702214    5549.2429 
   34500       34.489    328.72006    13.511948   -447.52984   -434.01789    -4902.514   -8004.9051   -7236.0738    533.43701    15.490962    13.415541    26.702196    5549.2409 
   35000       34.989    327.26383     13.45209    -447.4515   -433.99941   -4973.3696      -8492.7   -4235.5586   -2191.8501    15.490964    13.415543    26.702179     5549.239 
   35500       35.489    311.61467    12.808835   -446.78966   -433.98082   -3623.9706   -7757.5463   -4152.9012    1038.5357    15.490967    13.415546    26.702161     5549.237 
   36000       35.989    305.23985    12.546801   -446.50837   -433.96157   -4546.0243   -8738.1989   -4201.5848   -698.28924    15.490969    13.415548    26.702144    5549.2351 
   36500       36.489    319.24272    13.122384   -447.06601   -433.94362   -5489.7566   -8262.3086   -6982.5459   -1224.4153    15.490971     13.41555    26.702127    5549.2332 
   37000       36.989    338.54633    13.915854   -447.84001   -433.92416   -4781.3156    -8853.919   -8593.8551    3103.8271    15.490974    13.415552    26.702109    5549.2312 
   37500       37.489    329.10986    13.527971   -447.43388   -433.90591    -4486.282   -7516.8218   -6346.7454     404.7213    15.490976    13.415554    26.702092    5549.2293 
   38000       37.989    319.13214    13.117839   -447.00409   -433.88625   -5215.5932   -7898.9751   -5922.0221   -1825.7825    15.490979    13.415556    26.702074    5549.2274 
   38500       38.489    322.18311    13.243248    -447.1104   -433.86715   -4711.9276   -7107.7524    -7026.568   -1.4624079    15.490981    13.415558    26.702057    5549.2254 
   39000       38.989    325.62387     13.38468   -447.23288    -433.8482   -5311.4474   -8557.7453   -4167.7638    -3208.833    15.490983     13.41556    26.702039    5549.2235 
   39500       39.489    309.27456    12.712646    -446.5414   -433.82876   -4375.7833   -8483.6053   -4740.5931    96.848465    15.490986    13.415562    26.702022    5549.2216 
   40000       39.989     329.6312      13.5494   -447.35899   -433.80959   -5243.1398   -10530.173   -6316.7385    1117.4918    15.490988    13.415564    26.702004    5549.2196 
   40500       40.489    339.42771    13.952083   -447.74265   -433.79057   -5811.3016   -9616.8829   -6210.1883   -1606.8335     15.49099    13.415566    26.701987    5549.2177 
   41000       40.989    321.94904    13.233627   -447.00526   -433.77164   -3982.5423   -9719.5381   -2541.9617     313.8729    15.490993    13.415568    26.701969    5549.2157 
   41500       41.489    337.53459    13.874267   -447.62676   -433.75249   -5640.2513   -9623.4558   -6689.6344   -607.66366    15.490995     13.41557    26.701952    5549.2138 
   42000       41.989    328.62192    13.507914   -447.24206   -433.73414   -4892.7903   -8728.4416   -6334.9171    384.98774    15.490997    13.415572    26.701935    5549.2119 
   42500       42.489    324.16539     13.32473   -447.03923    -433.7145   -4930.8966   -10610.016   -5420.3832     1237.709       15.491    13.415574    26.701917    5549.2099 
   43000       42.989    308.27331     12.67149   -446.36761   -433.69612    -4094.619   -9203.6398   -3660.4061    580.18898    15.491002    13.415576      26.7019     5549.208 
   43500       43.489    316.54144    13.011349   -446.68849   -433.67714   -4722.9609   -8748.8218    -7113.812    1693.7512    15.491004    13.415578    26.701882    5549.2061 
   44000       43.989    318.53637     13.09335   -446.75114   -433.65779   -4130.4065   -9549.2271   -5292.0929    2450.1005    15.491007     13.41558    26.701865    5549.2041 
   44500       44.489    324.51417    13.339066   -446.97792   -433.63885   -3996.3575   -7135.0694   -8814.0471    3960.0441    15.491009    13.415582    26.701847    5549.2022 
   45000       44.989    340.27414    13.986875   -447.60732   -433.62045   -5300.2837   -11385.314   -6209.0042    1693.4667    15.491011    13.415584     26.70183    5549.2003 
   45500       45.489    327.93656    13.479743   -447.08083   -433.60109   -3855.3043   -9220.7188   -4441.8197    2096.6256    15.491014    13.415587    26.701812    5549.1983 
   46000       45.989    331.50481    13.626414   -447.20927   -433.58286   -4522.4329   -8687.5972   -5581.8628     702.1613    15.491016    13.415589    26.701795    5549.1964 
   46500       46.489    334.89178    13.765635   -447.33009   -433.56446   -6037.2316   -10143.373   -5194.1858   -2774.1358    15.491018    13.415591    26.701778    5549.1944 
   47000       46.989    318.69736    13.099968   -446.64581   -433.54584   -5346.5099   -9535.9359   -6420.8476   -82.746228    15.491021    13.415593     26.70176    5549.1925 
   47500       47.489    329.81027    13.556761   -447.08407   -433.52731   -4580.6804   -7431.6865    -9173.408    2863.0534    15.491023    13.415595    26.701743    5549.1906 
   48000       47.989    323.78088    13.308924   -446.81759   -433.50867   -4400.6721   -8293.8977   -7490.9722    2582.8537    15.491026    13.415597    26.701725    5549.1886 
   48500       48.489    336.94595    13.850071   -447.34037    -433.4903   -4765.4604   -8425.5142   -6357.8504     486.9836    15.491028    13.415599    26.701708    5549.1867 
   49000       48.989    322.14432    13.241654   -446.71368   -433.47203   -5091.6214   -6498.8166   -7361.0696   -1414.9781     15.49103    13.415601     26.70169    5549.1848 
   49500       49.489    330.21804    13.573522   -447.02737   -433.45385   -3884.8747   -9338.9969   -4126.3504    1810.7231    15.491033    13.415603    26.701673    5549.1828 
   50000       49.989    328.97145    13.522281   -446.95823   -433.43595   -4187.7699   -8435.9185   -5166.8803    1039.4892    15.491035    13.415605    26.701655    5549.1809 
   50500       50.489     353.8146    14.543452   -447.96186   -433.41841   -4706.6194    -10198.94   -5484.1643    1563.2462    15.491037    13.415607    26.701638    5549.1789 
   51000       50.989    341.34572    14.030922   -447.43081   -433.39989   -4974.8777   -6793.1996   -5539.2381   -2592.1954     15.49104    13.415609     26.70162     5549.177 
   51500       51.489    311.87701    12.819619   -446.20163   -433.38201   -4104.3534    -8950.004   -4499.8342    1136.7781    15.491042    13.415611    26.701603    5549.1751 
   52000       51.989    346.45559    14.240962   -447.60566    -433.3647   -5216.3492   -10073.832   -6969.9675     1394.752    15.491044    13.415613    26.701586    5549.1731 
   52500       52.489    329.13309    13.528925   -446.87559   -433.34666    -4778.389   -10185.485   -5312.2893    1162.6071    15.491047    13.415615    26.701568    5549.1712 
   53000       52.989    333.44354    13.706105   -447.03562   -433.32951   -5481.0135   -10562.502   -5838.2864   -42.252409    15.491049    13.415617    26.701551    5549.1693 
   53500       53.489    332.60222    13.671523   -446.98312    -433.3116   -4725.0877   -7273.2782   -7302.8813    400.89653    15.491051    13.415619    26.701533    5549.1673 
   54000       53.989    328.83918    13.516844   -446.81089   -433.29405   -2779.9286   -8375.7705   -4329.7742    4365.7588    15.491054    13.415621    26.701516    5549.1654 
   54500       54.489    332.30382    13.659257   -446.93628   -433.27702   -4751.4625   -10271.424   -3670.8775   -312.08587    15.491056    13.415623    26.701498    5549.1635 
   55000       54.989    339.89266    13.971194   -447.23113   -433.25994   -3152.2901   -7927.0447    -3651.989    2122.1635    15.491058    13.415625    26.701481    5549.1615 
   55500       55.489    326.95515    13.439402   -446.68244   -433.24304   -4278.0759   -10097.671    -3896.886    1160.3293    15.491061    13.415628    26.701463    5549.1596 
   56000       55.989      342.594    14.082232    -447.3085   -433.22627   -4524.1375   -9459.1308   -3600.9586   -512.32322    15.491063     13.41563    26.701446    5549.1576 
   56500       56.489    338.47205    13.912801   -447.12172   -433.20892   -3850.4306   -5563.7273    -4733.605   -1253.9596    15.491065    13.415632    26.701429    5549.1557 
   57000       56.989    338.15721     13.89986    -447.0923   -433.19244   -3841.3029   -8654.7597   -3099.2263    230.07736    15.491068    13.415634    26.701411    5549.1538 
   57500       57.489    332.94334    13.685545   -446.86149   -433.17594   -3576.6239    -5912.822   -5679.9146    862.86494     15.49107    13.415636    26.701394    5549.1518 
   58000       57.989    350.80843    14.419884   -447.57921   -433.15932   -5283.3998   -8484.3085   -8461.9226    1096.0317    15.491073    13.415638    26.701376    5549.1499 
   58500       58.489    334.34925    13.743334   -446.88698   -433.14365   -4952.2852   -9333.0232   -5505.0485   -18.784003    15.491075     13.41564    26.701359     5549.148 
   59000       58.989    325.56259    13.382161   -446.50865   -433.12649   -4383.2848    -8084.672   -4934.7873    -130.3951    15.491077    13.415642    26.701341     5549.146 
   59500       59.489    336.08823    13.814815   -446.92537   -433.11055   -4051.7085   -7751.9972   -8494.9117    4091.7834     15.49108    13.415644    26.701324    5549.1441 
   60000       59.989    360.86571    14.833286   -447.92806   -433.09478   -4605.6803   -8691.5072   -5486.7234    361.18976    15.491082    13.415646    26.701306    5549.1421 
   60500       60.489    340.42374    13.993025   -447.07111   -433.07808   -5227.8632   -7753.2556   -5187.9894   -2742.3446    15.491084    13.415648    26.701289    5549.1402 
   61000       60.989    314.75571    12.937947    -445.9996   -433.06165   -4322.0786   -7547.3925   -6671.5065    1252.6632    15.491087     13.41565    26.701271    5549.1383 
   61500       61.489    344.38584    14.155886   -447.20215   -433.04626    -4681.344   -11657.451   -5072.3999    2685.8192    15.491089    13.415652    26.701254    5549.1363 
   62000       61.989     328.0589    13.484771   -446.51453   -433.02975   -3290.1822   -6923.7686   -3789.3066    842.52853    15.491091    13.415654    26.701237    5549.1344 
   62500       62.489    328.28499    13.494064   -446.50753   -433.01347   -5517.2886   -9447.3744   -5214.2731   -1890.2184    15.491094    13.415656    26.701219    5549.1325 
   63000       62.989    323.45407    13.295491   -446.29294   -432.99744    -4460.151   -9392.4689   -5356.1008    1368.1166    15.491096    13.415658    26.701202    5549.1305 
   63500       63.489    336.13946     13.81692   -446.79859   -432.98167   -4547.0535   -7629.2919   -8141.5376     2129.669    15.491098     13.41566    26.701184    5549.1286 
   64000       63.989    339.40193    13.951023   -446.91727   -432.96624   -4861.6021   -8236.4113   -5169.9307   -1178.4642    15.491101    13.415662    26.701167    5549.1267 
   64500       64.489    336.75258    13.842122   -446.79257   -432.95045   -3671.3116   -6243.5076   -5882.5404    1112.1133    15.491103    13.415664    26.701149    5549.1247 
   65000       64.989    348.84279    14.339087   -447.27334   -432.93425   -5067.6795   -8822.1993   -7478.3841     1097.545    15.491105    13.415666    26.701132    5549.1228 
   65500       65.489    338.03076    13.894662   -446.81286    -432.9182   -4022.4316   -7267.9001   -7182.5575    2383.1627    15.491108    13.415669    26.701114    5549.1208 
   66000       65.989    334.26943    13.740053   -446.64203   -432.90198    -4860.684   -9157.3137   -6220.5025    795.76409     15.49111    13.415671    26.701097    5549.1189 
   66500       66.489    348.72488    14.334241    -447.2209   -432.88666   -4094.3832   -9750.4334   -4275.1051    1742.3889    15.491112    13.415673     26.70108     5549.117 
   67000       66.989    357.12718    14.679615   -447.55076   -432.87114   -3786.6624   -7997.6663   -4619.4888    1257.1678    15.491115    13.415675    26.701062     5549.115 
   67500       67.489    332.69851    13.675481    -446.5303   -432.85482   -5042.5786   -6971.4459   -9414.5451    1258.2552    15.491117    13.415677    26.701045    5549.1131 
   68000       67.989    332.10067    13.650907   -446.48995   -432.83904   -4007.9955   -9143.8182   -6310.6167    3430.4484     15.49112    13.415679    26.701027    5549.1112 
   68500       68.489    343.45498    14.117623   -446.94132    -432.8237   -3451.2735   -6583.3668   -8607.4585    4837.0048    15.491122    13.415681     26.70101    5549.1092 
   69000       68.989    340.96961    14.015462   -446.82371   -432.80825   -5051.9227   -9035.3852   -5392.9522   -727.43074    15.491124    13.415683    26.700992    5549.1073 
   69500       69.489    355.14962    14.598328   -447.39072   -432.79239   -4175.8723   -6543.4718   -6577.6115    593.46647    15.491127    13.415685    26.700975    5549.1054 
   70000       69.989     326.7629      13.4315   -446.20764   -432.77614   -3344.3522   -5873.3428   -6469.1901    2309.4762    15.491129    13.415687    26.700957    5549.1034 
   70500       70.489    327.23365     13.45085   -446.21107   -432.76022   -3200.3176   -6144.6816   -7600.5355    4144.2645    15.491131    13.415689     26.70094    5549.1015 
   71000       70.989    356.80654    14.666435   -447.41104   -432.74461   -3988.3018   -9136.4847   -4294.3744    1465.9537    15.491134    13.415691    26.700922    5549.0995 
   71500       71.489    356.79565    14.665988    -447.3955   -432.72951   -4328.1718   -7482.6097   -4539.3214   -962.58432    15.491136    13.415693    26.700905    5549.0976 
   72000       71.989    350.21597    14.395532   -447.10905   -432.71352   -4137.8899   -6619.2175   -4734.0016   -1060.4505    15.491138    13.415695    26.700888    5549.0957 
   72500       72.489    344.16276    14.146716   -446.84411    -432.6974   -4115.9667   -7852.2495   -3938.9979    -556.6527    15.491141    13.415697     26.70087    5549.0937 
   73000       72.989     355.8827    14.628461   -447.31002   -432.68156   -4469.7192   -8339.5965    -6524.729    1455.1677    15.491143    13.415699    26.700853    5549.0918 
   73500       73.489    343.23279     14.10849   -446.77412   -432.66563   -4455.0748   -7324.0739   -5562.0735   -479.07685    15.491145    13.415701    26.700835    5549.0899 
   74000       73.989    337.67664    13.880106   -446.52981    -432.6497   -3228.9873   -8024.7355   -3174.7207    1512.4943    15.491148    13.415703    26.700818    5549.0879 
   74500       74.489    351.20487     14.43618   -447.07039   -432.63421   -3692.3839   -6330.1666   -6197.4203    1450.4353     15.49115    13.415705      26.7008     5549.086 
   75000       74.989    331.60096    13.630367   -446.24765   -432.61728   -2563.8582   -7581.4031   -2972.0386    2861.8673    15.491152    13.415707    26.700783     5549.084 
   75500       75.489    347.37438    14.278729   -446.88028   -432.60155   -4464.5643   -10807.446   -3851.4713    1265.2242    15.491155     13.41571    26.700765    5549.0821 
   76000       75.989    335.48815    13.790149   -446.37519   -432.58504   -3312.7492    -8818.715   -4701.9251    3582.3924    15.491157    13.415712    26.700748    5549.0802 
   76500       76.489    331.93038    13.643908   -446.21256   -432.56865   -5091.6962   -6975.5899   -9033.4933    733.99472    15.491159    13.415714    26.700731    5549.0782 
   77000       76.989    348.32533    14.317817   -446.87019   -432.55238   -3915.2638   -8838.1463   -5449.1246    2541.4796    15.491162    13.415716    26.700713    5549.0763 
   77500       77.489     339.1608    13.941112   -446.47733   -432.53622   -5188.2768   -10481.928   -5373.5611    290.65889    15.491164    13.415718    26.700696    5549.0744 
   78000       77.989    354.56908    14.574465   -447.09428   -432.51982   -3936.9645   -5935.2908    -7774.124    1898.5213    15.491167     13.41572    26.700678    5549.0724 
   78500       78.489    333.00705    13.688164   -446.19159   -432.50343   -3638.6168   -7408.9011   -7715.5647    4208.6154    15.491169    13.415722    26.700661    5549.0705 
   79000       78.989    329.74235    13.553969   -446.04056   -432.48659   -3359.7647   -8294.9355   -7873.0786    6088.7198    15.491171    13.415724    26.700643    5549.0686 
   79500       79.489    350.11259    14.391282    -446.8614   -432.47011   -4116.9399   -8098.4641   -5733.3995    1481.0438    15.491174    13.415726    26.700626    5549.0666 
   80000       79.989    337.50727    13.873144   -446.32636   -432.45321   -4102.5629    -6952.887   -6223.4591    868.65736    15.491176    13.415728    26.700608    5549.0647 
   80500       80.489    349.22576    14.354829   -446.79133   -432.43651   -4626.1681   -7670.3662   -5999.4593   -208.67865    15.491178     13.41573    26.700591    5549.0627 
   81000       80.989    329.90886    13.560813   -445.98005   -432.41924   -2443.7346   -7431.4842   -3313.1812    3413.4616    15.491181    13.415732    26.700573    5549.0608 
   81500       81.489    357.53853    14.696523   -447.09942    -432.4029   -4086.1281   -8492.4788   -3414.5909   -351.31458    15.491183    13.415734    26.700556    5549.0589 
   82000       81.989    354.04746    14.553024   -446.93905   -432.38603   -4716.5684   -7996.5079   -5636.3386   -516.85874    15.491185    13.415736    26.700539    5549.0569 
   82500       82.489    351.18858     14.43551   -446.80468   -432.36917   -4265.8959   -8197.2404   -6778.2971    2177.8499    15.491188    13.415738    26.700521     5549.055 
   83000       82.989    328.51433    13.503491    -445.8546   -432.35111   -4718.1963    -8842.469   -4465.1747   -846.94521     15.49119     13.41574    26.700504    5549.0531 
   83500       83.489    355.55611    14.615037   -446.94955   -432.33452   -3767.0065   -7449.5106   -3730.0974   -121.41156    15.491192    13.415742    26.700486    5549.0511 
   84000       83.989    339.70305    13.963401   -446.28002   -432.31662   -4515.6757   -6573.8186   -9268.8395    2295.6311    15.491195    13.415744    26.700469    5549.0492 
   84500       84.489    324.72753    13.347836     -445.647   -432.29916    -3139.221   -6864.3543   -5829.3332    3276.0246    15.491197    13.415746    26.700451    5549.0472 
   85000       84.989    348.01527    14.305072   -446.58709   -432.28202   -2465.8432   -5794.0437   -2156.4392    552.95335    15.491199    13.415748    26.700434    5549.0453 
   85500       85.489    348.43057    14.322143   -446.58689   -432.26475   -3818.9658   -6164.2955   -4630.5382   -662.06354    15.491202    13.415751    26.700416    5549.0434 
   86000       85.989    338.42254    13.910766    -446.1571   -432.24633   -2973.0749   -5312.4131   -5154.3897    1547.5781    15.491204    13.415753    26.700399    5549.0414 
   86500       86.489    334.24287    13.738962   -445.96766   -432.22869   -3177.9689   -6076.1651   -3484.9819    27.240218    15.491206    13.415755    26.700382    5549.0395 
   87000       86.989    358.21124    14.724175   -446.93479   -432.21061   -4171.9743   -6422.6702   -6160.2555    67.002869    15.491209    13.415757    26.700364    5549.0376 
   87500       87.489    332.52092    13.668181   -445.86037   -432.19219   -4253.2212   -10155.835   -6262.5481    3658.7198    15.491211    13.415759    26.700347    5549.0356 
   88000       87.989     349.1092    14.350038   -446.52438   -432.17434   -4523.1867   -8420.6496   -3939.4719   -1209.4387    15.491214    13.415761    26.700329    5549.0337 
   88500       88.489    349.32466    14.358895   -446.51499   -432.15609   -3338.4302    -6918.705    -4933.965    1837.3794    15.491216    13.415763    26.700312    5549.0318 
   89000       88.989    341.59404    14.041129   -446.17911   -432.13798   -4012.4515   -7504.6536   -4913.1175    380.41666    15.491218    13.415765    26.700294    5549.0298 
   89500       89.489    343.51178    14.119958   -446.23977   -432.11981   -4850.2848   -6666.7812   -7957.9406    73.867526    15.491221    13.415767    26.700277    5549.0279 
   90000       89.989    343.38374    14.114695    -446.2154    -432.1007   -3956.7188   -6947.9698   -3097.9434    -1824.243    15.491223    13.415769    26.700259    5549.0259 
   90500       90.489    345.30393    14.193623    -446.2766   -432.08297   -3788.4182   -10297.457   -2017.1619    949.36431    15.491225    13.415771    26.700242     5549.024 
   91000       90.989    348.41177     14.32137   -446.38509   -432.06372   -4853.6012   -7114.7497    -8251.113    805.05903    15.491228    13.415773    26.700224    5549.0221 
   91500       91.489    345.68584    14.209322   -446.25438   -432.04506   -3859.6777   -8297.0418   -2329.7171    -952.2742     15.49123    13.415775    26.700207    5549.0201 
   92000       91.989    341.95684    14.056042   -446.08241   -432.02637   -3156.2159   -7967.2203   -5683.6309    4182.2035    15.491232    13.415777     26.70019    5549.0182 
   92500       92.489    351.08882     14.43141   -446.43918   -432.00777   -4193.0058    -5615.704   -7693.9169    730.60341    15.491235    13.415779    26.700172    5549.0163 
   93000       92.989    351.59805    14.452341   -446.44115   -431.98881   -3380.2265    -7007.923   -4330.5693    1197.8129    15.491237    13.415781    26.700155    5549.0143 
   93500       93.489    351.04543    14.429626   -446.39945   -431.96983   -5273.8405     -8238.95   -7296.4098   -286.16167    15.491239    13.415783    26.700137    5549.0124 
   94000       93.989    341.59701    14.041252   -445.99167   -431.95041   -3647.0332   -5582.5386   -6874.3227    1515.7617    15.491242    13.415785     26.70012    5549.0104 
   94500       94.489    349.62503    14.371241   -446.30278   -431.93154   -3927.1983   -8751.2725   -4501.8627    1471.5404    15.491244    13.415787    26.700102    5549.0085 
   95000       94.989    356.75576    14.664348   -446.57668   -431.91234   -4470.0283   -9971.2046   -4801.0679    1362.1876    15.491246    13.415789    26.700085    5549.0066 
   95500       95.489    348.13652    14.310056   -446.20316    -431.8931    -3619.043   -6919.1057   -6206.1351    2268.1117    15.491249    13.415792    26.700067    5549.0046 
   96000       95.989     364.5466    14.984588   -446.85803   -431.87344   -4089.1538    -7952.855   -6201.2031    1886.5968    15.491251    13.415794     26.70005    5549.0027 
   96500       96.489    344.60001    14.164689    -446.0184   -431.85371    -3374.232   -6541.3564   -3387.2937   -194.04575    15.491253    13.415796    26.700033    5549.0008 
   97000       96.989    368.18592    15.134181   -446.96888   -431.83469   -4503.4027   -8877.7401   -6084.3758    1451.9077    15.491256    13.415798    26.700015    5548.9988 
   97500       97.489    347.73502    14.293553   -446.10766   -431.81411   -3440.2662   -6728.1734   -6591.5084    2998.8832    15.491258      13.4158    26.699998    5548.9969 
   98000       97.989     378.5157    15.558784   -447.35412   -431.79533   -4684.7124   -8840.6485   -7284.6102    2071.1215    15.491261    13.415802     26.69998    5548.9949 
   98500       98.489    347.81432    14.296812   -446.07124   -431.77443   -3381.0589     -8925.33   -5326.3622    4108.5155    15.491263    13.415804    26.699963     5548.993 
   99000       98.989    357.15654    14.680822   -446.43562    -431.7548   -3946.9718   -8362.9139   -4140.4378    662.43634    15.491265    13.415806    26.699945    5548.9911 
   99500       99.489    372.08415    15.294417   -447.02946   -431.73504   -5034.8699   -5618.0929   -4836.1595   -4650.3573    15.491268    13.415808    26.699928    5548.9891 
  100000       99.989    345.62588    14.206857   -445.92138   -431.71453   -4003.4011   -8067.8632   -3014.1283   -928.21176     15.49127     13.41581     26.69991    5548.9872 
  100500      100.489    352.29429     14.48096   -446.17513   -431.69417   -5454.9469   -10224.969   -6956.9371    817.06573    15.491272    13.415812    26.699893    5548.9853 
  101000      100.989    354.67865    14.578969   -446.25307    -431.6741   -3954.1716   -8759.6075   -6517.8198    3414.9124    15.491275    13.415814    26.699875    5548.9833 
  101500      101.489    349.98692    14.386116   -446.04009   -431.65398   -3265.0265   -5823.2817   -7940.9952    3969.1974    15.491277    13.415816    26.699858    5548.9814 
  102000      101.989    355.34982    14.606557   -446.23962   -431.63306   -3797.2529   -8688.5362   -4655.9933    1952.7707    15.491279    13.415818    26.699841    5548.9795 
  102500      102.489    359.59539     14.78107   -446.39291   -431.61184    -2282.857   -6663.1334    -5204.172    5018.7346    15.491282     13.41582    26.699823    5548.9775 
  103000      102.989    351.52562    14.449364   -446.04015   -431.59078   -2310.8399   -7508.7541   -4914.9676    5491.2019    15.491284    13.415822    26.699806    5548.9756 
  103500      103.489    367.13606    15.091027   -446.66223    -431.5712   -5787.0939   -8932.4299    -5635.801   -2793.0507    15.491286    13.415824    26.699788    5548.9736 
  104000      103.989    356.85769    14.668537   -446.21874    -431.5502   -4564.7197   -9156.8747    -4417.893    -119.3914    15.491289    13.415826    26.699771    5548.9717 
  104500      104.489    348.88863    14.340972   -445.87008   -431.52911   -4195.3137   -7769.4459   -3524.6756   -1291.8196    15.491291    13.415828    26.699753    5548.9698 
  105000      104.989    380.67125    15.647387   -447.15597   -431.50858   -4747.2212   -8833.5225   -4409.8386    -998.3024    15.491293     13.41583    26.699736    5548.9678 
  105500      105.489    367.66303    15.112688   -446.60008   -431.48739   -3170.0038   -7320.7428   -4836.5707    2647.3021    15.491296    13.415833    26.699718    5548.9659 
  106000      105.989    355.52714    14.613846   -446.07958   -431.46573   -3352.1563   -7012.3422   -2620.4141   -423.71252    15.491298    13.415835    26.699701     5548.964 
  106500      106.489    346.83567    14.256585   -445.70129   -431.44471   -3106.0013   -8599.1471    -3407.561    2688.7042      15.4913    13.415837    26.699684     5548.962 
  107000      106.989    363.24453    14.931067   -446.35454   -431.42347   -4328.9066   -6680.9266   -4588.2828   -1717.5104    15.491303    13.415839    26.699666    5548.9601 
  107500      107.489    363.60636     14.94594   -446.34813   -431.40219   -3341.8786   -8123.4499   -3861.6074    1959.4216    15.491305    13.415841    26.699649    5548.9581 
  108000      107.989    371.37128    15.265115   -446.64651   -431.38139   -3902.8273   -11259.836   -3780.8415    3332.1956    15.491308    13.415843    26.699631    5548.9562 
  108500      108.489    359.61045    14.781689   -446.14093   -431.35924    -2957.415   -8231.1191   -3484.6918    2843.5658     15.49131    13.415845    26.699614    5548.9543 
  109000      108.989    340.19925    13.983797    -445.3209    -431.3371   -3571.5935    -8836.871     -3681.08    1803.1705    15.491312    13.415847    26.699596    5548.9523 
  109500      109.489    368.25051    15.136837   -446.45319   -431.31636   -4047.9414   -8982.2606   -5652.1148    2490.5513    15.491315    13.415849    26.699579    5548.9504 
  110000      109.989     364.4847    14.982044   -446.27649   -431.29445   -3815.1886   -8910.2952   -4888.7247    2353.4542    15.491317    13.415851    26.699561    5548.9485 
  110500      110.489    358.61431    14.740743   -446.01381   -431.27307   -4037.0584   -8801.4213   -3618.0197    308.26593    15.491319    13.415853    26.699544    5548.9465 
  111000      110.989     360.2793    14.809182   -446.06059   -431.25141   -4152.6946   -8945.0469   -697.74285   -2815.2941    15.491322    13.415855    26.699526    5548.9446 
  111500      111.489    352.29751    14.481093   -445.71015   -431.22906   -4156.1958   -8053.8229   -4174.5792   -240.18524    15.491324    13.415857    26.699509    5548.9427 
  112000      111.989    350.61942    14.412115   -445.61943   -431.20732   -3323.2267    -8293.187   -5197.5364    3521.0433    15.491326    13.415859    26.699492    5548.9407 
  112500      112.489    376.61479    15.480648   -446.66619   -431.18554   -3475.0403   -7148.7491    -5636.572       2360.2    15.491329    13.415861    26.699474    5548.9388 
  113000      112.989     345.1334    14.186614   -445.34951    -431.1629   -3824.8576   -9505.0965   -5049.9308    3080.4546    15.491331    13.415863    26.699457    5548.9368 
  113500      113.489    359.00089    14.756633   -445.89748   -431.14084   -2581.4526    -7911.561   -5273.4925    5440.6957    15.491333    13.415865    26.699439    5548.9349 
  114000      113.989    377.18426    15.504056   -446.62348   -431.11942   -3346.9679    -6077.542   -8241.6826    4278.3208    15.491336    13.415867    26.699422     5548.933 
  114500      114.489    344.33633     14.15385   -445.25014   -431.09629   -2737.9681   -9904.2333   -5316.0925    7006.4215    15.491338    13.415869    26.699404     5548.931 
  115000      114.989    356.52187    14.654734   -445.72945   -431.07471   -3586.8985    -5041.404    -7671.425    1952.1337     15.49134    13.415871    26.699387    5548.9291 
  115500      115.489    369.78256    15.199811   -446.25259   -431.05278   -3381.7621   -9040.0026   -3732.4333    2627.1496    15.491343    13.415874    26.699369    5548.9272 
  116000      115.989    379.89329     15.61541   -446.64588   -431.03047   -3985.7793   -10359.541   -3812.7428    2214.9459    15.491345    13.415876    26.699352    5548.9252 
  116500      116.489    358.74207    14.745995   -445.75402   -431.00803   -3960.6894   -7176.0169   -1587.8134   -3118.2377    15.491347    13.415878    26.699335    5548.9233 
  117000      116.989    391.84168    16.106545   -447.09311   -430.98656   -3491.8591   -6378.0668   -3132.6667   -964.84372     15.49135     13.41588    26.699317    5548.9213 
  117500      117.489     368.3534    15.141066   -446.10483   -430.96376    -3714.656   -7721.8514   -4012.8454    590.72862    15.491352    13.415882      26.6993    5548.9194 
  118000      117.989    361.49981    14.859351   -445.80045    -430.9411   -3583.3441   -7816.9993   -2910.5204   -22.512619    15.491355    13.415884    26.699282    5548.9175 
  118500      118.489     361.6722    14.866437   -445.78481   -430.91838   -3303.9411   -7371.7182   -6003.2797    3463.1747    15.491357    13.415886    26.699265    5548.9155 
  119000      118.989    367.96864     15.12525   -446.02151   -430.89626   -3542.9288   -8956.2611   -3026.6199    1354.0945    15.491359    13.415888    26.699247    5548.9136 
  119500      119.489     355.2048    14.600596   -445.47405   -430.87345   -3831.2451   -10214.321   -3341.4749    2062.0609    15.491362     13.41589     26.69923    5548.9117 
  120000      119.989    371.20706    15.258364   -446.10905   -430.85068   -4433.4649   -9534.7232   -3034.8694   -730.80207    15.491364    13.415892    26.699212    5548.9097 
  120500      120.489    369.52789    15.189343    -446.0171   -430.82776   -3086.0851   -9035.9157   -3838.9319    3616.5922    15.491366    13.415894    26.699195    5548.9078 
  121000      120.989    380.15954    15.626354   -446.43231   -430.80596   -3729.8943   -7011.7002    -5860.397    1682.4142    15.491369    13.415896    26.699177    5548.9058 
  121500      121.489    365.92888    15.041406   -445.82431    -430.7829   -3993.8568    -5419.108   -5202.7268   -1359.7356    15.491371    13.415898     26.69916    5548.9039 
  122000      121.989    369.86076    15.203025   -445.96251   -430.75948   -4578.2531   -8106.6898   -6678.9528    1050.8832    15.491373      13.4159    26.699143     5548.902 
  122500      122.489    374.37421    15.388549   -446.12544   -430.73689    -3213.963   -7263.5597   -2545.8707    167.54145    15.491376    13.415902    26.699125       5548.9 
  123000      122.989    380.22108    15.628883   -446.34283   -430.71395   -4161.4966   -8464.0633   -4603.9765    583.55001    15.491378    13.415904    26.699108    5548.8981 
  123500      123.489    366.03404    15.045729   -445.73647   -430.69074   -3344.0268   -8691.7492   -1651.1932    310.86181     15.49138    13.415906     26.69909    5548.8962 
  124000      123.989    366.65124    15.071099   -445.73922   -430.66812   -3680.2941   -6857.3566   -5379.6444    1196.1186    15.491383    13.415908    26.699073    5548.8942 
  124500      124.489    353.25238    14.520342   -445.16521   -430.64487   -3009.8379   -8832.9899   -2422.8433    2226.3196    15.491385     13.41591    26.699055    5548.8923 
  125000      124.989    371.00664    15.250126   -445.87215   -430.62202   -2738.0326   -8461.2072   -2795.8782    3042.9875    15.491387    13.415912    26.699038    5548.8904 
  125500      125.489    381.44518      15.6792   -446.27836   -430.59917   -3094.2255   -6244.1688   -6956.5469    3918.0391     15.49139    13.415915     26.69902    5548.8884 
  126000      125.989    367.33978    15.099401   -445.67556   -430.57616   -2992.3627   -7434.9776     -3260.83    1718.7196    15.491392    13.415917    26.699003    5548.8865 
  126500      126.489    376.91491    15.492984   -446.04618   -430.55319   -4732.9819   -9263.3607   -4584.8098   -350.77525    15.491394    13.415919    26.698986    5548.8845 
  127000      126.989    368.77244     15.15829   -445.68907   -430.53078   -3221.8692   -6366.8671   -5827.6444    2528.9038    15.491397    13.415921    26.698968    5548.8826 
  127500      127.489    373.94105    15.370744   -445.87891   -430.50816   -2246.9366   -7457.9269   -3086.0176    3803.1347    15.491399    13.415923    26.698951    5548.8807 
  128000      127.989    367.74911    15.116227   -445.60018   -430.48395   -3525.0347   -6646.3385   -3668.4952   -260.27037    15.491402    13.415925    26.698933    5548.8787 
  128500      128.489    372.91938    15.328749   -445.78989   -430.46114   -3505.9479   -5841.0085   -4175.1081   -501.72705    15.491404    13.415927    26.698916    5548.8768 
  129000      128.989       340.37    13.990816    -444.4281   -430.43728   -2102.7747    -8610.794   -3473.8797    5776.3496    15.491406    13.415929    26.698898    5548.8749 
  129500      129.489     370.7408    15.239199   -445.65439   -430.41519   -2497.0665   -3700.2915   -6066.2147    2275.3068    15.491409    13.415931    26.698881    5548.8729 
  130000      129.989    355.67693    14.620003   -445.01195   -430.39195   -2374.6649   -5293.6775    -3989.555    2159.2379    15.491411    13.415933    26.698863     5548.871 
  130500      130.489    361.43136    14.856537   -445.22569   -430.36916   -2578.9813   -7034.2232   -3450.3029    2747.5823    15.491413    13.415935    26.698846     5548.869 
  131000      130.989    342.52046     14.07921   -444.42431    -430.3451   -2800.6476   -6978.1516   -2645.7495    1221.9582    15.491416    13.415937    26.698828    5548.8671 
  131500      131.489    373.77144    15.363773    -445.6867   -430.32293    -3728.775   -7580.3371   -5438.3139    1832.3261    15.491418    13.415939    26.698811    5548.8652 
  132000      131.989    366.82356    15.078182   -445.37799    -430.2998   -4043.7929   -7550.1782   -6909.4463    2328.2457     15.49142    13.415941    26.698794    5548.8632 
  132500      132.489    381.08772    15.664506   -445.94071   -430.27621   -3650.8592   -7946.8678   -1980.7431   -1024.9667    15.491423    13.415943    26.698776    5548.8613 
  133000      132.989    391.93808    16.110508   -446.36323   -430.25272   -3992.3642   -9487.8155   -3668.5212    1179.2441    15.491425    13.415945    26.698759    5548.8594 
  133500      133.489    381.81917    15.694572   -445.92335   -430.22878   -3292.3634    -5989.431   -3954.6519    66.992795    15.491427    13.415947    26.698741    5548.8574 
  134000      133.989      385.939    15.863917   -446.06953   -430.20561   -3304.2243   -8223.8313   -2647.6799    958.83838     15.49143    13.415949    26.698724    5548.8555 
  134500      134.489    388.97654    15.988774   -446.17025   -430.18148   -4282.8376    -8638.622   -5608.8174    1398.9266    15.491432    13.415951    26.698706    5548.8536 
  135000      134.989    393.22163    16.163267   -446.32119   -430.15793   -4395.6709   -7294.8095   -6335.7672    443.56391    15.491434    13.415953    26.698689    5548.8516 
  135500      135.489    375.62669    15.440032   -445.57362   -430.13359   -2952.7998   -5328.9887   -4478.6389    949.22799    15.491437    13.415956    26.698671    5548.8497 
  136000      135.989    369.44846    15.186078   -445.29561   -430.10953   -3512.4167   -8271.9259   -5966.2246    3700.9002    15.491439    13.415958    26.698654    5548.8477 
  136500      136.489    364.06995    14.964996   -445.04995   -430.08496   -1475.8319   -5325.2361   -3454.3322    4352.0725    15.491441     13.41596    26.698637    5548.8458 
  137000      136.989    354.34507    14.565257   -444.62682   -430.06157   -2454.3024   -8641.2718   -3444.0862    4722.4507    15.491444    13.415962    26.698619    5548.8439 
  137500      137.489    366.47739    15.063953   -445.10179   -430.03784   -3249.2001   -6510.8383    -6670.812    3434.0502    15.491446    13.415964    26.698602    5548.8419 
  138000      137.989    378.47755    15.557216   -445.57161   -430.01439   -3224.3481    -5796.026   -5008.1172    1131.0988    15.491449    13.415966    26.698584      5548.84 
  138500      138.489     368.7688     15.15814   -445.14869   -429.99055   -2747.9578   -8265.6793   -6256.0239    6277.8298    15.491451    13.415968    26.698567    5548.8381 
  139000      138.989    360.76928    14.829323   -444.79581   -429.96648   -1869.9898   -8310.3093   -2111.6677    4812.0074    15.491453     13.41597    26.698549    5548.8361 
  139500      139.489    367.49812     15.10591   -445.04867   -429.94276   -2727.9894   -6825.1186   -7230.9789    5872.1292    15.491456    13.415972    26.698532    5548.8342 
  140000      139.989    377.64862    15.523143   -445.44261   -429.91947   -3024.3116   -6895.4137   -4836.4837    2658.9627    15.491458    13.415974    26.698514    5548.8322 
  140500      140.489    387.65445     15.93443   -445.82966   -429.89523    -3406.042   -6298.1063   -5484.5081    1564.4884     15.49146    13.415976    26.698497    5548.8303 
  141000      140.989    384.70491     15.81319   -445.68481   -429.87162   -2821.4242   -8251.9565   -3820.5568    3608.2407    15.491463    13.415978    26.698479    5548.8284 
  141500      141.489    373.02368    15.333036   -445.18002   -429.84699   -2916.2451   -7703.0316   -3655.9494    2610.2457    15.491465     13.41598    26.698462    5548.8264 
  142000      141.989    377.40232    15.513019   -445.33634   -429.82332   -2494.7649   -7334.2278   -4127.4816    3977.4146    15.491467    13.415982    26.698445    5548.8245 
  142500      142.489    379.95933    15.618124   -445.41701   -429.79888   -2203.5609   -7604.0643   -5440.2451    6433.6266     15.49147    13.415984    26.698427    5548.8226 
  143000      142.989    381.00091    15.660938   -445.43619   -429.77525   -3259.1138   -7300.8669   -5454.9048    2978.4304    15.491472    13.415986     26.69841    5548.8206 
  143500      143.489    376.08599    15.458911   -445.21031    -429.7514   -3959.1343    -8376.188   -3815.3033    314.08841    15.491474    13.415988    26.698392    5548.8187 
  144000      143.989    377.62862    15.522321   -445.24948   -429.72716   -3183.5448   -6505.8976   -5466.7817    2422.0449    15.491477     13.41599    26.698375    5548.8167 
  144500      144.489    374.48775    15.393216   -445.09554   -429.70232   -4187.0771   -10729.275   -4237.8844    2405.9282    15.491479    13.415992    26.698357    5548.8148 
  145000      144.989    383.39651    15.759409   -445.43725   -429.67784   -2545.1517   -7049.8049   -6556.0065    5970.3563    15.491481    13.415994     26.69834    5548.8129 
  145500      145.489    376.59686    15.479911   -445.13353   -429.65362   -3932.7353   -8459.9788   -5024.5391     1686.312    15.491484    13.415997    26.698322    5548.8109 
  146000      145.989    393.03053    16.155412   -445.78484   -429.62943   -4083.4623   -9420.7051   -7723.9724    4894.2905    15.491486    13.415999    26.698305     5548.809 
  146500      146.489    392.27731    16.124451   -445.73015    -429.6057   -2578.4422   -7338.5766   -7551.5996    7154.8496    15.491488    13.416001    26.698288    5548.8071 
  147000      146.989    405.30513    16.659956   -446.24225   -429.58229   -3355.3233   -3783.2886   -3569.9814   -2712.6998    15.491491    13.416003     26.69827    5548.8051 
  147500      147.489    363.19022    14.928835   -444.48545   -429.55661   -2493.9267   -4858.4062   -4865.4299    2242.0561    15.491493    13.416005    26.698253    5548.8032 
  148000      147.989    365.83866    15.037698   -444.57014   -429.53245   -2995.3316    -8547.548    -3828.684    3390.2372    15.491496    13.416007    26.698235    5548.8012 
  148500      148.489    387.09001    15.911229   -445.41974   -429.50851   -3026.2878   -4868.8817   -2750.9404   -1459.0414    15.491498    13.416009    26.698218    5548.7993 
  149000      148.989    379.03665    15.580198   -445.06426   -429.48406   -3034.8686   -5693.2441     -1853.46   -1557.9015      15.4915    13.416011      26.6982    5548.7974 
  149500      149.489    368.27051    15.137658   -444.59697   -429.45931   -1755.4191   -5889.8554   -5474.6373    6098.2355    15.491503    13.416013    26.698183    5548.7954 
  150000      149.989    373.28864    15.343927   -444.77944   -429.43551   -3704.1238   -6003.0062   -5971.5002    862.13512    15.491505    13.416015    26.698165    5548.7935 
  150500      150.489    390.03243    16.032176   -445.44351   -429.41133   -3014.1448   -3317.2931   -2501.4314   -3223.7098    15.491507    13.416017    26.698148    5548.7916 
  151000      150.989     342.9875    14.098407   -443.48356   -429.38516   -1347.5043   -5443.6478   -2991.1974    4392.3324     15.49151    13.416019     26.69813    5548.7896 
  151500      151.489     397.6671    16.345997   -445.70837   -429.36237   -2910.9094   -6235.6153   -3117.4378      620.325    15.491512    13.416021    26.698113    5548.7877 
  152000      151.989     392.4336    16.130875   -445.46872   -429.33784   -3474.3781   -8155.1241   -6151.8523    3883.8422    15.491514    13.416023    26.698096    5548.7858 
  152500      152.489    383.06413    15.745746   -445.05882   -429.31307   -2136.9652   -5831.0198    -2380.081    1800.2053    15.491517    13.416025    26.698078    5548.7838 
  153000      152.989     393.6352    16.180267   -445.46925   -429.28899   -3500.1257    -8722.261   -6918.7488    5140.6327    15.491519    13.416027    26.698061    5548.7819 
  153500      153.489    390.06534    16.033529   -445.29718   -429.26365   -1900.3572   -6092.5838   -3020.8915    3412.4036    15.491521    13.416029    26.698043    5548.7799 
  154000      153.989    388.69588    15.977238    -445.2164   -429.23916   -3069.9259   -6706.3614   -3543.6428    1040.2264    15.491524    13.416031    26.698026     5548.778 
  154500      154.489    364.61759    14.987506   -444.20084   -429.21334    -1470.759   -5031.9152    -3781.917    4401.5551    15.491526    13.416033    26.698008    5548.7761 
  155000      154.989     373.0024    15.332162   -444.52081   -429.18864    -3721.573   -8594.1557   -5982.2344    3411.6712    15.491528    13.416035    26.697991    5548.7741 
  155500      155.489    400.35341    16.456417    -445.6208   -429.16438   -3834.9578   -6922.8444   -4370.5842   -211.44478    15.491531    13.416038    26.697973    5548.7722 
  156000      155.989    383.42791    15.760699   -444.89982   -429.13912   -2298.3741   -6391.3168   -5392.8004    4888.9951    15.491533     13.41604    26.697956    5548.7703 
  156500      156.489    366.31527    15.057289   -444.17166   -429.11437   -2376.0998   -7770.4646   -3698.3892    4340.5545    15.491535    13.416042    26.697939    5548.7683 
  157000      156.989    381.69283    15.689379   -444.77888    -429.0895   -3733.3018   -8234.8686   -6082.2778     3117.241    15.491538    13.416044    26.697921    5548.7664 
  157500      157.489    372.02679    15.292059   -444.35703   -429.06497   -3216.2307   -6898.1396   -5498.2862    2747.7336     15.49154    13.416046    26.697904    5548.7644 
  158000      157.989    396.86282    16.312938   -445.35331   -429.04037   -2911.4202   -9726.0939   -1945.6165    2937.4497    15.491543    13.416048    26.697886    5548.7625 
  158500      158.489    397.23791    16.328355   -445.34447   -429.01612     -2999.33   -7374.7627   -4666.7678    3043.5406    15.491545     13.41605    26.697869    5548.7606 
  159000      158.989    381.54159    15.683163   -444.67413   -428.99097   -2453.6171   -6602.4486   -5502.1932    4743.7905    15.491547    13.416052    26.697851    5548.7586 
  159500      159.489    404.65771    16.633344    -445.6004   -428.96705    -3132.907   -6579.6227    -3680.851    861.75279     15.49155    13.416054    26.697834    5548.7567 
  160000      159.989    382.71099     15.73123   -444.67322   -428.94199   -3815.9951   -7639.8087   -4178.0118    369.83511    15.491552    13.416056    26.697816    5548.7548 
  160500      160.489    405.73611    16.677672   -445.59554   -428.91787   -2699.3374   -5320.0071   -4134.7855    1356.7803    15.491554    13.416058    26.697799    5548.7528 
  161000      160.989    389.07597    15.992861   -444.88561   -428.89275   -2667.9155    -7077.594   -3171.0745    2244.9218    15.491557     13.41606    26.697781    5548.7509 
  161500      161.489    392.55917    16.136037   -445.00401   -428.86798   -1848.6921    -5610.164   -4709.8647    4773.9523    15.491559    13.416062    26.697764    5548.7489 
  162000      161.989     383.5347    15.765089   -444.60797   -428.84288   -3090.2516   -9842.8947    -3154.433    3726.5727    15.491561    13.416064    26.697747     5548.747 
  162500      162.489    391.04943     16.07398   -444.89128    -428.8173   -2049.3821   -4423.4618   -5350.1573    3625.4726    15.491564    13.416066    26.697729    5548.7451 
  163000      162.989    374.61146    15.398301   -444.19034   -428.79204   -1595.5546   -6407.5988   -3998.4665    5619.4015    15.491566    13.416068    26.697712    5548.7431 
  163500      163.489     413.7808    17.008346     -445.776   -428.76765   -2622.5075   -8953.2758   -1427.8859    2513.6393    15.491568     13.41607    26.697694    5548.7412 
  164000      163.989    404.02907    16.607504   -445.35003   -428.74253   -2329.8912    -8371.021   -4646.9424      6028.29    15.491571    13.416072    26.697677    5548.7393 
  164500      164.489    412.24747    16.945319   -445.66287   -428.71755   -1873.2198     -8311.77   -4263.2952    6955.4059    15.491573    13.416074    26.697659    5548.7373 
  165000      164.989    401.13694    16.488624   -445.18055   -428.69193   -2720.2965   -4407.0466   -5550.1117    1796.2689    15.491575    13.416076    26.697642    5548.7354 
  165500      165.489    386.09804    15.870454    -444.5362   -428.66575   -2442.3749   -6820.3838    -823.7119    316.97102    15.491578    13.416079    26.697624    5548.7334 
  166000      165.989    384.00862    15.784569   -444.42534   -428.64077   -2531.6856   -6988.9052   -2646.7509    2040.5994     15.49158    13.416081    26.697607    5548.7315 
  166500      166.489    388.27877    15.960092   -444.57533   -428.61523    -2468.379   -7444.7764   -1532.8369    1572.4763    15.491582    13.416083     26.69759    5548.7296 
  167000      166.989    395.39522    16.252612   -444.84277   -428.59016     -3846.74   -10713.643   -2583.5365    1756.9595    15.491585    13.416085    26.697572    5548.7276 
  167500      167.489    402.66566    16.551462   -445.11625   -428.56479   -2255.5204   -6177.7207   -4013.2286     3424.388    15.491587    13.416087    26.697555    5548.7257 
  168000      167.989    381.07123    15.663829   -444.20325   -428.53943   -2133.9799   -8587.2868   -3028.7626    5214.1097     15.49159    13.416089    26.697537    5548.7238 
  168500      168.489    418.14331    17.187666   -445.70188   -428.51421   -2350.9168   -7312.0481   -3532.8561    3792.1538    15.491592    13.416091     26.69752    5548.7218 
  169000      168.989    411.11251    16.898667   -445.38755   -428.48889   -2924.2491   -7241.1778   -5308.9693    3777.3998    15.491594    13.416093    26.697502    5548.7199 
  169500      169.489    370.25832    15.219367   -443.68239   -428.46302   -256.64512   -4639.0771   -2083.8237    5952.9654    15.491597    13.416095    26.697485     5548.718 
  170000      169.989    393.84077    16.188717   -444.62677   -428.43805   -1347.3496   -4749.9058   -3394.0931    4101.9499    15.491599    13.416097    26.697467     5548.716 
  170500      170.489    394.80509    16.228355   -444.64119   -428.41283   -1933.2559   -8194.3292   -4570.4428    6965.0044    15.491601    13.416099     26.69745    5548.7141 
  171000      170.989    389.57517    16.013381   -444.40045   -428.38707   -2398.7553   -6186.8865   -6569.4031    5560.0237    15.491604    13.416101    26.697432    5548.7121 
  171500      171.489    382.96117    15.741514     -444.103   -428.36149   -2115.0066   -7611.0133   -4976.9709    6242.9645    15.491606    13.416103    26.697415    5548.7102 
  172000      171.989     373.7881    15.364458   -443.70069   -428.33624   -1547.2904   -8253.9071   -3231.0167    6843.0527    15.491608    13.416105    26.697398    5548.7083 
  172500      172.489    399.06454    16.403439    -444.7141   -428.31066   -2274.8163   -8490.3202    -1124.571    2790.4424    15.491611    13.416107     26.69738    5548.7063 
  173000      172.989    382.43764    15.719994   -444.00486   -428.28487   -2353.6901   -8644.8057   -470.08794    2053.8235    15.491613    13.416109    26.697363    5548.7044 
  173500      173.489    423.91286    17.424822   -445.68486   -428.26004   -3183.2566   -7542.3161    -6281.557    4274.1034    15.491615    13.416111    26.697345    5548.7025 
  174000      173.989    388.70138    15.977464   -444.21122   -428.23375   -2579.0319   -7827.4309     -2372.09    2462.4254    15.491618    13.416113    26.697328    5548.7005 
  174500      174.489    393.27159    16.165321   -444.37313   -428.20781   -1550.8913   -5787.2685   -2023.9318    3158.5265     15.49162    13.416115     26.69731    5548.6986 
  175000      174.989    405.46256    16.666427   -444.84935   -428.18293   -3307.3514   -6903.8677   -4676.8564      1658.67    15.491622    13.416117    26.697293    5548.6966 
  175500      175.489    408.38797    16.786676    -444.9432   -428.15653    -1944.384   -8784.4426   -4738.6556    7689.9461    15.491625     13.41612    26.697275    5548.6947 
  176000      175.989    407.85242    16.764662   -444.89538   -428.13071   -1709.0911   -7367.4708   -2883.1027    5123.3001    15.491627    13.416122    26.697258    5548.6928 
  176500      176.489    416.66766     17.12701   -445.23289   -428.10588   -3158.6872   -7878.1435   -4848.6051    3250.6869    15.491629    13.416124    26.697241    5548.6908 
  177000      176.989    411.05922    16.896477   -444.97527    -428.0788    -2703.538   -8737.7016    -4073.803    4700.8906    15.491632    13.416126    26.697223    5548.6889 
  177500      177.489    379.03192    15.580003   -443.63216   -428.05216   -1561.0612   -7879.5079   -2616.5074    5812.8317    15.491634    13.416128    26.697206     5548.687 
  178000      177.989    409.96852    16.851644   -444.87876   -428.02712   -1724.9844   -5793.3284   -249.89535    868.27059    15.491637     13.41613    26.697188     5548.685 
  178500      178.489    410.78531    16.885218   -444.88522         -428     -1141.82    -5754.789   -1674.3985    4003.7277    15.491639    13.416132    26.697171    5548.6831 
  179000      178.989    387.84331    15.942193   -443.91649   -427.97429   -3467.5234     -7801.03   -3275.3843    673.84413    15.491641    13.416134    26.697153    5548.6811 
  179500      179.489    391.99817    16.112977   -444.06075   -427.94778    -1230.343   -4414.3464   -4266.9305    4990.2481    15.491644    13.416136    26.697136    5548.6792 
  180000      179.989    390.84675    16.065649   -443.98744   -427.92179   -750.89006   -5157.4551   -354.14618    3258.9311    15.491646    13.416138    26.697118    5548.6773 
  180500      180.489    403.09418    16.569076   -444.46469   -427.89561   -1595.0492   -8213.3895   -2620.9305    6049.1724    15.491648     13.41614    26.697101    5548.6753 
  181000      180.989    403.80522    16.598303   -444.46805   -427.86974   -1747.1101   -6707.1109   -1772.7143    3238.4947    15.491651    13.416142    26.697083    5548.6734 
  181500      181.489    413.82767    17.010273   -444.85413   -427.84386    -2256.376   -5102.0647   -4973.4738    3306.4105    15.491653    13.416144    26.697066    5548.6715 
  182000      181.989    400.64907     16.46857   -444.28674   -427.81817   -2079.8728   -6778.1055   -3328.9358     3867.423    15.491655    13.416146    26.697049    5548.6695 
  182500      182.489    416.33414    17.113301   -444.90502   -427.79172   -2957.1609   -8869.4502   -4541.1081    4539.0755    15.491658    13.416148    26.697031    5548.6676 
  183000      182.989    395.73727    16.266672    -444.0323   -427.76563   -1919.1177   -5336.3681   -5477.8082    5056.8232     15.49166     13.41615    26.697014    5548.6656 
  183500      183.489    399.44115    16.418919   -444.15803   -427.73911   -1262.8336   -3713.9226   -5141.8603     5067.282    15.491662    13.416152    26.696996    5548.6637 
  184000      183.989    395.99132    16.277115   -443.99025   -427.71313   -1710.6685   -8058.5196   -2995.4639    5921.9781    15.491665    13.416154    26.696979    5548.6618 
  184500      184.489    397.49109    16.338762   -444.02545   -427.68669   -2111.0665   -8533.1016   -3559.9899    5759.8919    15.491667    13.416156    26.696961    5548.6598 
  185000      184.989     401.1081    16.487439   -444.14814    -427.6607   -1041.7949   -8391.9875    -1457.597    6724.1997    15.491669    13.416158    26.696944    5548.6579 
  185500      185.489     417.4235    17.158079   -444.79306   -427.63499    -3173.184   -8954.3162   -5675.2963    5110.0605    15.491672    13.416161    26.696926     5548.656 
  186000      185.989    397.34852    16.332902   -443.94088   -427.60798   -1353.7799   -7740.7439   -2035.7685    5715.1728    15.491674    13.416163    26.696909     5548.654 
  186500      186.489    402.96701    16.563848   -444.14637   -427.58252   -1530.0437   -5461.3824   -5986.3201    6857.5714    15.491676    13.416165    26.696892    5548.6521 
  187000      186.989     395.3028    16.248813   -443.80474   -427.55593   -1845.6832   -5907.8718   -2679.4733    3050.2956    15.491679    13.416167    26.696874    5548.6501 
  187500      187.489    424.84301    17.463056   -444.99327   -427.53022   -2138.7744   -6714.5572   -4023.0527    4321.2866    15.491681    13.416169    26.696857    5548.6482 
  188000      187.989    409.35928    16.826601   -444.33103   -427.50443    -2163.276   -6242.8753   -375.35201    128.39941    15.491684    13.416171    26.696839    5548.6463 
  188500      188.489    420.17273    17.271085   -444.74886   -427.47777    -2856.317   -6154.8346   -4812.7555     2398.639    15.491686    13.416173    26.696822    5548.6443 
  189000      188.989    416.48227     17.11939   -444.56979    -427.4504   -1653.2152   -4980.6018   -5072.7546    5093.7106    15.491688    13.416175    26.696804    5548.6424 
  189500      189.489    414.92352    17.055318   -444.47972    -427.4244   -1944.4381   -7237.8512    -3721.356    5125.8929    15.491691    13.416177    26.696787    5548.6405 
  190000      189.989    388.94541    15.987495   -443.38544   -427.39795     -1061.04    -5373.526   -5802.8238    7993.2299    15.491693    13.416179    26.696769    5548.6385 
  190500      190.489    416.52857    17.121293   -444.49337   -427.37208   -1248.2866    -7401.031   -1986.9136    5643.0848    15.491695    13.416181    26.696752    5548.6366 
  191000      190.989    407.64484     16.75613   -444.10196   -427.34583   -1390.0727   -7744.7272   -956.60481    4531.1139    15.491698    13.416183    26.696734    5548.6347 
  191500      191.489     399.0729    16.403782   -443.72189    -427.3181   -1496.9603   -5758.3358   -2499.8454    3767.3004      15.4917    13.416185    26.696717    5548.6327 
  192000      191.989    396.76971     16.30911   -443.60071    -427.2916   -2396.6918   -5618.4639   -7483.8684     5912.257    15.491702    13.416187      26.6967    5548.6308 
  192500      192.489    401.75123    16.513874   -443.77934   -427.26547   -2369.9826   -5286.9726   -4082.1075    2259.1325    15.491705    13.416189    26.696682    5548.6288 
  193000      192.989    407.75501    16.760658   -443.99947   -427.23881   -1385.0895   -6951.1803   -3338.9452    6134.8572    15.491707    13.416191    26.696665    5548.6269 
  193500      193.489    419.28486    17.234589   -444.44728   -427.21269   -1577.9871   -3387.9618    -6769.463    5423.4634    15.491709    13.416193    26.696647     5548.625 
  194000      193.989     369.5993    15.192278   -442.37685   -427.18457   -738.22842   -8409.2826    -623.7786     6818.376    15.491712    13.416195     26.69663     5548.623 
  194500      194.489    414.38759    17.033288   -444.19315   -427.15986   -2102.3242    -3963.483   -5056.8595    2713.3699    15.491714    13.416197    26.696612    5548.6211 
  195000      194.989    405.97287    16.687403   -443.82034   -427.13294   -1140.6425   -6139.6144   -3063.6954    5781.3825    15.491716    13.416199    26.696595    5548.6192 
  195500      195.489    424.51016    17.449374   -444.55591   -427.10653   -2780.4351   -9323.1325   -3762.0422    4743.8693    15.491719    13.416202    26.696577    5548.6172 
  196000      195.989    397.03486    16.320009   -443.39958   -427.07957   -1495.3953   -7087.0371   -3485.7595    6086.6108    15.491721    13.416204     26.69656    5548.6153 
  196500      196.489    388.53968    15.970817    -443.0232   -427.05238   -1675.9871   -8082.0168   -2215.4969    5269.5524    15.491723    13.416206    26.696543    5548.6133 
  197000      196.989    429.13922     17.63965   -444.66649   -427.02684   -1394.6488   -5941.3166   -1817.9021    3575.2724    15.491726    13.416208    26.696525    5548.6114 
  197500      197.489     428.1745    17.599995   -444.60074   -427.00074   -2480.0779   -7280.5756   -2804.2759    2644.6177    15.491728     13.41621    26.696508    5548.6095 
  198000      197.989    412.49206    16.955373   -443.92864   -426.97327   -1904.4432   -4778.7113   -6850.2937    5915.6754    15.491731    13.416212     26.69649    5548.6075 
  198500      198.489     409.9991    16.852901   -443.79905   -426.94615   -2198.0897   -5050.5302   -3800.2387    2256.4998    15.491733    13.416214    26.696473    5548.6056 
  199000      198.989    439.20364    18.053345   -444.97345    -426.9201    -1091.432    -5360.008   -2128.9864    4214.6984    15.491735    13.416216    26.696455    5548.6037 
  199500      199.489     422.3261    17.359599   -444.25289   -426.89329   -2636.3823   -5458.4875   -4627.0694    2176.4101    15.491738    13.416218    26.696438    5548.6017 
  200000      199.989    419.85831    17.258161   -444.12348   -426.86532   -2216.4253   -6504.1734    -59.35743   -85.744964     15.49174     13.41622     26.69642    5548.5998 
  200500      200.489    409.14518      16.8178   -443.65672   -426.83892   -1949.4198   -6668.4867    -3533.807    4354.0341    15.491742    13.416222    26.696403    5548.5978 
  201000      200.989     410.7593    16.884149   -443.69584   -426.81169   -305.62343   -5204.3441   -1229.3087    5516.7824    15.491745    13.416224    26.696385    5548.5959 
  201500      201.489    402.31298    16.536965   -443.32232   -426.78535    -1378.199    -6199.675   -5270.9061    7335.9842    15.491747    13.416226    26.696368     5548.594 
  202000      201.989    405.68939    16.675751   -443.43436   -426.75861   -483.32159    -5526.891   -4735.7692    8812.6954    15.491749    13.416228    26.696351     5548.592 
  202500      202.489    430.89177    17.711688   -444.44387   -426.73218   -962.31933   -5277.0205   -3205.4804    5595.5429    15.491752     13.41623    26.696333    5548.5901 
  203000      202.989    430.55434    17.697818   -444.40303   -426.70521   -1704.6578   -6389.8495   -3201.0637    4476.9397    15.491754    13.416232    26.696316    5548.5882 
  203500      203.489    410.80604     16.88607   -443.56443   -426.67836   -1161.8777    -3811.343   -2359.4747    2685.1845    15.491756    13.416234    26.696298    5548.5862 
  204000      203.989    408.08137    16.774073    -443.4249   -426.65083   -1275.6506    -8123.898   -3971.5126    8268.4589    15.491759    13.416236    26.696281    5548.5843 
  204500      204.489    404.47771    16.625946   -443.24849   -426.62254   -1502.1706   -8314.3327   -4950.5837    8758.4047    15.491761    13.416238    26.696263    5548.5823 
  205000      204.989    419.03885    17.224477   -443.82068    -426.5962   -1846.9283    -6828.223   -4459.6841    5747.1223    15.491763     13.41624    26.696246    5548.5804 
  205500      205.489    411.41756    16.911206   -443.48021   -426.56901   -1140.0268   -8570.4266   -292.63868    5442.9848    15.491766    13.416243    26.696228    5548.5785 
  206000      205.989    378.17143    15.544633   -442.08568   -426.54105   -717.58942   -5588.6345   -5764.8679    9200.7342    15.491768    13.416245    26.696211    5548.5765 
  206500      206.489     401.5768    16.506704   -443.02122   -426.51452   -241.03482   -2320.3274   -3553.6567    5150.8796     15.49177    13.416247    26.696194    5548.5746 
  207000      206.989    421.79108    17.337607   -443.82543   -426.48782   -813.30281   -4687.8589   -3169.7208    5417.6713    15.491773    13.416249    26.696176    5548.5727 
  207500      207.489    398.19623    16.367747   -442.82798   -426.46023    562.31915   -3837.9961   -938.40533    6463.3588    15.491775    13.416251    26.696159    5548.5707 
  208000      207.989    447.62041    18.399314   -444.83383   -426.43452   -1531.5978    -6656.131   -3959.3935    6020.7311    15.491778    13.416253    26.696141    5548.5688 
  208500      208.489    414.97178    17.057301   -443.46347   -426.40616   -227.30403   -5988.2903   -5726.3771    11032.755     15.49178    13.416255    26.696124    5548.5668 
  209000      208.989    415.28921    17.070349   -443.44852   -426.37818   -402.50521   -6154.0701   -2067.7483    7014.3027    15.491782    13.416257    26.696106    5548.5649 
  209500      209.489    427.75314    17.582676   -443.93448    -426.3518    -1282.274   -4919.6229   -4835.1916    5907.9924    15.491785    13.416259    26.696089     5548.563 
  210000      209.989    427.16618    17.558549   -443.88247   -426.32392   -690.02519    -6277.006   -691.19452     4898.125    15.491787    13.416261    26.696071     5548.561 
  210500      210.489    428.37583    17.608271   -443.90574   -426.29747   -1552.2531   -4738.9827   -3323.7417     3405.965    15.491789    13.416263    26.696054    5548.5591 
  211000      210.989    414.37228    17.032659   -443.30319   -426.27053   -546.28771   -4876.9976   -1818.1771    5056.3115    15.491792    13.416265    26.696036    5548.5572 
  211500      211.489     425.9072    17.506799   -443.74979   -426.24299   -699.91052   -5858.4402   -148.27928     3906.988    15.491794    13.416267    26.696019    5548.5552 
  212000      211.989    407.41551    16.746703   -442.96198   -426.21528   -881.84101   -4884.0991   -3506.2634    5744.8395    15.491796    13.416269    26.696002    5548.5533 
[...]
  948500      948.489    611.21215    25.123708   -439.70858   -414.58487    2535.6541   -2555.7942   -198.99686    10361.753    15.495258    13.419289    26.670298    5545.6974 
  949000      948.989    568.95093    23.386572   -437.96751   -414.58094    5431.9155    802.83667    3279.2314    12213.678     15.49526    13.419291     26.67028    5545.6955 
  949500      949.489    590.45879    24.270647   -438.84766   -414.57701     4428.469   -4427.0998    1167.7396    16544.767    15.495263    13.419293    26.670263    5545.6936 
  950000      949.989    598.29146    24.592607   -439.16814   -414.57554    2945.2315   -3902.8821    2206.2873    10532.289    15.495265    13.419295    26.670245    5545.6916 
  950500      950.489    543.47492    22.339388   -436.91114   -414.57175    5355.9565     1177.639     1061.791    13828.439    15.495267    13.419297    26.670228    5545.6897 
  951000      950.989    571.44509    23.489094   -438.05623   -414.56713    4010.6913   -1476.1415    2838.4146    10669.801     15.49527    13.419299     26.67021    5545.6877 
  951500      951.489    555.96407    22.852751   -437.41663   -414.56388    3322.4779   -296.89304   -765.73704    11030.064    15.495272    13.419301    26.670193    5545.6858 
  952000      951.989    578.75468    23.789552   -438.35105    -414.5615    4747.3162   -1257.1609    2930.7168    12568.393    15.495274    13.419303    26.670176    5545.6839 
  952500      952.489    537.54416    22.095605   -436.65596   -414.56035    5645.6108   -1819.5943    2308.6234    16447.803    15.495277    13.419305    26.670158    5545.6819 
  953000      952.989    550.57271     22.63114   -437.18921   -414.55807    5040.9483   -458.83885    1726.0015    13855.682    15.495279    13.419307    26.670141      5545.68 
  953500      953.489    568.58582    23.371564   -437.92707   -414.55551    2012.9511   -2087.3762   -1810.6404    9936.8699    15.495281    13.419309    26.670123     5545.678 
  954000      953.989    585.10647    24.050641   -438.60388   -414.55324    3482.9177    -1678.103   -167.22446    12294.081    15.495284    13.419311    26.670106    5545.6761 
  954500      954.489    568.77537    23.379356   -437.92979   -414.55043    3594.1628   -4165.5934   -1912.5259    16860.608    15.495286    13.419313    26.670088    5545.6742 
  955000      954.989     550.5669    22.630902   -437.17569   -414.54479    5057.2295   -2347.8896    3664.5396    13855.038    15.495288    13.419315    26.670071    5545.6722 
  955500      955.489    576.82801    23.710357   -438.25298   -414.54263    4419.6941   -659.13018    4598.3871    9319.8255    15.495291    13.419318    26.670053    5545.6703 
  956000      955.989    573.41796    23.570188   -438.10928    -414.5391    2911.0919   -4182.0201    1802.5246    11112.771    15.495293     13.41932    26.670036    5545.6683 
  956500      956.489    583.25754    23.974641    -438.5113   -414.53666    4205.2752    3053.2494     167.2395    9395.3368    15.495295    13.419322    26.670019    5545.6664 
  957000      956.989    557.96597    22.935039   -437.46755   -414.53251    2698.9833   -3542.7437    700.14292    10939.551    15.495298    13.419324    26.670001    5545.6645 
  957500      957.489    562.33942    23.114808   -437.64409   -414.52928    4476.1419    1212.0507    -3083.197    15299.572      15.4953    13.419326    26.669984    5545.6625 
  958000      957.989    533.72762    21.938728   -436.46289   -414.52416    5183.2935    1446.6091     4732.552    9370.7193    15.495303    13.419328    26.669966    5545.6606 
  958500      958.489    559.54766    23.000053   -437.52017   -414.52012      5444.16   -1219.2486    4716.2836    12835.445    15.495305     13.41933    26.669949    5545.6586 
  959000      958.989    547.86182     22.51971   -437.03575   -414.51604    3854.3392   -3530.3238     4123.214    10970.128    15.495307    13.419332    26.669931    5545.6567 
  959500      959.489    577.89827     23.75435   -438.26899   -414.51464    5427.5392    1960.9784    2885.0373    11436.602     15.49531    13.419334    26.669914    5545.6548 
  960000      959.989    550.79391    22.640233   -437.15024   -414.51001    3897.1025   -3956.5121    4729.1738    10918.646    15.495312    13.419336    26.669896    5545.6528 
  960500      960.489    568.73118    23.377539   -437.88438   -414.50684    3176.1737   -1658.1313   -2117.1147    13303.767    15.495314    13.419338    26.669879    5545.6509 
  961000      960.989    596.40057    24.514882   -439.01911   -414.50423    4351.1689   -659.76643    3674.3748    10038.898    15.495317     13.41934    26.669861    5545.6489 
  961500      961.489    599.13037     24.62709   -439.12606   -414.49897    4126.0526   -2101.1484   -5.8001107    14485.106    15.495319    13.419342    26.669844     5545.647 
  962000      961.989    556.11483    22.858948   -437.35251   -414.49357    3964.5858   -2870.2721    406.07656    14357.953    15.495321    13.419344    26.669827    5545.6451 
  962500      962.489     579.4826    23.819473   -438.30953   -414.49006    4519.1042   -1644.1873    919.95554    14281.544    15.495324    13.419346    26.669809    5545.6431 
  963000      962.989     547.9368    22.522792   -437.00793   -414.48514    3392.5878   -3269.5611    3060.1147     10387.21    15.495326    13.419348    26.669792    5545.6412 
  963500      963.489    541.51542    22.258843   -436.73998   -414.48114    5634.5591   -1406.5571    3209.4749     15100.76    15.495328     13.41935    26.669774    5545.6392 
  964000      963.989    550.83336    22.641854   -437.11753   -414.47567     3541.511   -3455.3751    6414.1259    7665.7822    15.495331    13.419352    26.669757    5545.6373 
  964500      964.489    582.70742    23.952029   -438.42532   -414.47329    3060.4292    1663.5932   -1434.7942    8952.4885    15.495333    13.419354    26.669739    5545.6354 
  965000      964.989    583.90519    24.001263    -438.4704   -414.46914    4308.1024   -3738.6844   -135.10454    16798.096    15.495335    13.419356    26.669722    5545.6334 
  965500      965.489    541.39126    22.253739   -436.71659   -414.46285    4411.7977   -3975.3227    2594.1481    14616.568    15.495338    13.419359    26.669704    5545.6315 
  966000      965.989    556.29298    22.866271   -437.32445   -414.45818    3545.9119   -4959.0972   -42.223047    15639.056     15.49534    13.419361    26.669687    5545.6295 
  966500      966.489      579.105    23.803952   -438.25835    -414.4544    3602.0611   -2464.0632   -3091.1231     16361.37    15.495342    13.419363     26.66967    5545.6276 
  967000      966.989    577.79843    23.750246   -438.20112   -414.45087    2802.8218   -1705.6958    3559.9457    6554.2156    15.495345    13.419365    26.669652    5545.6257 
  967500      967.489    554.65277     22.79885   -437.24266   -414.44381    3352.4588   -5487.3384    2038.6825    13506.032    15.495347    13.419367    26.669635    5545.6237 
  968000      967.989    524.36779    21.553994   -435.99333   -414.43934    5686.8706   -2292.3775    6405.3431    12947.646     15.49535    13.419369    26.669617    5545.6218 
  968500      968.489    547.41917    22.501515   -436.93617   -414.43465    5145.1243   -1591.4589    3121.1543    13905.677    15.495352    13.419371      26.6696    5545.6198 
  969000      968.989    538.30306      22.1268   -436.55589   -414.42909    5134.1414   -1023.2724    5717.5032    10708.193    15.495354    13.419373    26.669582    5545.6179 
  969500      969.489    602.51019    24.766016   -439.19118   -414.42516    3998.3807   -2592.9666    1.9871356    14586.122    15.495357    13.419375    26.669565     5545.616 
  970000      969.989     594.0943    24.420083   -438.84009      -414.42    2598.2709   -7442.4281   -849.37269    16086.614    15.495359    13.419377    26.669547     5545.614 
  970500      970.489    545.14941    22.408217   -436.82111   -414.41289    4942.2062   -4810.1505    682.44608    18954.323    15.495361    13.419379     26.66953    5545.6121 
  971000      970.989    599.11341    24.626393   -439.03489    -414.4085    3979.2512   -227.92506    180.00555    11985.673    15.495364    13.419381    26.669512    5545.6101 
  971500      971.489     564.5414    23.205319   -437.60714   -414.40182    4778.9573   -4246.7226     1584.481    16999.114    15.495366    13.419383    26.669495    5545.6082 
  972000      971.989    551.83895    22.683189   -437.07925   -414.39606    5320.7827   -394.42346    317.14224    16039.629    15.495368    13.419385    26.669478    5545.6063 
  972500      972.489    576.17542    23.683533   -438.07474   -414.39121    3958.4364    -2522.477   -1381.8908    15779.677    15.495371    13.419387     26.66946    5545.6043 
  973000      972.989     577.2669    23.728398   -438.11428   -414.38588    3133.3135   -3507.7345   -1060.2035    13967.878    15.495373    13.419389    26.669443    5545.6024 
  973500      973.489    605.35941    24.883133   -439.26476   -414.38162    3153.3244   -3941.6673    561.53922    12840.101    15.495375    13.419391    26.669425    5545.6004 
  974000      973.989    583.07732    23.967233   -438.34431   -414.37708     3957.507   -2253.8187    2505.9525    11620.387    15.495378    13.419393    26.669408    5545.5985 
  974500      974.489    533.59908    21.933444   -436.30401   -414.37056    4720.4921   -2512.7531   -189.93984    16864.169     15.49538    13.419395     26.66939    5545.5966 
  975000      974.989    611.88172     25.15123   -439.51609   -414.36486    3823.8435   -864.53041   -1330.9342    13666.995    15.495382    13.419397    26.669373    5545.5946 
  975500      975.489    541.78425    22.269893   -436.62875   -414.35886    5275.9376   -2287.4838    5503.3459    12611.951    15.495385      13.4194    26.669355    5545.5927 
  976000      975.989    571.24276    23.480777    -437.8345   -414.35372    4025.9078    244.22582    2846.7764    8986.7211    15.495387    13.419402    26.669338    5545.5907 
  976500      976.489    566.66688    23.292687   -437.64023   -414.34754    3457.0421   -3439.7891   -1629.0576    15439.973    15.495389    13.419404    26.669321    5545.5888 
  977000      976.989    547.56369    22.507456   -436.84798   -414.34053    5545.7867   -2465.6413    5104.8648    13998.137    15.495392    13.419406    26.669303    5545.5869 
  977500      977.489    552.57616    22.713492   -437.04671   -414.33321    3257.8826    1184.7459    422.46844    8166.4335    15.495394    13.419408    26.669286    5545.5849 
  978000      977.989    548.90568    22.562617   -436.89151   -414.32889     5603.185   -2982.0245    3332.5292     16459.05    15.495397     13.41941    26.669268     5545.583 
  978500      978.489    571.88243    23.507071   -437.82939   -414.32232    4889.5629   -257.50527    1570.5952    13355.599    15.495399    13.419412    26.669251     5545.581 
  979000      978.989    600.90658      24.7001   -439.01724   -414.31714    2428.7691   -68.096053    865.24069    6489.1628    15.495401    13.419414    26.669233    5545.5791 
  979500      979.489    567.92107     23.34424   -437.65468   -414.31044    4188.1727   -2837.6185    2818.0418    12584.095    15.495404    13.419416    26.669216    5545.5772 
  980000      979.989    585.26786    24.057275   -438.36043   -414.30316    2967.2488   -3826.7832    3917.8281    8810.7014    15.495406    13.419418    26.669198    5545.5752 
  980500      980.489     566.1742    23.272436   -437.56798   -414.29554    5032.5561   -2697.5958    3456.0531    14339.211    15.495408     13.41942    26.669181    5545.5733 
  981000      980.989     572.3417    23.525949   -437.81507   -414.28912    3770.4512   -1220.5034    1725.8937    10805.963    15.495411    13.419422    26.669163    5545.5713 
  981500      981.489    576.17166    23.683378   -437.96827   -414.28489    5577.0219    652.49656    4814.7216    11263.848    15.495413    13.419424    26.669146    5545.5694 
  982000      981.989    571.38261    23.486526   -437.76343    -414.2769    3297.0645   -4163.2682     533.6834    13520.778    15.495415    13.419426    26.669129    5545.5675 
  982500      982.489    566.39122    23.281356   -437.55128   -414.26992    4973.7083    1317.8887    521.23498    13082.001    15.495418    13.419428    26.669111    5545.5655 
  983000      982.989    583.89616    24.000892   -438.26496   -414.26407    4809.3049   -2744.2976   -470.01712     17642.23     15.49542     13.41943    26.669094    5545.5636 
  983500      983.489    602.41465    24.762089   -439.02074   -414.25865    3414.3847   -1884.8047    573.02106    11554.938    15.495422    13.419432    26.669076    5545.5616 
  984000      983.989    559.36993    22.992748   -437.24367   -414.25092    5260.5972   -2451.3307    2635.1703    15597.952    15.495425    13.419434    26.669059    5545.5597 
  984500      984.489    588.21311    24.178339   -438.42278   -414.24444    4934.6804    1322.4505    1842.6841    11638.907    15.495427    13.419436    26.669041    5545.5577 
  985000      984.989    556.98263    22.894618   -437.13193   -414.23731    4319.0908   -2164.0846    2399.1515    12722.206    15.495429    13.419438    26.669024    5545.5558 
  985500      985.489    544.33565    22.374768   -436.60499   -414.23022    5406.0146    60.902381    3127.8253    13029.316    15.495432    13.419441    26.669006    5545.5539 
  986000      985.989    588.22932    24.179005   -438.40528   -414.22628    4319.9905   -1734.8003    1807.6956    12887.076    15.495434    13.419443    26.668989    5545.5519 
  986500      986.489    543.23879    22.329682   -436.54802   -414.21833    6605.6566    1996.3395    3461.8333    14358.797    15.495436    13.419445    26.668972      5545.55 
  987000      986.989    513.41907     21.10395    -435.3129   -414.20895    6691.4544   -617.37412    6227.6841    14464.053    15.495439    13.419447    26.668954     5545.548 
  987500      987.489    593.55853    24.398061   -438.60067   -414.20261    4735.7992    1911.7902    1692.4477     10603.16    15.495441    13.419449    26.668937    5545.5461 
  988000      987.989    570.39889     23.44609   -437.63981   -414.19372    5750.2925   -655.87055    2087.6091    15819.139    15.495444    13.419451    26.668919    5545.5442 
  988500      988.489    588.57435    24.193188   -438.38068    -414.1875     3610.706   -774.35794    880.62626     10725.85    15.495446    13.419453    26.668902    5545.5422 
  989000      988.989    574.51989    23.615483   -437.79576   -414.18028    6064.5573     1405.444    4228.9295    12559.299    15.495448    13.419455    26.668884    5545.5403 
  989500      989.489    552.30579    22.702378    -436.8749   -414.17252    4104.1109   -1106.3628    943.17275    12475.523    15.495451    13.419457    26.668867    5545.5383 
  990000      989.989    597.25164    24.549865   -438.71587     -414.166    4937.0596    1808.0418    1244.3298    11758.807    15.495453    13.419459    26.668849    5545.5364 
  990500      990.489    591.12975    24.298226   -438.45682    -414.1586    3109.7079   -4832.1201    799.88072    13361.363    15.495455    13.419461    26.668832    5545.5345 
  991000      990.989    562.46953    23.120156   -437.27173   -414.15157    4894.4918   -1185.6861    662.22813    15206.933    15.495458    13.419463    26.668814    5545.5325 
  991500      991.489    589.23566     24.22037   -438.36278   -414.14241    3493.5731    -1650.235    3013.5355    9117.4189     15.49546    13.419465    26.668797    5545.5306 
  992000      991.989    585.96418    24.085897   -438.22129    -414.1354    3450.7337   -4629.4901   -1164.7703    16146.461    15.495462    13.419467     26.66878    5545.5286 
  992500      992.489     596.6774    24.526261   -438.65444   -414.12818    4080.0666    164.27311   -2059.9294    14135.856    15.495465    13.419469    26.668762    5545.5267 
  993000      992.989    580.94055    23.879402   -437.99762   -414.11822    4066.0794   -4358.4382    3379.3257    13177.351    15.495467    13.419471    26.668745    5545.5248 
  993500      993.489    564.54702    23.205551   -437.31642   -414.11087    4508.0644   -1050.4012   -786.85549     15361.45    15.495469    13.419473    26.668727    5545.5228 
  994000      993.989    575.75165    23.666114   -437.77016   -414.10405    4879.2074   -4099.9692    2547.9684    16189.623    15.495472    13.419475     26.66871    5545.5209 
  994500      994.489    608.55894    25.014648   -439.11022   -414.09557    4597.9569   -1859.6545   -3026.4101    18679.935    15.495474    13.419477    26.668692    5545.5189 
  995000      994.989     554.4774    22.791642   -436.87768   -414.08604    6065.7344   -576.18755    4242.1213    14531.269    15.495476    13.419479    26.668675     5545.517 
  995500      995.489    570.42209    23.447044   -437.52542   -414.07838    3886.8344    491.25963    34.586028    11134.658    15.495479    13.419482    26.668657    5545.5151 
  996000      995.989    582.77329    23.954736   -438.02516   -414.07043    4463.8914   -2005.3126    4836.1768     10560.81    15.495481    13.419484     26.66864    5545.5131 
  996500      996.489      605.912    24.905847   -438.96843   -414.06259    4479.9411   -3424.4368    1238.0469    15626.213    15.495483    13.419486    26.668623    5545.5112 
  997000      996.989     588.4263    24.187102   -438.24126   -414.05416    3066.7818   -3205.5956    2229.3473    10176.594    15.495486    13.419488    26.668605    5545.5092 
  997500      997.489    603.63307    24.812172   -438.85977   -414.04759    3987.5002   -2175.8509    284.59224    13853.759    15.495488     13.41949    26.668588    5545.5073 
  998000      997.989    581.50426    23.902573   -437.94168   -414.03911    2549.5891   -3617.6197    492.79367    10773.593    15.495491    13.419492     26.66857    5545.5054 
  998500      998.489    593.89948    24.412075   -438.44315   -414.03107    2782.9459   -1141.7021   -629.76911    10120.309    15.495493    13.419494    26.668553    5545.5034 
  999000      998.989    589.39069    24.226743   -438.25004    -414.0233    3463.3935   -2589.0047   -4045.0269    17024.212    15.495495    13.419496    26.668535    5545.5015 
  999500      999.489    591.51622    24.314112   -438.32722   -414.01311    5544.2229   -766.00772    2117.8033    15280.873    15.495498    13.419498    26.668518    5545.4995 
 1000000      999.989    551.70921    22.677856   -436.68077   -414.00292    5325.1096   -2923.8298    2539.9152    16359.243      15.4955      13.4195      26.6685    5545.4976 
 1000011         1000    551.01865    22.649471    -436.6535   -414.00403    5487.4337   -2835.4924    3804.5708    15493.223      15.4955      13.4195      26.6685    5545.4976 
Loop time of 917.61 on 28 procs for 1000000 steps with 319 atoms

Performance: 94.158 ns/day, 0.255 hours/ns, 1089.787 timesteps/s
87.0% CPU use with 28 MPI tasks x no OpenMP threads

MPI task timing breakdown:
Section |  min time  |  avg time  |  max time  |%varavg| %total
---------------------------------------------------------------
Pair    | 748.39     | 800.09     | 830.96     |  71.0 | 87.19
Neigh   | 0.021831   | 0.036019   | 0.046248   |   3.4 |  0.00
Comm    | 75.545     | 105.62     | 155.88     | 187.3 | 11.51
Output  | 0.10074    | 0.10306    | 0.12748    |   1.5 |  0.01
Modify  | 5.0969     | 6.7107     | 8.4639     |  44.0 |  0.73
Other   |            | 5.043      |            |       |  0.55

Nlocal:    11.3929 ave 15 max 5 min
Histogram: 1 0 2 1 3 4 2 5 2 8
Nghost:    648.607 ave 676 max 588 min
Histogram: 2 2 0 0 0 2 2 8 8 4
Neighs:    717.071 ave 984 max 292 min
Histogram: 1 0 3 1 6 1 4 5 3 4
FullNghs:  1434.14 ave 1916 max 615 min
Histogram: 1 0 3 3 4 1 4 4 3 5

Total # of neighbors = 40156
Ave neighs/atom = 125.881
Neighbor list builds = 527
Dangerous builds = 0

write_restart   POSCAR_1x1x1.rest

#unfix    1
#undump   1
Total wall time: 0:15:17
