LAMMPS (7 Dec 2015)
#----------- Initialize Simulation ------------ restart01
#processors	2 2 2
units		metal
boundary	p p p     ## periodic boundary condition  on x y z axis ##
atom_style atomic
#atom_modify map array sort 0 0.0

read_data	POSCAR_1x1x1.lammps
  triclinic box = (0 0 0) to (15.3766 13.3166 27.5432) with tilt (-7.6882 0 0)
  2 by 2 by 7 MPI processor grid
  reading atoms ...
  319 atoms

#----------- Define Potential -----------------
pair_style meam
pair_coeff * * MgAlZn.library.meam Mg Al Zn MgAlZn.parameter.meam Mg Al Zn 	#1=Mg 2=Al 3=Zn	#atoms/mass

#----------- Neighbor List --------------------
neighbor 2.0 bin
neigh_modify delay 10 check yes

#--------------  Run a simulation (minimization) ---------------------------------------
minimize       1.0e-4   1.0e-6   100   1000          #結構優化的條件
WARNING: Resetting reneighboring criteria during minimization (../min.cpp:168)
Neighbor list info ...
  2 neighbor list requests
  update every 1 steps, delay 0 steps, check yes
  max neighbors/atom: 2000, page size: 100000
  master list distance cutoff = 8
  ghost atom cutoff = 8
  binsize = 4 -> bins = 6 4 7
Memory usage per processor = 8.65176 Mbytes
Step Temp E_pair E_mol TotEng Press 
       0            0   -433.90317            0   -433.90317   -4278.7783 
      13            0   -457.15576            0   -457.15576   -21810.455 
Loop time of 0.0205305 on 28 procs for 13 steps with 319 atoms

88.8% CPU use with 28 MPI tasks x no OpenMP threads

Minimization stats:
  Stopping criterion = energy tolerance
  Energy initial, next-to-last, final = 
        -433.903166314     -457.120532829       -457.1557571
  Force two-norm initial, final = 21.74 0.747707
  Force max component initial, final = 4.21641 0.147892
  Final line search alpha, max atom move = 0.554622 0.0820243
  Iterations, force evaluations = 13 22

MPI task timing breakdown:
Section |  min time  |  avg time  |  max time  |%varavg| %total
---------------------------------------------------------------
Pair    | 0.016615   | 0.01735    | 0.018511   |   0.4 | 84.51
Neigh   | 0          | 0          | 0          |   0.0 |  0.00
Comm    | 0.001204   | 0.0023027  | 0.0030452  |   0.9 | 11.22
Output  | 0          | 0          | 0          |   0.0 |  0.00
Modify  | 0          | 0          | 0          |   0.0 |  0.00
Other   |            | 0.0008779  |            |       |  4.28

Nlocal:    11.3929 ave 16 max 6 min
Histogram: 1 0 4 3 2 4 3 4 4 3
Nghost:    641.893 ave 683 max 582 min
Histogram: 3 3 1 1 2 3 2 3 3 7
Neighs:    704.357 ave 957 max 369 min
Histogram: 1 2 4 3 0 3 4 5 3 3
FullNghs:  1408.71 ave 1984 max 741 min
Histogram: 1 3 3 3 3 2 3 5 3 2

Total # of neighbors = 39444
Ave neighs/atom = 123.649
Neighbor list builds = 0
Dangerous builds = 0
velocity all  create 600.0 4928459 #rot yes dist gaussian

#--------------  Run a simulation (Relaxation)  ----------------------------------------
fix  1  all  nvt   temp  600.0  600.0  100				#damping constant
#fix  2  all  npt   temp  393.0  393.0  50 iso 0.0 0.0 1000.0
fix  2  all deform 1 x final 0 15.3814 y final 0 13.3207 z final 0 27.5082 xy final -7.6906 units lattice
#fix  3  all  npt   temp  393.0  393.0  50 z 0.0 0.0 1000.0

#variable b equal 1
#fix 2 all efield  0.0  0.0  v_b
#compute pot all pe/atom


#----------- Output --------------------------
thermo	 500
timestep  0.001		#1.0 fs
thermo_style	custom step time temp ke pe etotal press pxx pyy pzz lx ly lz vol

dump 1 all custom 10000 dump.eq id type x y z
dump_modify 1 sort  id

run        1000000	#1000 ps
Neighbor list info ...
  2 neighbor list requests
  update every 1 steps, delay 10 steps, check yes
  max neighbors/atom: 2000, page size: 100000
  master list distance cutoff = 8
  ghost atom cutoff = 8
  binsize = 4 -> bins = 6 4 7
Memory usage per processor = 7.55894 Mbytes
Step Time Temp KinEng PotEng TotEng Press Pxx Pyy Pzz Lx Ly Lz Volume 
      13            0          600    24.662836   -457.15576   -432.49292   -17139.625   -10555.145   -7710.2792   -33153.451      15.3766      13.3166      27.5432    5639.8567 
     500        0.487    330.40943    13.581389   -446.07084   -432.48945   -9508.0197   -5364.4096   -1904.2197    -21255.43    15.376602    13.316602    27.543183    5639.8549 
    1000        0.987    326.36671    13.415214   -445.90411    -432.4889   -11396.019   -5764.6655   -2416.2888   -26007.101    15.376605    13.316604    27.543165    5639.8531 
    1500        1.487    319.95398    13.151621   -445.63992    -432.4883   -10038.703   -3549.9159   -1400.1104   -25166.083    15.376607    13.316606    27.543148    5639.8512 
    2000        1.987    329.02022    13.524286   -446.01165   -432.48737   -10494.577   -5043.9713   -3488.1671   -22951.594     15.37661    13.316608     27.54313    5639.8494 
    2500        2.487    329.50865    13.544363    -446.0306   -432.48624   -10649.722    -3031.128   -3308.8578   -25609.181    15.376612     13.31661    27.543113    5639.8475 
    3000        2.987    320.05207    13.155653   -445.64017   -432.48451   -11004.897   -4707.0062   -3660.9931   -24646.691    15.376614    13.316612    27.543095    5639.8457 
    3500        3.487    308.87161    12.696083   -445.17834   -432.48226   -10697.067   -6080.9974   -2078.3813   -23931.822    15.376617    13.316614    27.543078    5639.8439 
    4000        3.987    329.88731    13.559927    -446.0399   -432.47998   -9893.9233   -2392.4866   -906.08983   -26383.193    15.376619    13.316616     27.54306     5639.842 
    4500        4.487    317.58237    13.054136   -445.53184    -432.4777   -9037.4936   -4251.0688   -1215.2891   -21646.123    15.376622    13.316618    27.543043    5639.8402 
    5000        4.987    296.08706    12.170577    -444.6449   -432.47432   -8707.7142   -4060.9908   -3131.7896   -18930.362    15.376624     13.31662    27.543025    5639.8384 
    5500        5.487    325.43073    13.376741   -445.84825   -432.47151    -9214.892   -3872.8743   -3114.2115    -20657.59    15.376626    13.316622    27.543008    5639.8365 
    6000        5.987    303.20301    12.463077   -444.93092   -432.46785   -10138.152   -4398.8107   -2212.8178   -23802.828    15.376629    13.316625     27.54299    5639.8347 
    6500        6.487    304.90977    12.533233   -444.99732   -432.46408   -11023.918   -6188.4075   -2096.0408   -24787.306    15.376631    13.316627    27.542973    5639.8329 
    7000        6.987    315.21158    12.956686    -445.4167   -432.46001   -10880.714   -4846.9787   -4171.8111   -23623.352    15.376634    13.316629    27.542955     5639.831 
    7500        7.487    304.81582    12.529371   -444.98498   -432.45561     -9266.06   -3078.0678   -3845.2942   -20874.818    15.376636    13.316631    27.542938    5639.8292 
    8000        7.987    289.87881    11.915389   -444.36592   -432.45053   -9644.4559   -2165.6511   -3459.0701   -23308.647    15.376638    13.316633     27.54292    5639.8274 
    8500        8.487    325.35721    13.373719   -445.81993   -432.44621    -10521.92   -5220.5757   -3276.3719   -23068.812    15.376641    13.316635    27.542903    5639.8255 
    9000        8.987    326.14251    13.405999   -445.84674   -432.44074   -11320.927   -4957.2555   -4001.5231   -25004.001    15.376643    13.316637    27.542885    5639.8237 
    9500        9.487    308.27171    12.671424   -445.10624   -432.43482   -9760.9823   -2051.1702   -2949.6735   -24282.103    15.376646    13.316639    27.542868    5639.8219 
   10000        9.987    339.04148    13.936207   -446.36575   -432.42954    -10974.36   -6323.6536   -2918.6124   -23680.813    15.376648    13.316641     27.54285      5639.82 
   10500       10.487     309.7123    12.730639   -445.15318   -432.42254   -10473.036   -3775.6963   -3086.5305   -24556.882     15.37665    13.316643    27.542833    5639.8182 
   11000       10.987    329.07723    13.526629   -445.94282   -432.41619   -11018.132   -4811.6141   -3828.9286   -24413.855    15.376653    13.316645    27.542815    5639.8164 
   11500       11.487    310.59075    12.766748   -445.17561   -432.40886   -10298.877   -3170.4433   -1831.6767   -25894.512    15.376655    13.316647    27.542798    5639.8145 
   12000       11.987    318.56047    13.094341   -445.49667   -432.40233   -10506.755   -2062.4159   -3434.6936   -26023.156    15.376658    13.316649     27.54278    5639.8127 
   12500       12.487    325.28831    13.370887    -445.7657   -432.39482   -9737.5383   -3020.0725   -3586.8051   -22605.737     15.37666    13.316651    27.542763    5639.8108 
   13000       12.987    311.60315    12.808362   -445.19532   -432.38696   -10684.766   -4686.7968   -2791.1184   -24576.383    15.376662    13.316653    27.542745     5639.809 
   13500       13.487    304.48111    12.515613   -444.89408   -432.37847   -10466.414   -2078.6323   -1235.8496    -28084.76    15.376665    13.316655    27.542728    5639.8072 
   14000       13.987     315.7632     12.97936   -445.34978   -432.37042   -10246.232    -2954.885   -2889.5801   -24894.232    15.376667    13.316657     27.54271    5639.8053 
   14500       14.487    318.58946    13.095532   -445.45697   -432.36144   -10927.124   -5660.3559   -1008.7925   -26112.222     15.37667    13.316659    27.542693    5639.8035 
   15000       14.987    331.21754    13.614606   -445.96699   -432.35239   -11917.008   -4279.4437   -4439.9857   -27031.594    15.376672    13.316661    27.542675    5639.8017 
   15500       15.487    330.77685    13.596492   -445.93986   -432.34336   -10002.875   -5436.4983   -1114.5234   -23457.604    15.376674    13.316663    27.542658    5639.7998 
   16000       15.987    308.87652    12.696285   -445.02932   -432.33303   -10252.448   -2277.0756   -3425.3337   -25054.934    15.376677    13.316666     27.54264     5639.798 
   16500       16.487    320.25429    13.163965   -445.48726    -432.3233   -11542.989   -5645.3473    -4989.141    -23994.48    15.376679    13.316668    27.542623    5639.7962 
   17000       16.987    314.62388    12.932528   -445.24576   -432.31323   -10093.061    -5420.017   -1059.2113   -23799.956    15.376682     13.31667    27.542605    5639.7943 
   17500       17.487    322.78012    13.267788   -445.57035   -432.30256    -10183.34   -4686.0136   -919.01783   -24944.988    15.376684    13.316672    27.542588    5639.7925 
   18000       17.987    326.11732    13.404963   -445.69676   -432.29179   -9867.6993    -4732.084    -1020.506   -23850.508    15.376686    13.316674     27.54257    5639.7907 
   18500       18.487    315.64339    12.974435   -445.25504   -432.28061   -10583.484   -3851.1621   -4110.2709   -23789.019    15.376689    13.316676    27.542553    5639.7888 
   19000       18.987    333.70766    13.716962   -445.98584   -432.26887   -10960.894   -5703.1469   -3876.6378   -23302.898    15.376691    13.316678    27.542535     5639.787 
   19500       19.487       310.92    12.780281   -445.03707   -432.25678   -10013.145   -3596.4866   -2910.5784   -23532.371    15.376694     13.31668    27.542518    5639.7852 
   20000       19.987    324.56043    13.340968   -445.58664   -432.24567    -10217.92   -2731.8893   -3172.8018   -24749.069    15.376696    13.316682      27.5425    5639.7833 
   20500       20.487    316.34279    13.003184   -445.23608    -432.2329   -11622.399      -3574.5   -4613.2291   -26679.468    15.376698    13.316684    27.542483    5639.7815 
   21000       20.987    328.18631    13.490009   -445.71033   -432.22032   -10052.822   -4148.8893   -3538.8292   -22470.749    15.376701    13.316686    27.542465    5639.7797 
   21500       21.487    323.73102    13.306875   -445.51394   -432.20706   -10551.721   -6448.1132    1314.0168   -26521.068    15.376703    13.316688    27.542448    5639.7778 
   22000       21.987    323.50309    13.297506   -445.49158   -432.19408    -9958.892   -4509.7606   -536.06506    -24830.85    15.376706     13.31669     27.54243     5639.776 
   22500       22.487    343.71265    14.128214   -446.30942   -432.18121    -10741.53   -4554.0688   -2018.7999   -25651.723    15.376708    13.316692    27.542413    5639.7742 
   23000       22.987    326.20674    13.408639   -445.57569   -432.16706   -10116.809   -2491.9782   -1703.7324   -26154.716     15.37671    13.316694    27.542395    5639.7723 
   23500       23.487    303.92092    12.492586   -444.64532   -432.15273   -9335.1612   -5487.5316   -1496.4551   -21021.497    15.376713    13.316696    27.542378    5639.7705 
   24000       23.987    313.49968    12.886319   -445.02488   -432.13856     -10007.7    -5557.323   -2597.0498   -21868.727    15.376715    13.316698     27.54236    5639.7686 
   24500       24.487     314.6682     12.93435   -445.05847   -432.12412   -10068.151   -5571.2286   -590.45579    -24042.77    15.376718      13.3167    27.542343    5639.7668 
   25000       24.987    327.62793    13.467056   -445.57662   -432.10956   -9156.2831   -2986.8186   -951.84517   -23530.185     15.37672    13.316702    27.542325     5639.765 
   25500       25.487    327.08083    13.444568   -445.53957   -432.09501   -10651.376   -6059.2791   -2246.4142   -23648.436    15.376722    13.316704    27.542308    5639.7631 
   26000       25.987    312.55181    12.847357   -444.92631   -432.07895   -9160.0493     -3461.51    1681.5201   -25700.158    15.376725    13.316707     27.54229    5639.7613 
   26500       26.487    299.28618    12.302076   -444.36526   -432.06318   -9789.8007   -4909.1181   -1072.7556   -23387.529    15.376727    13.316709    27.542273    5639.7595 
   27000       26.987    314.81758     12.94049   -444.98871   -432.04822   -11148.998   -5095.3854   -4486.1662   -23865.444     15.37673    13.316711    27.542255    5639.7576 
   27500       27.487    326.77244    13.431891    -445.4636    -432.0317    -10333.05   -4097.3079   -4017.5725   -22884.268    15.376732    13.316713    27.542238    5639.7558 
   28000       27.987    327.25619    13.451776   -445.46699   -432.01521   -9345.7516   -3890.4978    -2647.123   -21499.634    15.376734    13.316715     27.54222     5639.754 
   28500       28.487     316.8519    13.024111   -445.02272   -431.99861   -9615.1191   -3953.5544   -509.39669   -24382.406    15.376737    13.316717    27.542203    5639.7521 
   29000       28.987    323.17343    13.283955   -445.26571   -431.98175   -11079.489   -4619.5371    -2780.764   -25838.165    15.376739    13.316719    27.542185    5639.7503 
   29500       29.487    332.31192    13.659591    -445.6248   -431.96521   -10267.629   -4868.1886   -1296.3695    -24638.33    15.376742    13.316721    27.542168    5639.7485 
   30000       29.987    312.18922    12.832452   -444.78038   -431.94792   -9336.0916    -3384.707   -854.72462   -23768.843    15.376744    13.316723     27.54215    5639.7466 
   30500       30.487    311.70891    12.812709    -444.7432   -431.93049   -9413.8538   -4654.5229   -1962.3785    -21624.66    15.376746    13.316725    27.542133    5639.7448 
   31000       30.987    330.59177    13.588884   -445.50234   -431.91346   -10125.252   -4239.1806   -1458.8484   -24677.727    15.376749    13.316727    27.542115     5639.743 
   31500       31.487    314.53883    12.929032   -444.82452   -431.89548   -10357.413    -2738.474   -1562.3717   -26771.394    15.376751    13.316729    27.542098    5639.7411 
   32000       31.987    315.46268    12.967007   -444.84472   -431.87771   -10080.415   -3419.7058   -2376.9012   -24444.639    15.376754    13.316731     27.54208    5639.7393 
   32500       32.487    317.75067    13.061054   -444.92128   -431.86023   -10364.983   -4904.9382   -2638.5741   -23551.437    15.376756    13.316733    27.542063    5639.7375 
   33000       32.987    326.43013    13.417821   -445.25973    -431.8419   -9765.6927    -3213.775    -515.7692   -25567.534    15.376758    13.316735    27.542045    5639.7356 
   33500       33.487    322.67324    13.263395    -445.0869    -431.8235   -10038.361   -3681.8418   -996.06955   -25437.171    15.376761    13.316737    27.542028    5639.7338 
   34000       33.987    323.97116    13.316746   -445.12211   -431.80537   -10187.975   -5254.1736   -3657.5743   -21652.177    15.376763    13.316739     27.54201    5639.7319 
   34500       34.487    330.54445    13.586939   -445.37401   -431.78707   -9686.0751   -3526.6923   -1161.9207   -24369.612    15.376766    13.316741    27.541993    5639.7301 
   35000       34.987    325.33736    13.372903   -445.14076   -431.76785   -10516.448    -4439.729   -4677.6183   -22431.997    15.376768    13.316743    27.541975    5639.7283 
   35500       35.487    316.63856    13.015341   -444.76486   -431.74952   -9132.8614   -5244.1243     379.0515   -22533.511     15.37677    13.316745    27.541958    5639.7264 
   36000       35.987    312.71721    12.854155   -444.58462   -431.73046   -10481.749   -3698.2726      -2736.7   -25010.273    15.376773    13.316748     27.54194    5639.7246 
   36500       36.487    315.87232    12.983845   -444.69582   -431.71197   -10302.106   -3053.6911   -3058.5437   -24794.084    15.376775     13.31675    27.541923    5639.7228 
   37000       36.987    319.07192    13.115364   -444.80806    -431.6927   -10517.095   -5298.1627   -2681.3553   -23571.766    15.376778    13.316752    27.541905    5639.7209 
   37500       37.487    329.12894    13.528755   -445.20279   -431.67403   -10481.694   -4803.8545    -2321.584   -24319.643     15.37678    13.316754    27.541888    5639.7191 
   38000       37.987    339.78656    13.966833   -445.62167   -431.65484   -10846.072   -3403.2923   -3392.2138    -25742.71    15.376782    13.316756     27.54187    5639.7173 
   38500       38.487    307.08478    12.622636   -444.25824   -431.63561   -10171.578   -5952.4434   -2819.7228   -21742.568    15.376785    13.316758    27.541853    5639.7154 
   39000       38.987    330.33025    13.578135   -445.19485   -431.61672   -9918.9324   -4718.6162   -2711.6948   -22326.486    15.376787     13.31676    27.541835    5639.7136 
   39500       39.487    312.41891    12.841894   -444.43894   -431.59705   -9629.6088   -4435.2172   -1272.2807   -23181.329     15.37679    13.316762    27.541818    5639.7118 
   40000       39.987    345.49944     14.20166   -445.77951   -431.57785   -12271.542   -6885.2029   -1860.2664   -28069.157    15.376792    13.316764      27.5418    5639.7099 
   40500       40.487      333.188    13.695601   -445.25442   -431.55882   -9483.9793   -3306.7024   -2386.5093   -22758.726    15.376794    13.316766    27.541783    5639.7081 
   41000       40.987    339.13423     13.94002   -445.47999   -431.53997   -10642.423   -2760.0974   -3017.9869   -26149.186    15.376797    13.316768    27.541765    5639.7063 
   41500       41.487     338.8425    13.928028   -445.44907   -431.52104   -10101.552   -4237.1925   -2611.5309   -23455.932    15.376799     13.31677    27.541748    5639.7044 
   42000       41.987    306.39509    12.594286   -444.09542   -431.50114   -10832.194   -4644.1847   -1624.1971   -26228.199    15.376802    13.316772     27.54173    5639.7026 
   42500       42.487    341.26405    14.027565    -445.5104   -431.48283   -10698.941    -4322.773   -2193.2513     -25580.8    15.376804    13.316774    27.541713    5639.7008 
   43000       42.987    323.25217    13.287192   -444.75014   -431.46295   -10628.645   -3537.5007   -3130.9875   -25217.447    15.376806    13.316776    27.541695    5639.6989 
   43500       43.487    338.39789    13.909753   -445.35458   -431.44483   -10712.773   -4783.6843   -2715.8808   -24638.754    15.376809    13.316778    27.541678    5639.6971 
   44000       43.987    336.19711     13.81929   -445.24517   -431.42588   -11079.441   -4671.2518   -3141.5995   -25425.472    15.376811     13.31678     27.54166    5639.6952 
   44500       44.487    316.85911    13.024407   -444.43065   -431.40624   -9728.7159   -6578.5134   -3526.9565   -19080.678    15.376814    13.316782    27.541643    5639.6934 
   45000       44.987    332.25866    13.657401     -445.045    -431.3876   -9905.6265   -3753.3206   -1805.5955   -24157.963    15.376816    13.316784    27.541625    5639.6916 
   45500       45.487    333.61112    13.712994   -445.08133   -431.36834   -9580.3033    -1980.768   -2435.5159   -24324.626    15.376818    13.316786    27.541608    5639.6897 
   46000       45.987    331.27536    13.616983    -444.9668   -431.34982   -11487.818   -6614.9623    -3028.836   -24819.655    15.376821    13.316789     27.54159    5639.6879 
   46500       46.487    325.08838    13.362669   -444.69405   -431.33139   -9517.5483   -3245.4204   -767.36833   -24539.856    15.376823    13.316791    27.541573    5639.6861 
   47000       46.987    339.27077    13.945632   -445.25868   -431.31305   -11053.104   -6440.9403   -3156.6871   -23561.686    15.376826    13.316793    27.541555    5639.6842 
   47500       47.487    327.98129    13.481581   -444.77571   -431.29413   -10153.365   -3539.2456   -1994.4029   -24926.447    15.376828    13.316795    27.541538    5639.6824 
   48000       47.987      319.774    13.144223   -444.41976   -431.27554   -10523.095   -5278.6868   -2008.6466    -24281.95     15.37683    13.316797     27.54152    5639.6806 
   48500       48.487    326.93385    13.438526   -444.69594   -431.25742   -10060.358    -4473.271   -3793.4763   -21914.326    15.376833    13.316799    27.541503    5639.6787 
   49000       48.987    328.29155    13.494334   -444.73409   -431.23975   -10273.833   -6324.7844    -2857.488   -21639.225    15.376835    13.316801    27.541485    5639.6769 
   49500       49.487    324.44692    13.336302   -444.55735   -431.22105   -9356.7255   -4929.2929   -1443.8745   -21697.009    15.376838    13.316803    27.541468    5639.6751 
   50000       49.987    333.44017    13.705967   -444.90927   -431.20331   -9496.2438    -6356.509   -2882.5651   -19249.657     15.37684    13.316805     27.54145    5639.6732 
   50500       50.487    330.92357    13.602523   -444.78771   -431.18519   -9644.0843   -3413.8325   -3038.2758   -22480.145    15.376842    13.316807    27.541433    5639.6714 
   51000       50.987    321.12059    13.199574   -444.36701   -431.16744   -10099.811   -3482.6619   -3048.3738   -23768.398    15.376845    13.316809    27.541415    5639.6696 
   51500       51.487    322.94302    13.274485   -444.42419   -431.14971   -9235.6419   -2092.2038   -3731.9481   -21882.774    15.376847    13.316811    27.541398    5639.6677 
   52000       51.987     327.6179    13.466644   -444.59833   -431.13168   -8807.6092   -3805.6076   -2410.5868   -20206.633     15.37685    13.316813     27.54138    5639.6659 
   52500       52.487    319.84647    13.147202   -444.26125   -431.11404   -9815.4897   -2811.8559    -2903.819   -23730.794    15.376852    13.316815    27.541363     5639.664 
   53000       52.987    319.20423    13.120803    -444.2173   -431.09649   -9371.8987   -1649.8615   -4571.9534   -21893.881    15.376854    13.316817    27.541345    5639.6622 
   53500       53.487    321.91948    13.232412   -444.31159   -431.07918   -10017.236   -5802.0492    697.70974   -24947.369    15.376857    13.316819    27.541328    5639.6604 
   54000       53.987     327.9276    13.479374   -444.54144   -431.06206    -10645.47   -3018.2459   -2300.0986   -26618.066    15.376859    13.316821     27.54131    5639.6585 
   54500       54.487    344.50783      14.1609    -445.2061    -431.0452   -11141.049   -5476.5578   -2310.4074   -25636.182    15.376862    13.316823    27.541293    5639.6567 
   55000       54.987    327.61491    13.466521    -444.4943   -431.02778   -9816.6664   -3838.8839   -2070.9968   -23540.118    15.376864    13.316825    27.541275    5639.6549 
   55500       55.487     336.8436    13.845864   -444.85693   -431.01107   -11077.782    -4440.085   -2335.6461   -26457.615    15.376866    13.316827    27.541258     5639.653 
   56000       55.987    325.40295    13.375599   -444.36946   -430.99386   -9131.3712   -4856.9605    -1666.302   -20870.851    15.376869     13.31683     27.54124    5639.6512 
   56500       56.487    333.70003    13.716648   -444.69375    -430.9771   -10393.008   -3406.3272   -3013.3267   -24759.371    15.376871    13.316832    27.541223    5639.6494 
   57000       56.987    354.81801    14.584697   -445.54567   -430.96097   -10262.784   -4015.5471   -1767.6476   -25005.158    15.376874    13.316834    27.541205    5639.6475 
   57500       57.487    352.81486    14.502358   -445.44685    -430.9445   -10318.803   -3573.0849    40.039664   -27423.363    15.376876    13.316836    27.541188    5639.6457 
   58000       57.987     335.8601    13.805438   -444.73237   -430.92693   -9421.1997   -3849.4846   -837.78586   -23576.329    15.376878    13.316838     27.54117    5639.6439 
   58500       58.487    330.12721    13.569789   -444.48046   -430.91067   -10967.251   -4685.0974   -2199.5696   -26017.087    15.376881     13.31684    27.541153     5639.642 
   59000       58.987    343.76232    14.130256   -445.02444   -430.89418   -8691.4879    -651.1181   -1042.3132   -24381.032    15.376883    13.316842    27.541135    5639.6402 
   59500       59.487    347.78302    14.295526   -445.17351   -430.87799   -10487.468   -5031.7541   -691.21268   -25739.438    15.376886    13.316844    27.541118    5639.6384 
   60000       59.987    337.61913    13.877742   -444.73934    -430.8616   -10002.432   -5738.2576   -92.715387   -24176.322    15.376888    13.316846      27.5411    5639.6365 
   60500       60.487    339.92786    13.972641   -444.81804    -430.8454   -10028.705   -3451.6474   -4690.2416   -21944.225     15.37689    13.316848    27.541083    5639.6347 
   61000       60.987    374.06702    15.375923   -446.20553   -430.82961   -10969.387    -3964.775   -3181.6827   -25761.703    15.376893     13.31685    27.541065    5639.6329 
   61500       61.487    338.97672    13.933545   -444.74622   -430.81267    -9428.005   -1312.8134   -3754.5695   -23216.632    15.376895    13.316852    27.541048     5639.631 
   62000       61.987    351.26497    14.438651   -445.23543   -430.79678   -10361.717   -4783.8733    -714.2588   -25587.019    15.376898    13.316854     27.54103    5639.6292 
   62500       62.487    340.09991    13.979714   -444.76042    -430.7807    -9459.467   -3782.5962   -53.365024    -24542.44      15.3769    13.316856    27.541013    5639.6273 
   63000       62.987    327.07481     13.44432   -444.20904   -430.76472   -9323.5081    -4494.779   -9.6872367   -23466.058    15.376902    13.316858    27.540995    5639.6255 
   63500       63.487    339.81605    13.968046   -444.71701   -430.74897   -10300.102   -2372.1461   -3403.5321   -25124.627    15.376905     13.31686    27.540978    5639.6237 
   64000       63.987    333.14932    13.694012   -444.42683   -430.73281   -8523.5294   -2761.3573   -2706.0138   -20103.217    15.376907    13.316862     27.54096    5639.6218 
   64500       64.487    345.62304     14.20674   -444.92378   -430.71704    -10481.89   -6671.8719   -902.56647   -23871.231     15.37691    13.316864    27.540943      5639.62 
   65000       64.987    331.75496    13.636697   -444.33796   -430.70127   -9014.8287   -2674.9619   -41.654188    -24327.87    15.376912    13.316866    27.540925    5639.6182 
   65500       65.487    327.33479    13.455007   -444.14029   -430.68528   -8681.8281   -793.08289    785.47284   -26037.874    15.376914    13.316868    27.540908    5639.6163 
   66000       65.987    329.16389    13.530191    -444.1995    -430.6693    -9760.881   -2754.0847   -1323.4139   -25205.144    15.376917    13.316871     27.54089    5639.6145 
   66500       66.487    331.43211    13.623426   -444.27745   -430.65402   -8934.4465   -2106.0859   -2224.7188   -22472.535    15.376919    13.316873    27.540873    5639.6127 
   67000       66.987    336.23909    13.821016   -444.45903   -430.63802   -8623.6028   -1934.3723    1310.4335    -25246.87    15.376922    13.316875    27.540855    5639.6108 
   67500       67.487     343.3435    14.113041   -444.73529   -430.62225   -10581.845    -1708.517   -3694.6905   -26342.327    15.376924    13.316877    27.540838     5639.609 
   68000       67.987    334.31817    13.742057   -444.34833   -430.60628   -8289.2634   -3205.9861   -745.01108   -20916.793    15.376926    13.316879     27.54082    5639.6072 
   68500       68.487    347.21391    14.272133   -444.86297   -430.59084    -10384.64   -4009.8908   -1998.2817   -25145.747    15.376929    13.316881    27.540803    5639.6053 
   69000       68.987    331.40716    13.622401    -444.1969    -430.5745   -10000.234    -6972.149   -738.21382    -22290.34    15.376931    13.316883    27.540785    5639.6035 
   69500       69.487    350.52586    14.408269   -444.96733   -430.55907   -8393.8601   -3141.4877    267.60827   -22307.701    15.376934    13.316885    27.540768    5639.6017 
   70000       69.987    327.24894    13.451478   -443.99466   -430.54319    -8842.844   -2988.7821    87.670608   -23627.421    15.376936    13.316887     27.54075    5639.5998 
   70500       70.487    352.78287    14.501043   -445.02854   -430.52749   -9824.6696   -5024.5019   -1365.5694   -23083.938    15.376938    13.316889    27.540733     5639.598 
   71000       70.987    321.81956    13.228305   -443.73976   -430.51145   -7949.9028   -765.25535   -1292.7652   -21791.688    15.376941    13.316891    27.540715    5639.5961 
   71500       71.487    335.29653    13.782272   -444.27808   -430.49581   -9665.0324    -4403.701   -532.71741   -24058.679    15.376943    13.316893    27.540698    5639.5943 
   72000       71.987     339.6833    13.962589   -444.44293   -430.48034   -7954.3938   -2680.7321   -66.377545   -21116.072    15.376946    13.316895     27.54068    5639.5925 
   72500       72.487    325.96373     13.39865   -443.86229   -430.46364   -9334.6977   -3166.1708    613.47213   -25451.394    15.376948    13.316897    27.540663    5639.5906 
   73000       72.987    337.54152    13.874552    -444.3224   -430.44785   -9237.7733   -3345.5704   -2060.0863   -22307.663     15.37695    13.316899    27.540645    5639.5888 
   73500       73.487    341.32404    14.030031   -444.46228   -430.43225   -9299.6127    -5710.659    -1944.739    -20243.44    15.376953    13.316901    27.540628     5639.587 
   74000       73.987     329.1974    13.531569   -443.94796   -430.41639   -8455.2352   -6169.7057   -658.44747   -18537.553    15.376955    13.316903     27.54061    5639.5851 
   74500       74.487    332.94257    13.685513   -444.08642   -430.40091   -8706.1913   -1889.5034   -1441.8384   -22787.232    15.376958    13.316905    27.540593    5639.5833 
   75000       74.987    335.78459    13.802334   -444.18656   -430.38423   -8153.6801    -1563.235    1651.1398   -24548.945     15.37696    13.316907    27.540575    5639.5815 
   75500       75.487    335.35417    13.784641   -444.15357   -430.36893   -10030.228    -3607.748   -1596.8266   -24886.108    15.376962    13.316909    27.540558    5639.5796 
   76000       75.987    344.49587    14.160409   -444.51299   -430.35258    -8914.494   -2032.7638   -1779.9025   -22930.816    15.376965    13.316912     27.54054    5639.5778 
   76500       76.487    326.72367    13.429887   -443.76575   -430.33587   -8502.1632   -4273.4427    240.16702   -21473.214    15.376967    13.316914    27.540523     5639.576 
   77000       76.987    333.96817     13.72767   -444.04708   -430.31941   -9318.3311   -3060.5268    -1748.906    -23145.56     15.37697    13.316916    27.540505    5639.5741 
   77500       77.487    335.46009    13.788995    -444.0923    -430.3033   -8757.6833   -2373.0054   -3796.5348    -20103.51    15.376972    13.316918    27.540488    5639.5723 
   78000       77.987    330.56922    13.587957   -443.87498   -430.28702   -9967.5611   -4530.4502   -1641.3364   -23730.897    15.376974     13.31692     27.54047    5639.5705 
   78500       78.487    364.80551    14.995231   -445.26618   -430.27095   -10072.051   -4032.8961   -3253.4821   -22929.774    15.376977    13.316922    27.540453    5639.5686 
   79000       78.987    329.95671     13.56278   -443.81692   -430.25414   -8489.2848   -3488.8459   -1958.8694   -20020.139    15.376979    13.316924    27.540435    5639.5668 
   79500       79.487    327.34566    13.455454   -443.69238   -430.23693   -8093.5877   -3400.6024   -2182.2229   -18697.938    15.376982    13.316926    27.540418     5639.565 
   80000       79.987    349.45371    14.364199   -444.58508   -430.22089   -9698.4816   -5562.3677   -3738.3724   -19794.705    15.376984    13.316928      27.5404    5639.5631 
   80500       80.487    351.10008    14.431873   -444.63595   -430.20408   -10063.663    -4125.544    733.12508   -26798.569    15.376986     13.31693    27.540383    5639.5613 
   81000       80.987    346.11246    14.226858   -444.41409   -430.18723   -8479.7619   -4105.2114   -1990.2839    -19343.79    15.376989    13.316932    27.540365    5639.5594 
   81500       81.487    343.71659    14.128376   -444.29887    -430.1705   -9343.8048   -5530.8355   -582.11756   -21918.461    15.376991    13.316934    27.540348    5639.5576 
   82000       81.987    339.51754    13.955775   -444.10895   -430.15317    -8097.509   -1129.4706   -1588.7986   -21574.258    15.376994    13.316936     27.54033    5639.5558 
   82500       82.487    345.16934    14.188091   -444.32472   -430.13663    -8654.281   -2241.8514   -1666.1574   -22054.834    15.376996    13.316938    27.540313    5639.5539 
   83000       82.987    330.92206    13.602461   -443.72126    -430.1188    -9347.496   -3184.7104   -973.18207   -23884.595    15.376998     13.31694    27.540295    5639.5521 
   83500       83.487    340.74254    14.006129   -444.10821   -430.10208   -8474.9003   -1213.5687   -1119.2346   -23091.898    15.377001    13.316942    27.540278    5639.5503 
   84000       83.987    339.38788    13.950446   -444.03527   -430.08482   -9054.6999   -4443.0747    -412.0924   -22308.933    15.377003    13.316944     27.54026    5639.5484 
   84500       84.487    331.20429    13.614061    -443.6816   -430.06754   -8338.8041    -6318.479   -1326.1897   -17371.744    15.377006    13.316946    27.540243    5639.5466 
   85000       84.987    346.65563    14.249185   -444.29932   -430.05014     -7982.13    184.27378   -2081.2619   -22049.402    15.377008    13.316948    27.540225    5639.5448 
   85500       85.487    357.02316    14.675339   -444.70807   -430.03273   -9632.7196   -2582.9176   -1761.5197   -24553.721     15.37701     13.31695    27.540208    5639.5429 
   86000       85.987    346.80889    14.255485   -444.27049     -430.015   -9843.4451    -4352.772   -1740.1516   -23437.412    15.377013    13.316953     27.54019    5639.5411 
   86500       86.487     348.3575     14.31914   -444.31675   -429.99761   -9154.7982   -3769.0135   -495.46833   -23199.913    15.377015    13.316955    27.540173    5639.5393 
   87000       86.987    333.63671    13.714046   -443.69345   -429.97941   -8941.5459   -213.84154   -1694.9513   -24915.845    15.377018    13.316957    27.540155    5639.5374 
   87500       87.487    350.93034    14.424895   -444.38672   -429.96182   -9585.0541   -4793.3529   -3852.7034   -20109.106     15.37702    13.316959    27.540138    5639.5356 
   88000       87.987    352.05329    14.471054   -444.41491   -429.94386   -8221.2518   -1729.2949   -3043.4111   -19891.049    15.377022    13.316961     27.54012    5639.5338 
   88500       88.487    346.73209    14.252328    -444.1784   -429.92607   -9022.5662   -3492.9398   -3239.4959   -20335.263    15.377025    13.316963    27.540103    5639.5319 
   89000       88.987    347.82299    14.297169   -444.20501   -429.90784   -9269.2429    -3422.835   -2229.5046   -22155.389    15.377027    13.316965    27.540085    5639.5301 
   89500       89.487     354.5611    14.574137    -444.4639   -429.88976   -8423.0487   -3094.8814     2011.896   -24186.161     15.37703    13.316967    27.540068    5639.5282 
   90000       89.987    345.06532    14.183816   -444.05527   -429.87145    -10246.53   -1843.5261   -3844.7539   -25051.309    15.377032    13.316969     27.54005    5639.5264 
   90500       90.487    356.51745    14.654552   -444.50796    -429.8534    -8350.768    -2117.054   -1814.6672   -21120.583    15.377034    13.316971    27.540033    5639.5246 
   91000       90.987    347.98906    14.303995   -444.13851   -429.83452   -9514.1943   -4626.8924   -2396.0055   -21519.685    15.377037    13.316973    27.540015    5639.5227 
   91500       91.487    353.01337    14.510518   -444.32664   -429.81613   -9307.9114   -2508.9636   -4866.9254   -20547.845    15.377039    13.316975    27.539998    5639.5209 
   92000       91.987    348.71306    14.333755   -444.13096   -429.79721   -9829.4665   -4825.0536   -3556.2057    -21107.14    15.377042    13.316977     27.53998    5639.5191 
   92500       92.487    370.49974     15.22929   -445.00847   -429.77918   -10045.652   -4202.3474   -4782.0531   -21152.556    15.377044    13.316979    27.539963    5639.5172 
   93000       92.987    367.59612    15.109938   -444.86996   -429.76003    -8419.127   -3510.9756   -1496.5782   -20249.827    15.377046    13.316981    27.539945    5639.5154 
   93500       93.487    345.15257    14.187402   -443.92809   -429.74069   -10834.363   -4902.9754   -3484.4497   -24115.663    15.377049    13.316983    27.539928    5639.5136 
   94000       93.987    342.99477    14.098706   -443.82031    -429.7216   -9092.4558   -4905.7648   -1225.6473   -21145.955    15.377051    13.316985     27.53991    5639.5117 
   94500       94.487    343.17653    14.106177   -443.80938    -429.7032   -9767.4343   -4449.3933   -2459.5389   -22393.371    15.377054    13.316987    27.539893    5639.5099 
   95000       94.987    355.87656    14.628208   -444.31218   -429.68397   -8818.5696    -2149.826   -2919.9625    -21385.92    15.377056    13.316989    27.539875    5639.5081 
   95500       95.487    343.28398    14.110594   -443.77537   -429.66477   -8714.3148   -2764.5633   -2330.6828   -21047.698    15.377058    13.316991    27.539858    5639.5062 
   96000       95.987    356.07716    14.636454   -444.28191   -429.64545   -8306.0574   -3453.8619    810.90872   -22275.219    15.377061    13.316994     27.53984    5639.5044 
   96500       96.487    349.95523    14.384814   -444.01081   -429.62599   -8880.3569   -3386.6701   -3146.5823   -20107.818    15.377063    13.316996    27.539823    5639.5026 
   97000       96.987    338.10521    13.897722   -443.50427   -429.60654   -8944.4564   -3224.0598   -129.30484   -23480.005    15.377066    13.316998    27.539805    5639.5007 
   97500       97.487     331.6524    13.632481   -443.21927   -429.58679   -8391.8604   -2785.8424   -3334.7846   -19054.954    15.377068       13.317    27.539788    5639.4989 
   98000       97.987    363.02276    14.921951   -444.48971   -429.56776   -9248.8674   -4557.7636   -2277.4754   -20911.363     15.37707    13.317002     27.53977     5639.497 
   98500       98.487     363.2671    14.931995   -444.48033   -429.54833   -10797.672   -7985.5074   -3158.3417   -21249.167    15.377073    13.317004    27.539753    5639.4952 
   99000       98.987    341.44303    14.034922   -443.56277   -429.52785    -8868.264   -1639.8195   -2001.9754   -22962.997    15.377075    13.317006    27.539735    5639.4934 
   99500       99.487    334.14123    13.734784   -443.24284   -429.50806   -7979.4606   -1355.3868     83.56332   -22666.558    15.377078    13.317008    27.539718    5639.4915 
  100000       99.987    360.77716    14.829646   -444.31804   -429.48839   -9245.3846   -4793.2787   -3648.4439   -19294.431     15.37708     13.31701      27.5397    5639.4897 
  100500      100.487    356.93226    14.671603   -444.13949   -429.46789    -9412.883   -3845.4004   -4688.1151   -19705.133    15.377082    13.317012    27.539683    5639.4879 
  101000      100.987    337.59204    13.876628    -443.3245   -429.44787   -9010.8491   -3790.3984   -3299.0832   -19943.066    15.377085    13.317014    27.539665     5639.486 
  101500      101.487    350.85706    14.421884   -443.84968   -429.42779   -8764.1016   -4140.0033   -539.07991   -21613.221    15.377087    13.317016    27.539648    5639.4842 
  102000      101.987    346.75536    14.253284   -443.65993   -429.40665   -7353.8743   -3220.5668    2091.6499   -20932.706     15.37709    13.317018     27.53963    5639.4824 
  102500      102.487    360.50343    14.818395   -444.20555   -429.38716   -8562.2267   -2819.4386    -213.0298   -22654.212    15.377092     13.31702    27.539613    5639.4805 
  103000      102.987    368.98995    15.167231   -444.53363    -429.3664   -9081.6728   -5704.1568   -1050.2211    -20490.64    15.377094    13.317022    27.539595    5639.4787 
  103500      103.487    370.20407    15.217137    -444.5631   -429.34596   -8372.3434   -5410.3715   -1403.9502   -18302.708    15.377097    13.317024    27.539578    5639.4769 
  104000      103.987    360.06644    14.800432   -444.12496   -429.32453    -9772.708    -5087.582   -3659.2381   -20571.304    15.377099    13.317026     27.53956     5639.475 
  104500      104.487    366.22134    15.053428   -444.35734   -429.30391   -8911.7576    -4677.785   -1879.5311   -20177.957    15.377102    13.317028    27.539543    5639.4732 
  105000      104.987    382.40429    15.718624   -445.00214   -429.28352   -10218.685   -5209.6347   -2053.1412   -23393.278    15.377104     13.31703    27.539525    5639.4714 
  105500      105.487    343.62982    14.124809    -443.3868   -429.26199   -8574.2282   -2787.5912   -739.00251   -22196.091    15.377106    13.317032    27.539508    5639.4695 
  106000      105.987    370.12546    15.213906   -444.45484   -429.24093   -8601.4394   -3587.3722   -1121.2743   -21095.672    15.377109    13.317035     27.53949    5639.4677 
  106500      106.487    371.68319    15.277936   -444.49824   -429.22031   -8271.2877   -2821.2547   -248.65307   -21743.955    15.377111    13.317037    27.539473    5639.4658 
  107000      106.987    363.39132    14.937101   -444.13628   -429.19918   -10632.164   -3785.9283   -3442.3092   -24668.255    15.377114    13.317039    27.539455     5639.464 
  107500      107.487    359.73099    14.786644   -443.96418   -429.17754   -9015.0492   -4244.5547    430.76039   -23231.353    15.377116    13.317041    27.539438    5639.4622 
  108000      107.987    351.53945    14.449933   -443.60618   -429.15625   -9761.5221   -2690.0337   -1256.7429    -25337.79    15.377118    13.317043     27.53942    5639.4603 
  108500      108.487     353.6042    14.534804   -443.67046   -429.13565   -7725.5396   -3165.1362   -116.68809   -19894.794    15.377121    13.317045    27.539403    5639.4585 
  109000      108.987    347.74504    14.293965   -443.40734   -429.11338   -8282.4569   -2251.2525   -3951.6756   -18644.443    15.377123    13.317047    27.539385    5639.4567 
  109500      109.487    375.71253    15.443561   -444.53581   -429.09225   -8855.0639   -4696.6347   -3466.9092   -18401.648    15.377126    13.317049    27.539368    5639.4548 
  110000      109.987    369.20782    15.176186   -444.24635   -429.07017   -9174.4734   -3546.1706   -520.82436   -23456.425    15.377128    13.317051     27.53935     5639.453 
  110500      110.487    347.84116    14.297916   -443.34636   -429.04844   -8092.1313      -1761.9   -3493.7172   -19020.777     15.37713    13.317053    27.539333    5639.4512 
  111000      110.987    384.42991    15.801886   -444.82961   -429.02773   -9575.7002   -4282.9319   -3855.4424   -20588.726    15.377133    13.317055    27.539315    5639.4493 
  111500      111.487    350.19465    14.394655   -443.39974   -429.00509   -8162.9834   -2333.4539   -2872.5554   -19282.941    15.377135    13.317057    27.539298    5639.4475 
  112000      111.987    386.72121    15.896069   -444.88096   -428.98489   -8957.4219   -4304.3911    12.082967   -22579.958    15.377138    13.317059     27.53928    5639.4457 
  112500      112.487    356.79984     14.66616   -443.62833   -428.96217   -9015.1823   -4086.3021   -1546.1823   -21413.063     15.37714    13.317061    27.539263    5639.4438 
  113000      112.987    370.77737    15.240702   -444.18088   -428.94018   -9286.8318   -4421.0985   -451.09422   -22988.303    15.377142    13.317063    27.539245     5639.442 
  113500      113.487    363.25043     14.93131   -443.84962   -428.91831   -8411.8793   -5321.7708    730.54822   -20644.415    15.377145    13.317065    27.539228    5639.4402 
  114000      113.987    358.83492    14.749811    -443.6462   -428.89639   -9624.0659    -3704.351   -252.38243   -24915.464    15.377147    13.317067     27.53921    5639.4383 
  114500      114.487    340.02101    13.976471   -442.85055   -428.87408    -7963.672   -4077.6392   -769.86793   -19043.509     15.37715    13.317069    27.539193    5639.4365 
  115000      114.987     378.6128    15.562775   -444.41531   -428.85254   -8864.9614   -1888.6666   -4668.8629   -20037.355    15.377152    13.317071    27.539175    5639.4346 
  115500      115.487    364.01786    14.962855   -443.79292   -428.83006   -9432.5532   -3416.1296   -1351.9305   -23529.599    15.377154    13.317073    27.539158    5639.4328 
  116000      115.987    358.24075    14.725388   -443.53347   -428.80808   -8267.4033   -3382.9293    383.06989    -21802.35    15.377157    13.317076     27.53914     5639.431 
  116500      116.487    381.54648    15.683364   -444.46917    -428.7858   -8319.7894   -5255.9273   -1659.9797   -18043.461    15.377159    13.317078    27.539123    5639.4291 
  117000      116.987    357.27457    14.685673   -443.44822   -428.76255   -8967.3179   -1149.8093   -3351.0773   -22401.067    15.377162     13.31708    27.539105    5639.4273 
  117500      117.487    371.58242    15.273794   -444.01389    -428.7401   -7803.0132   -1115.5071   -227.27102   -22066.262    15.377164    13.317082    27.539088    5639.4255 
  118000      117.987    360.31899    14.810814   -443.52888   -428.71807   -8876.8476   -2417.8331     872.8762   -25085.586    15.377166    13.317084     27.53907    5639.4236 
  118500      118.487    368.89192    15.163201   -443.85912   -428.69592   -9606.6509   -3340.4078   -2626.0355    -22853.51    15.377169    13.317086    27.539053    5639.4218 
  119000      118.987    375.10619    15.418637   -444.09224    -428.6736   -9958.6949   -2502.9123   -2417.4015   -24955.771    15.377171    13.317088    27.539035      5639.42 
  119500      119.487     355.5805    14.616039   -443.26719   -428.65115   -8378.1013   -3832.8698    19.700426   -21321.134    15.377174     13.31709    27.539018    5639.4181 
  120000      119.987    360.61395    14.822938   -443.45099   -428.62806    -9526.863   -4434.1673   -1518.3746   -22628.047    15.377176    13.317092       27.539    5639.4163 
  120500      120.487    346.78814    14.254632   -442.85985   -428.60522   -7619.9085   -2233.1012    695.09154   -21321.716    15.377178    13.317094    27.538983    5639.4145 
  121000      120.987    362.19288    14.887839   -443.47075   -428.58291   -8655.7643   -2822.9322   -2631.2894   -20513.071    15.377181    13.317096    27.538965    5639.4126 
  121500      121.487    343.18382    14.106477    -442.6669   -428.56042   -7697.2221   -1361.6536   -2497.9764   -19232.036    15.377183    13.317098    27.538948    5639.4108 
  122000      121.987    358.58729    14.739632    -443.2775   -428.53787   -7678.4924    -3282.357   -1999.5762   -17753.544    15.377186      13.3171     27.53893     5639.409 
  122500      122.487    373.43715    15.350032   -443.86528   -428.51525   -8080.8976   -2769.9653    12.398667   -21485.126    15.377188    13.317102    27.538913    5639.4071 
  123000      122.987    381.89106    15.697528   -444.18998   -428.49245   -9240.6201   -5808.9537    524.97995   -22437.887     15.37719    13.317104    27.538895    5639.4053 
  123500      123.487    355.96285    14.631755   -443.10107   -428.46932   -7946.4933   -3930.4235    915.74227   -20824.799    15.377193    13.317106    27.538878    5639.4034 
  124000      123.987    362.04648    14.881821   -443.32803    -428.4462   -7745.1461   -3516.1223   -596.42193   -19122.894    15.377195    13.317108     27.53886    5639.4016 
  124500      124.487    380.31823    15.632877   -444.05688     -428.424    -7889.498    -3117.104   -488.83907   -20062.551    15.377198     13.31711    27.538843    5639.3998 
  125000      124.987     392.8374    16.147474   -444.54847   -428.40099   -7499.5937    -1793.878    1044.2226   -21749.126      15.3772    13.317112    27.538825    5639.3979 
  125500      125.487     347.1034     14.26759   -442.64445   -428.37686   -7789.2913   -3019.1613    1837.5983   -22186.311    15.377202    13.317114    27.538808    5639.3961 
  126000      125.987    383.82339    15.776955   -444.13174   -428.35478   -8459.6795   -4906.9783    515.27824   -20987.338    15.377205    13.317117     27.53879    5639.3943 
  126500      126.487    360.56395    14.820882   -443.15227   -428.33138    -8450.814   -2653.4125     1350.415   -24049.445    15.377207    13.317119    27.538773    5639.3924 
  127000      126.987    354.11991    14.556002   -442.86383   -428.30782   -8905.9434   -2275.6974   -1714.9541   -22727.179     15.37721    13.317121    27.538755    5639.3906 
  127500      127.487     365.7157    15.032644   -443.31766   -428.28502   -7708.9609   -1349.4295     1524.932   -23302.385    15.377212    13.317123    27.538738    5639.3888 
  128000      127.987    366.03023    15.045572   -443.30723   -428.26166   -8063.7814   -1469.8867    -2513.234   -20208.223    15.377214    13.317125     27.53872    5639.3869 
  128500      128.487    389.56516    16.012969   -444.25253   -428.23956    -9187.324   -3942.4072   -2393.9938   -21225.571    15.377217    13.317127    27.538703    5639.3851 
  129000      128.987    395.83009    16.270487   -444.48721   -428.21672   -10194.032   -5538.8667   -4776.4623   -20266.767    15.377219    13.317129    27.538685    5639.3833 
  129500      129.487     385.0221    15.826228   -444.01896   -428.19273   -8676.4763   -3257.1234   -566.04336   -22206.262    15.377222    13.317131    27.538668    5639.3814 
  130000      129.987    366.91766     15.08205   -443.25128   -428.16923   -7380.7854   -1414.4039   -885.08755   -19842.865    15.377224    13.317133     27.53865    5639.3796 
  130500      130.487    387.07446     15.91059   -444.05713   -428.14654    -8742.762   -4201.7959   -1581.4561   -20445.034    15.377226    13.317135    27.538633    5639.3778 
  131000      130.987    379.64804    15.605329   -443.72806   -428.12273   -9167.9417   -3686.3736   -1279.4938   -22537.958    15.377229    13.317137    27.538615    5639.3759 
  131500      131.487    365.89933    15.040192    -443.1394   -428.09921   -8052.3063   -2633.3131   -863.44739   -20660.158    15.377231    13.317139    27.538598    5639.3741 
  132000      131.987    395.15137    16.242589   -444.31863   -428.07604   -8653.9954   -4375.4378    537.77245   -22124.321    15.377234    13.317141     27.53858    5639.3722 
  132500      132.487    377.96922    15.536321   -443.58874   -428.05242   -9143.9923   -6221.1908   -1904.7588   -19306.027    15.377236    13.317143    27.538563    5639.3704 
  133000      132.987    374.45064    15.391691   -443.42079    -428.0291    -8275.404    -2047.933   -1328.6507   -21449.628    15.377238    13.317145    27.538545    5639.3686 
  133500      133.487    377.74986    15.527304   -443.53282   -428.00551   -8220.4688   -2552.6669   -828.60485   -21280.135    15.377241    13.317147    27.538528    5639.3667 
  134000      133.987    372.60075    15.315652   -443.29735    -427.9817   -7573.4722   -3351.0744    586.37971   -19955.722    15.377243    13.317149     27.53851    5639.3649 
  134500      134.487    359.45094    14.775132   -442.73336   -427.95823   -7010.2992   -1838.6158    -359.0632   -18833.219    15.377246    13.317151    27.538493    5639.3631 
  135000      134.987    381.20791    15.669447   -443.60389   -427.93444   -8341.7594   -4227.1832   -276.24846   -20521.847    15.377248    13.317153    27.538475    5639.3612 
  135500      135.487    357.64896    14.701063   -442.61126    -427.9102   -7720.3993   -1254.4721    -1406.005   -20500.721     15.37725    13.317155    27.538458    5639.3594 
  136000      135.987     375.7825    15.446437   -443.33347   -427.88704   -7819.0498    -3374.113   -541.22479   -19541.812    15.377253    13.317158     27.53844    5639.3576 
  136500      136.487    389.46379    16.008802   -443.87264   -427.86384   -9131.3519   -4070.6008   -1694.9889   -21628.466    15.377255     13.31716    27.538423    5639.3557 
  137000      136.987    372.58925    15.315179   -443.15531   -427.84013   -6668.8392   -1968.8728     30.44636   -18068.091    15.377258    13.317162    27.538405    5639.3539 
  137500      137.487    365.91309    15.040757   -442.85738   -427.81662   -8069.1113    -4290.008     1435.374     -21352.7     15.37726    13.317164    27.538388    5639.3521 
  138000      137.987    371.40367    15.266446   -443.05937   -427.79292   -8544.2605   -2433.5907   -1540.5175   -21658.673    15.377262    13.317166     27.53837    5639.3502 
  138500      138.487       371.91    15.287259    -443.0562   -427.76894    -7422.047    -62.06775   -1313.6102   -20890.463    15.377265    13.317168    27.538353    5639.3484 
  139000      138.987    374.92819     15.41132   -443.15672    -427.7454    -10108.88   -4296.4248   -1795.7823   -24234.434    15.377267     13.31717    27.538335    5639.3466 
  139500      139.487    369.21805    15.176607   -442.89783   -427.72123   -8201.0984   -2252.9323    514.86076   -22865.224     15.37727    13.317172    27.538318    5639.3447 
  140000      139.987    368.31374    15.139435   -442.83653    -427.6971   -9503.4078   -6975.5512   -1306.1125    -20228.56    15.377272    13.317174      27.5383    5639.3429 
  140500      140.487    385.93955    15.863939   -443.53741   -427.67347   -8245.2777   -2973.5311    1061.3123   -22823.614    15.377274    13.317176    27.538283     5639.341 
  141000      140.987    403.27259    16.576409   -444.22619   -427.64979   -9536.8213   -4812.5674   -2237.6499   -21560.247    15.377277    13.317178    27.538265    5639.3392 
  141500      141.487    378.26143    15.548333   -443.17338   -427.62505   -8137.1722    -3130.222    1421.0135   -22702.308    15.377279     13.31718    27.538248    5639.3374 
  142000      141.987    384.35458     15.79879   -443.40044   -427.60165   -9568.1798   -4371.1373    350.21021   -24683.612    15.377282    13.317182     27.53823    5639.3355 
  142500      142.487    388.09951    15.952724   -443.53054   -427.57782   -8091.5307   -5357.3907   -932.40426   -17984.797    15.377284    13.317184    27.538213    5639.3337 
  143000      142.987    395.32762    16.249834   -443.80351   -427.55368   -8726.5779   -4705.9467    1613.0496   -23086.837    15.377286    13.317186    27.538195    5639.3319 
  143500      143.487    355.62089    14.617699   -442.14671   -427.52901    -9139.303   -4290.9937   -251.76496    -22875.15    15.377289    13.317188    27.538178      5639.33 
  144000      143.987     388.7848    15.980893   -443.48654   -427.50565   -8425.5137   -3712.5767    304.54883   -21868.513    15.377291     13.31719     27.53816    5639.3282 
  144500      144.487    384.51963    15.805574   -443.28699   -427.48142   -8347.4939    -2022.708   -254.17142   -22765.602    15.377294    13.317192    27.538143    5639.3264 
  145000      144.987     364.3016    14.974517   -442.43217   -427.45765   -6842.7608   -631.66536    231.88709   -20128.504    15.377296    13.317194    27.538125    5639.3245 
  145500      145.487    381.06236    15.663464   -443.09689   -427.43343    -8226.298   -5694.2382    1163.7689   -20148.425    15.377298    13.317196    27.538108    5639.3227 
  146000      145.987    376.33701     15.46923   -442.87797   -427.40874   -7272.7076    -947.8513   -262.23286   -20608.039    15.377301    13.317199     27.53809    5639.3209 
  146500      146.487    386.30186    15.878832   -443.26385   -427.38502    -8410.865   -3658.7307   -491.49653   -21082.368    15.377303    13.317201    27.538073     5639.319 
  147000      146.987    357.47171    14.693777   -442.05401   -427.36023   -7919.8873   -3107.8941   -1492.9049   -19158.863    15.377306    13.317203    27.538055    5639.3172 
  147500      147.487    382.60436    15.726848   -443.06367   -427.33683   -7848.4104   -2409.5973    2385.2598   -23520.894    15.377308    13.317205    27.538038    5639.3153 
  148000      147.987    378.64247    15.563995   -442.87669   -427.31269   -9326.3713   -3710.8208   -2458.6189   -21809.674     15.37731    13.317207     27.53802    5639.3135 
  148500      148.487    383.17717    15.750393   -443.03906   -427.28866   -8502.8757   -2730.2404   -625.56445   -22152.822    15.377313    13.317209    27.538003    5639.3117 
  149000      148.987    403.89102     16.60183   -443.86586   -427.26403   -8553.0552   -1989.3247    -100.5644   -23569.277    15.377315    13.317211    27.537985    5639.3098 
  149500      149.487    375.01954    15.415075   -442.65414   -427.23906    -8058.922   -2122.3491   -767.55219   -21286.865    15.377318    13.317213    27.537968     5639.308 
  150000      149.987    379.60563    15.603586   -442.81881   -427.21523   -7858.8078   -2627.2812    516.51684   -21465.659     15.37732    13.317215     27.53795    5639.3062 
  150500      150.487    387.84468    15.942249   -443.13272   -427.19047    -6786.731   -4848.3678    2569.9082   -18081.733    15.377322    13.317217    27.537933    5639.3043 
  151000      150.987    369.73435    15.197829   -442.36333    -427.1655   -7754.6309   -4141.3221   -1479.5944   -17642.976    15.377325    13.317219    27.537915    5639.3025 
  151500      151.487    376.19555    15.463415   -442.60469   -427.14128   -6661.8123   -1881.2229     1390.925   -19495.139    15.377327    13.317221    27.537898    5639.3007 
  152000      151.987    392.60983     16.13812   -443.25527   -427.11715   -9322.9965   -836.81723   -4250.7041   -22881.468     15.37733    13.317223     27.53788    5639.2988 
  152500      152.487    382.06138    15.704528   -442.79715   -427.09262   -7804.3534   -2543.2916    865.32859   -21735.097    15.377332    13.317225    27.537863     5639.297 
  153000      152.987     381.8638    15.696407   -442.76436   -427.06796    -8041.953   -2529.2008   -3222.4196   -18374.239    15.377334    13.317227    27.537845    5639.2952 
  153500      153.487    375.92659     15.45236   -442.49634   -427.04398   -6756.3027    -2246.788   -782.42904   -17239.691    15.377337    13.317229    27.537828    5639.2933 
  154000      153.987    382.96536    15.741686   -442.76115   -427.01947   -8566.5843   -2783.7259   -2543.5982   -20372.429    15.377339    13.317231     27.53781    5639.2915 
  154500      154.487    368.19419    15.134521   -442.12877   -426.99425   -7727.1014   -3188.8691     1060.143   -21052.578    15.377342    13.317233    27.537793    5639.2897 
  155000      154.987    381.79496    15.693577   -442.66347   -426.96989   -8653.4683   -4660.0573   -153.35533   -21146.992    15.377344    13.317235    27.537775    5639.2878 
  155500      155.487    393.64655    16.180734   -443.12645   -426.94572   -7384.4333   -3640.0773   -1730.6021    -16782.62    15.377346    13.317237    27.537758     5639.286 
  156000      155.987    369.42864    15.185263   -442.10552   -426.92025   -7689.8051   -2890.3699   -1127.9366   -19051.109    15.377349     13.31724     27.53774    5639.2841 
  156500      156.487    388.65808    15.975684   -442.87193   -426.89625   -8854.7361   -3250.6529   -244.69941   -23068.856    15.377351    13.317242    27.537723    5639.2823 
  157000      156.987    405.57102    16.670886   -443.54309   -426.87221   -8275.4769   -2221.2721   -1382.2716   -21222.887    15.377354    13.317244    27.537705    5639.2805 
  157500      157.487    395.51931    16.257713   -443.10516   -426.84745     -7312.31   -3429.2698   -95.210736   -18412.449    15.377356    13.317246    27.537688    5639.2786 
  158000      157.987    371.93612    15.288332   -442.11039   -426.82206   -7189.0155   -1859.3624   -2029.2682   -17678.416    15.377358    13.317248     27.53767    5639.2768 
  158500      158.487    392.05469    16.115301   -442.91313   -426.79783   -7911.2562   -4072.9094    913.03053    -20573.89    15.377361     13.31725    27.537653     5639.275 
  159000      158.987    400.53038    16.463692   -443.23708   -426.77339   -7399.2903   -795.86458    100.48583   -21502.492    15.377363    13.317252    27.537635    5639.2731 
  159500      159.487    397.07497    16.321658   -443.06987   -426.74821   -7495.0299   -2432.3336   -1262.4583   -18790.298    15.377366    13.317254    27.537618    5639.2713 
  160000      159.987    396.75468    16.308492   -443.03205   -426.72356   -8130.6355   -1886.2463   -312.06246   -22193.598    15.377368    13.317256      27.5376    5639.2695 
  160500      160.487    398.02759    16.360815   -443.05931    -426.6985   -8490.5861   -5378.0194   -2927.0083    -17166.73     15.37737    13.317258    27.537583    5639.2676 
  161000      160.987     400.2064    16.450374   -443.12366   -426.67329   -6467.1891    -4790.866    1519.7799   -16130.481    15.377373     13.31726    27.537565    5639.2658 
  161500      161.487    403.72656     16.59507   -443.24344   -426.64837   -8872.2587    -3696.274   -4258.2522    -18662.25    15.377375    13.317262    27.537548     5639.264 
  162000      161.987     383.8349    15.777428   -442.40003    -426.6226   -7478.6166   -2651.2646   -1177.4839   -18607.101    15.377378    13.317264     27.53753    5639.2621 
  162500      162.487     373.4122    15.349006   -441.94687   -426.59786     -8198.41   -3837.8856   -891.41428    -19865.93     15.37738    13.317266    27.537513    5639.2603 
  163000      162.987    382.62959    15.727884    -442.3003   -426.57242   -6932.2445   -2964.1137    -31.91318   -17800.707    15.377382    13.317268    27.537495    5639.2584 
  163500      163.487    371.23063    15.259333   -441.80652   -426.54718   -6776.6671   -1837.6233    -627.5256   -17864.852    15.377385     13.31727    27.537478    5639.2566 
  164000      163.987    376.85569     15.49055   -442.01278   -426.52223   -6740.3011   -1620.7499    368.86932   -18969.023    15.377387    13.317272     27.53746    5639.2548 
  164500      164.487    392.91581    16.150697   -442.64859    -426.4979   -6955.2996   -1943.5651   -1411.6026   -17510.731     15.37739    13.317274    27.537443    5639.2529 
  165000      164.987    399.84208    16.435399   -442.90808   -426.47268    -7299.897   -4615.8548    120.89418    -17404.73    15.377392    13.317276    27.537425    5639.2511 
  165500      165.487    404.96233    16.645866   -443.09338   -426.44752   -6669.3861   -891.81273   -473.28406   -18643.061    15.377394    13.317278    27.537408    5639.2493 
  166000      165.987      396.302    16.289885    -442.7122   -426.42231   -6689.8097   -3740.7443    47.914601   -16376.599    15.377397    13.317281     27.53739    5639.2474 
  166500      166.487    407.89261    16.766314   -443.16359   -426.39728    -8374.306   -2752.4303    322.05927   -22692.547    15.377399    13.317283    27.537373    5639.2456 
  167000      166.987    398.47803     16.37933   -442.75141   -426.37208   -9598.0771   -2051.8842   -4105.8581   -22636.489    15.377402    13.317285    27.537355    5639.2438 
  167500      167.487    386.59421    15.890849   -442.23778   -426.34693   -7352.5323    -4753.574    490.52639   -17794.549    15.377404    13.317287    27.537338    5639.2419 
  168000      167.987    410.70391    16.881872    -443.2036   -426.32172   -8746.6817   -3075.6686   -1383.6889   -21780.688    15.377406    13.317289     27.53732    5639.2401 
  168500      168.487     374.2964    15.385351   -441.68124   -426.29589   -6722.4396   -2531.3573    2914.7375   -20550.699    15.377409    13.317291    27.537303    5639.2383 
  169000      168.987    391.33445    16.085695   -442.35593   -426.27024      -8421.9   -1725.6586    1801.6271   -25341.669    15.377411    13.317293    27.537285    5639.2364 
  169500      169.487    411.88063     16.93024    -443.1758   -426.24556   -8330.6973   -2514.7145   -1829.9109   -20647.466    15.377414    13.317295    27.537268    5639.2346 
  170000      169.987    393.80527    16.187258   -442.40745   -426.22019    -6952.295   -1425.5193    1529.3181   -20960.684    15.377416    13.317297     27.53725    5639.2328 
  170500      170.487    393.36251    16.169058   -442.36401   -426.19495   -8400.5549   -3042.6907    286.74372   -22445.718    15.377418    13.317299    27.537233    5639.2309 
  171000      170.987    388.06509    15.951309    -442.1203   -426.16899   -7216.3383    -2823.247     498.9979   -19324.766    15.377421    13.317301    27.537215    5639.2291 
  171500      171.487    396.39713    16.293796   -442.43819   -426.14439   -7921.8452   -3154.8923    218.03253   -20828.676    15.377423    13.317303    27.537198    5639.2272 
  172000      171.987    401.09006    16.486697   -442.60516   -426.11846   -8224.8596   -3248.7972    370.15014   -21795.932    15.377426    13.317305     27.53718    5639.2254 
  172500      172.487    403.49652    16.585614   -442.67876   -426.09314   -7076.2096   -2014.0882    -389.1817   -18825.359    15.377428    13.317307    27.537163    5639.2236 
  173000      172.987    387.54307    15.929852   -441.99709   -426.06724   -6932.6374   -551.06513    6.4940916   -20253.341     15.37743    13.317309    27.537145    5639.2217 
  173500      173.487    411.27024     16.90515   -442.94692   -426.04177   -7939.8613   -2489.7017   -2940.4031   -18389.479    15.377433    13.317311    27.537128    5639.2199 
  174000      173.987    400.86318    16.477371   -442.49367    -426.0163   -7542.8554   -3141.2884    -353.3615   -19133.916    15.377435    13.317313     27.53711    5639.2181 
  174500      174.487    393.68766    16.182424   -442.17233   -425.98991   -8415.9092   -2444.3699   -844.86808    -21958.49    15.377438    13.317315    27.537093    5639.2162 
  175000      174.987    401.62785    16.508803   -442.47328   -425.96448   -7243.3524    -257.0646   -307.15716   -21165.836     15.37744    13.317317    27.537075    5639.2144 
  175500      175.487    410.08547    16.856451   -442.79536   -425.93891   -8132.1152   -2572.7787    237.34477   -22060.912    15.377442    13.317319    27.537058    5639.2126 
  176000      175.987    427.01371    17.552282   -443.46525   -425.91297    -8823.444   -1430.0952   -1187.5082   -23852.729    15.377445    13.317322     27.53704    5639.2107 
  176500      176.487    402.91413    16.561675   -442.44897   -425.88729   -7677.9389   -5014.9628    2102.9989   -20121.853    15.377447    13.317324    27.537023    5639.2089 
  177000      176.987     378.5311    15.559417   -441.42074   -425.86133   -7147.0067   -300.60447     96.56211   -21236.978     15.37745    13.317326    27.537005    5639.2071 
  177500      177.487    408.07462    16.773796   -442.60999    -425.8362   -6608.2839    1661.3041    680.29942   -22166.455    15.377452    13.317328    27.536988    5639.2052 
  178000      177.987    405.77249    16.679167   -442.48987   -425.81071   -8593.0441   -1523.3527   -1489.5659   -22766.214    15.377454     13.31733     27.53697    5639.2034 
  178500      178.487    398.15004    16.365848   -442.15075    -425.7849   -8372.6422   -4231.4536     898.2506   -21784.724    15.377457    13.317332    27.536953    5639.2015 
  179000      178.987     403.2913    16.577178   -442.33697    -425.7598   -9168.3131   -4894.5832   -277.24565   -22333.111    15.377459    13.317334    27.536935    5639.1997 
  179500      179.487    413.32121    16.989455   -442.72314   -425.73368   -7436.2033   -1834.0015   -61.571052   -20413.037    15.377462    13.317336    27.536918    5639.1979 
  180000      179.987    392.78515    16.145326   -441.85263    -425.7073   -7033.3958   -2254.7636   -2383.3051   -16462.119    15.377464    13.317338      27.5369     5639.196 
  180500      180.487    408.34492    16.784906   -442.46689   -425.68199   -7515.8753   -3261.0347     -234.288   -19052.303    15.377466     13.31734    27.536883    5639.1942 
  181000      180.987    396.76854    16.309062   -441.96496    -425.6559   -7246.0082   -2299.1507   -2191.1482   -17247.726    15.377469    13.317342    27.536865    5639.1924 
  181500      181.487    416.89191    17.136228   -442.76628   -425.63005   -8533.4704   -2171.5276    -918.0588   -22510.825    15.377471    13.317344    27.536848    5639.1905 
  182000      181.987    411.77876    16.926053   -442.52959   -425.60354   -7212.9807   -1157.9139   -987.44235   -19493.586    15.377474    13.317346     27.53683    5639.1887 
  182500      182.487    414.94938    17.056381   -442.63384   -425.57746   -6968.4412   -1032.7648   -1623.5568   -18249.002    15.377476    13.317348    27.536813    5639.1869 
  183000      182.987    408.73398    16.800898   -442.35262   -425.55173   -7217.6008   -1221.7659    954.24882   -21385.285    15.377478     13.31735    27.536795     5639.185 
  183500      183.487    402.76733    16.555641   -442.08161   -425.52597   -7364.5323   -3364.7299   -776.51208   -17952.355    15.377481    13.317352    27.536778    5639.1832 
  184000      183.987    396.13191    16.282893   -441.78293   -425.50004   -6486.5389   -2363.6067    1742.4786   -18838.489    15.377483    13.317354     27.53676    5639.1814 
  184500      184.487    399.87017    16.436554   -441.91022   -425.47367   -6403.7041   -1295.8406    2204.0637   -20119.336    15.377486    13.317356    27.536743    5639.1795 
  185000      184.987    419.54538    17.245298    -442.6928    -425.4475   -7987.5287   -1847.7182   -2036.1683     -20078.7    15.377488    13.317358    27.536725    5639.1777 
  185500      185.487      416.672    17.127188   -442.54886   -425.42167   -6458.0816   -1937.2947   -347.32248   -17089.628     15.37749     13.31736    27.536708    5639.1758 
  186000      185.987    416.32238    17.112817   -442.50846   -425.39564   -7583.1983    -1955.995    1429.6102    -22223.21    15.377493    13.317363     27.53669     5639.174 
  186500      186.487    404.85289    16.641367   -442.01063   -425.36926   -7907.8654   -3535.3339   -703.24264    -19485.02    15.377495    13.317365    27.536673    5639.1722 
  187000      186.987    419.91764      17.2606   -442.60404   -425.34344   -6657.0701   -4212.7191     1867.422   -17625.913    15.377498    13.317367    27.536655    5639.1703 
  187500      187.487    413.77058    17.007926   -442.32519   -425.31727   -7778.8699   -1194.5341   -2520.3581   -19621.717      15.3775    13.317369    27.536638    5639.1685 
  188000      187.987    389.12245    15.994772   -441.28529   -425.29051   -7046.8442   -2638.3088    2849.4339   -21351.658    15.377502    13.317371     27.53662    5639.1667 
  188500      188.487    420.47589    17.283546   -442.54862   -425.26508   -8439.6051   -2726.6688    2479.1572   -25071.304    15.377505    13.317373    27.536603    5639.1648 
  189000      188.987    408.78685    16.803071   -442.04221   -425.23914   -7109.2133   -2896.5496   -555.35955   -17875.731    15.377507    13.317375    27.536585     5639.163 
  189500      189.487    406.45991    16.707423   -441.92035   -425.21293   -6722.4876   -901.55238   -59.825922   -19206.085     15.37751    13.317377    27.536568    5639.1612 
  190000      189.987    427.78862    17.584134   -442.77086   -425.18672   -6579.4917   -1190.7457     670.4897   -19218.219    15.377512    13.317379     27.53655    5639.1593 
  190500      190.487    410.05043     16.85501   -442.01457   -425.15956   -6376.8854   -1730.6464    206.26086   -17606.271    15.377514    13.317381    27.536533    5639.1575 
  191000      190.987    425.00978     17.46991   -442.60402   -425.13411   -6953.9634   -4374.1264    1827.3534   -18315.117    15.377517    13.317383    27.536515    5639.1557 
  191500      191.487    386.28762    15.878247   -440.98521   -425.10697   -5559.5058   -162.47182    698.23493   -17214.281    15.377519    13.317385    27.536498    5639.1538 
  192000      191.987    426.60272    17.535388   -442.61707   -425.08168   -6007.4036    721.35983    476.97505   -19220.546    15.377522    13.317387     27.53648     5639.152 
  192500      192.487    405.10912    16.651899   -441.70718   -425.05528   -7430.8552   -3493.8641    1509.7597   -20308.461    15.377524    13.317389    27.536463    5639.1501 
  193000      192.987    421.01118    17.305549   -442.33406   -425.02851   -6536.8795   -2828.4421    1975.4268   -18757.623    15.377526    13.317391    27.536445    5639.1483 
  193500      193.487    389.28535    16.001468   -441.00286   -425.00139   -6676.2867   -468.17257      1797.28   -21357.968    15.377529    13.317393    27.536428    5639.1465 
  194000      193.987     390.7085    16.059966   -441.03493   -424.97497   -5478.3348   -652.99247     5391.656   -21173.668    15.377531    13.317395     27.53641    5639.1446 
  194500      194.487    388.89711    15.985509   -440.93428   -424.94877   -6567.3034    -40.92425    1419.5137   -21080.499    15.377534    13.317397    27.536393    5639.1428 
  195000      194.987    409.12157     16.81683   -441.73891   -424.92208   -6836.9418    537.01355    742.62632   -21790.465    15.377536    13.317399    27.536375     5639.141 
  195500      195.487    424.83451    17.462706    -442.3595    -424.8968    -7807.841   -4343.0958     1070.498   -20150.925    15.377538    13.317401    27.536358    5639.1391 
  196000      195.987    422.87079    17.381988   -442.25222   -424.87023   -7114.3298   -2984.1872     984.6953   -19343.498    15.377541    13.317404     27.53634    5639.1373 
  196500      196.487    425.44367    17.487746   -442.33132   -424.84358   -8129.1452   -3749.0911    1206.4334   -21844.778    15.377543    13.317406    27.536323    5639.1355 
  197000      196.987    439.24822    18.055178   -442.87254   -424.81736   -7736.5742   -2412.9335    1855.1366   -22651.926    15.377546    13.317408    27.536305    5639.1336 
  197500      197.487    405.86219    16.682854   -441.47396    -424.7911   -7832.2372   -1924.4994    3365.2765   -24937.489    15.377548     13.31741    27.536288    5639.1318 
  198000      197.987      404.098    16.610338   -441.37514    -424.7648   -6750.1142    236.57984    1550.5934   -22037.516     15.37755    13.317412     27.53627      5639.13 
  198500      198.487     402.6299    16.549992   -441.28803   -424.73804   -6371.1448   -1847.6019    3493.6152   -20759.448    15.377553    13.317414    27.536253    5639.1281 
  199000      198.987    411.31379    16.906941   -441.61852   -424.71158    -7643.872   -1072.6619    100.64056   -21959.595    15.377555    13.317416    27.536235    5639.1263 
  199500      199.487    403.30453    16.577722   -441.26239   -424.68467   -5769.9035   -510.35233   -238.19852    -16561.16    15.377558    13.317418    27.536218    5639.1245 
  200000      199.987    420.44368    17.282222   -441.93988   -424.65766    -6801.392    893.50008   -720.81539   -20576.861     15.37756     13.31742      27.5362    5639.1226 
  200500      200.487    428.03221    17.594147   -442.22428   -424.63013   -6388.4462    735.79515    549.12477   -20450.258    15.377562    13.317422    27.536183    5639.1208 
  201000      200.987    401.34767    16.497286   -441.10055   -424.60326   -7366.9073   -2164.3758    2926.5586   -22862.905    15.377565    13.317424    27.536165    5639.1189 
  201500      201.487    423.62927    17.413165    -441.9895   -424.57633   -7435.9161   -3291.3897     1129.953   -20146.312    15.377567    13.317426    27.536148    5639.1171 
  202000      201.987    439.24187    18.054917   -442.60452   -424.54961   -6561.0552    142.06835   -2514.9779   -17310.256     15.37757    13.317428     27.53613    5639.1153 
  202500      202.487    420.84135    17.298568   -441.82094   -424.52237   -7120.1642    -280.0537   -1818.8457   -19261.593    15.377572     13.31743    27.536113    5639.1134 
  203000      202.987    397.25238     16.32895   -440.82351   -424.49456     -6524.53   -4511.3166   -1196.6901   -13865.583    15.377574    13.317432    27.536095    5639.1116 
  203500      203.487    438.07874    18.007107   -442.47612   -424.46901   -7003.4001   -1941.2806    1508.8042   -20577.724    15.377577    13.317434    27.536078    5639.1098 
  204000      203.987    430.86148    17.710443    -442.1527   -424.44225   -6280.6518   -1590.4633    1479.3561   -18730.848    15.377579    13.317436     27.53606    5639.1079 
  204500      204.487    403.00498    16.565409   -440.97993   -424.41452   -6943.9617   -1186.4375    52.356839   -19697.804    15.377582    13.317438    27.536043    5639.1061 
  205000      204.987    420.71921    17.293548   -441.68092   -424.38737   -5849.9753   -961.32789   -1240.6357   -15347.962    15.377584     13.31744    27.536025    5639.1043 
  205500      205.487    450.72667    18.526996   -442.88853   -424.36153   -7314.0145   -1044.9831   -2696.0241   -18201.036    15.377586    13.317442    27.536008    5639.1024 
  206000      205.987    419.90425    17.260049   -441.59381   -424.33376   -4896.4774   -771.15001      2244.17   -16162.452    15.377589    13.317445     27.53599    5639.1006 
  206500      206.487    423.55726    17.410205   -441.71731   -424.30711   -7466.2092   -1952.3913   -532.01975   -19914.217    15.377591    13.317447    27.535973    5639.0988 
  207000      206.987    439.07415    18.048023   -442.32818   -424.28016   -6936.0264   -2004.4332   -1252.1294   -17551.517    15.377594    13.317449    27.535955    5639.0969 
  207500      207.487    404.40793    16.623077   -440.87555   -424.25247   -7962.7515    -2832.937    52.466622   -21107.784    15.377596    13.317451    27.535938    5639.0951 
  208000      207.987    418.66739    17.209208   -441.43523   -424.22602   -6279.4516   -1498.0734    -923.5242   -16416.757    15.377598    13.317453     27.53592    5639.0932 
  208500      208.487    425.15355     17.47582   -441.67497   -424.19915   -5660.4331   -1647.8604   -736.15934    -14597.28    15.377601    13.317455    27.535903    5639.0914 
  209000      208.987    423.50872     17.40821   -441.58012   -424.17191   -6135.4604    242.30303   -321.66715   -18327.017    15.377603    13.317457    27.535885    5639.0896 
  209500      209.487    421.79989    17.337969   -441.48255   -424.14458   -6754.8398   -2467.3749    3176.5757    -20973.72    15.377606    13.317459    27.535868    5639.0877 
  210000      209.987    418.93012    17.220008    -441.3377   -424.11769   -5987.1178    376.25278    82.074945   -18419.681    15.377608    13.317461     27.53585    5639.0859 
  210500      210.487     418.7034    17.210688   -441.30137   -424.09068   -6390.5673   -1097.7665    1542.5649     -19616.5     15.37761    13.317463    27.535833    5639.0841 
  211000      210.987    417.77597    17.172567    -441.2357   -424.06314   -6560.3215   -3444.5691    3125.4466   -19361.842    15.377613    13.317465    27.535815    5639.0822 
  211500      211.487    430.52349     17.69655   -441.73263   -424.03608   -6162.1462   -1586.4253    270.81978   -17170.833    15.377615    13.317467    27.535798    5639.0804 
  212000      211.987    437.94191    18.001482    -442.0105   -424.00902      -6928.9    2374.5076   -2973.9757   -20187.232    15.377618    13.317469     27.53578    5639.0786 
[...]
  948500      948.487    590.84677    24.286595   -437.18911   -412.90252   -1147.2772     7359.317    3039.1438   -13840.292    15.381153    13.320489    27.510003    5636.3725 
  949000      948.987    602.48848    24.765124    -437.6642   -412.89907   -1223.2322     9015.729   -4.3164513   -12681.109    15.381155    13.320491    27.509985    5636.3706 
  949500      949.487    562.61641    23.126193   -436.02019   -412.89399     -721.973    5208.7713    5203.7892    -12578.48    15.381158    13.320493    27.509968    5636.3688 
  950000      949.987    524.56608    21.562145   -434.45054   -412.88839    796.27414    3979.1305     2326.408   -3916.7161     15.38116    13.320495     27.50995    5636.3669 
  950500      950.487    576.59722    23.700871   -436.58544   -412.88457   -825.08571    9986.5223    1908.2822   -14370.062    15.381162    13.320497    27.509933    5636.3651 
  951000      950.987    534.15793    21.956416   -434.83674   -412.88033   -64.525567    10788.818    3735.1197   -14717.515    15.381165    13.320499    27.509915    5636.3633 
  951500      951.487    574.49906    23.614626   -436.49084   -412.87621   -2017.8048    9498.3958   -1848.0425   -13703.768    15.381167    13.320501    27.509898    5636.3614 
  952000      951.987    538.68814    22.142629   -435.01342   -412.87079    849.57349     7277.431    2540.4385    -7269.149     15.38117    13.320503     27.50988    5636.3596 
  952500      952.487     577.5225    23.738904    -436.6059     -412.867   -253.45146    7944.3616    2429.4812   -11134.197    15.381172    13.320505    27.509863    5636.3577 
  953000      952.987    574.89439    23.630876    -436.4939   -412.86302   -2728.7162    5280.5709    844.53309   -14311.253    15.381174    13.320507    27.509845    5636.3559 
  953500      953.487    552.59464    22.714252   -435.57226   -412.85801   -1307.9529     6705.827    3385.4746    -14015.16    15.381177    13.320509    27.509828    5636.3541 
  954000      953.987    573.24541    23.563096   -436.41631   -412.85322   -966.04336      7775.76    351.88329   -11025.773    15.381179    13.320511     27.50981    5636.3522 
  954500      954.487    559.34918    22.991895   -435.84059   -412.84869   -1812.7865    5810.5452   -1657.1536    -9591.751    15.381182    13.320513    27.509793    5636.3504 
  955000      954.987    557.07026     22.89822   -435.73954   -412.84132   -1291.3732    9829.2211    1130.3324   -14833.673    15.381184    13.320515    27.509775    5636.3485 
  955500      955.487    571.64383    23.497263   -436.33416    -412.8369   -1574.3784    8348.4057   -733.99671   -12337.544    15.381186    13.320517    27.509758    5636.3467 
  956000      955.987    553.97771    22.771102   -435.60245   -412.83135    85.798953     8002.434    1888.0218    -9633.059    15.381189     13.32052     27.50974    5636.3449 
  956500      956.487    574.33569    23.607911   -436.43363   -412.82572   -2238.5417    6922.4104    1049.0223   -14687.058    15.381191    13.320522    27.509723     5636.343 
  957000      956.987    569.02711    23.389704   -436.21085   -412.82114   -3050.4305    3964.0645    3238.6834   -16354.039    15.381194    13.320524    27.509705    5636.3412 
  957500      957.487    566.85179    23.300288     -436.116   -412.81571   -1242.7542     6292.794    912.94327       -10934    15.381196    13.320526    27.509688    5636.3394 
  958000      957.987    558.25521    22.946927   -435.75776   -412.81083   -899.75997    7380.0341   -1199.2332   -8880.0809    15.381198    13.320528     27.50967    5636.3375 
  958500      958.487    547.03153    22.485581   -435.29097   -412.80539   -1813.5035    8086.9648    2142.4364   -15669.912    15.381201     13.32053    27.509653    5636.3357 
  959000      958.987    576.79052    23.708816    -436.5079   -412.79909   -1047.4471    7906.2081   -868.13327   -10180.416    15.381203    13.320532    27.509635    5636.3338 
  959500      959.487    560.90988    23.056047   -435.84969   -412.79364    -2366.961    9058.2313    1674.9566   -17834.071    15.381206    13.320534    27.509618     5636.332 
  960000      959.987    590.24659    24.261924   -437.05039   -412.78846   -1489.2984    9779.4975   -623.48995   -13623.903    15.381208    13.320536      27.5096    5636.3302 
  960500      960.487    593.32394    24.388418   -437.17321   -412.78479   -3583.9168    5983.0639   -828.06729   -15906.747     15.38121    13.320538    27.509583    5636.3283 
  961000      960.987    563.96733    23.181723   -435.95956   -412.77783   -681.72088    4211.6878    5970.6333   -12227.484    15.381213     13.32054    27.509565    5636.3265 
  961500      961.487    590.17083     24.25881   -437.03116   -412.77235   -1753.3536    5966.2491    4.5417828   -11230.852    15.381215    13.320542    27.509548    5636.3246 
  962000      961.987    577.67048    23.744987   -436.51192   -412.76693   -612.29047    5619.5708    3054.3532   -10510.795    15.381218    13.320544     27.50953    5636.3228 
  962500      962.487    570.88373     23.46602   -436.22629   -412.76027   -1986.4924    5498.5619   -2122.0108   -9336.0283     15.38122    13.320546    27.509513     5636.321 
  963000      962.987    588.30519    24.182124   -436.93812     -412.756   -1943.5143    6385.7933    1868.9469   -14085.283    15.381222    13.320548    27.509495    5636.3191 
  963500      963.487    549.86082    22.601878   -435.34991   -412.74803   -372.02205    5747.7459   -582.22196   -6281.5901    15.381225     13.32055    27.509478    5636.3173 
  964000      963.987    617.19374     25.36958   -438.11303   -412.74345   -2577.6556    5335.5302     1901.573    -14970.07    15.381227    13.320552     27.50946    5636.3155 
  964500      964.487    592.68604    24.362197   -437.09887   -412.73667   -1895.6646    8019.6168    3092.5382   -16799.149     15.38123    13.320554    27.509443    5636.3136 
  965000      964.987    566.65879    23.292354   -436.02298   -412.73063   -2067.8606    5483.0336   -1215.9566   -10470.659    15.381232    13.320556    27.509425    5636.3118 
  965500      965.487    587.30148    24.140866   -436.86505   -412.72419   -549.01164    6213.4344    2016.7549   -9877.2242    15.381234    13.320558    27.509408    5636.3099 
  966000      965.987    570.86243    23.465144   -436.18123   -412.71608   -803.50911    6363.4269    3503.5642   -12277.518    15.381237    13.320561     27.50939    5636.3081 
  966500      966.487    593.39636    24.391395   -437.10191   -412.71051   -2301.9551      7139.79    -1076.716   -12968.939    15.381239    13.320563    27.509373    5636.3063 
  967000      966.987    568.39703    23.363804   -436.06746   -412.70365     -225.331    12018.868    1964.7065   -14659.568    15.381242    13.320565    27.509355    5636.3044 
  967500      967.487    560.43029    23.036333   -435.73468   -412.69835   -3111.7478    4287.4164   -464.63034   -13158.029    15.381244    13.320567    27.509338    5636.3026 
  968000      967.987    598.52067    24.602028   -437.29435   -412.69232    -1270.967    6928.4598    1936.6248   -12677.985    15.381246    13.320569     27.50932    5636.3007 
  968500      968.487    574.71586    23.623538   -436.30832   -412.68479   -2346.9915    6146.3489    774.67154   -13961.995    15.381249    13.320571    27.509303    5636.2989 
  969000      968.987    584.23521    24.014828   -436.69221   -412.67738   -1007.7958    7838.7969    394.47132   -11256.656    15.381251    13.320573    27.509285    5636.2971 
  969500      969.487    599.76587    24.653212   -437.32444   -412.67122   -3072.8765    5774.8628   -2487.2901   -12506.202    15.381254    13.320575    27.509268    5636.2952 
  970000      969.987    565.32963    23.237719   -435.90176   -412.66404   -241.18313    8888.8587    1523.3007   -11135.709    15.381256    13.320577     27.50925    5636.2934 
  970500      970.487    567.55529    23.329205   -435.98702   -412.65782   -2116.4968    8797.3495    1665.2531   -16812.093    15.381258    13.320579    27.509233    5636.2916 
  971000      970.987    589.63918    24.236957   -436.88799   -412.65103   -1422.3174    6096.5946    3105.8103   -13469.357    15.381261    13.320581    27.509215    5636.2897 
  971500      971.487    583.54823     23.98659   -436.63097   -412.64438   -3349.3581    4552.8236   -3886.8041   -10714.094    15.381263    13.320583    27.509198    5636.2879 
  972000      971.987      568.255    23.357966   -435.99456    -412.6366    -801.5748    8264.9096    2439.2208   -13108.855    15.381266    13.320585     27.50918     5636.286 
  972500      972.487    583.80319     23.99707   -436.62718   -412.63011   -1869.4392    9229.6211   -1002.0398   -13835.899    15.381268    13.320587    27.509163    5636.2842 
  973000      972.987    588.33338    24.183282    -436.8057   -412.62242   -1747.9641    6991.1701   -3269.1703    -8965.892     15.38127    13.320589    27.509145    5636.2824 
  973500      973.487    571.43754    23.488784    -436.1039   -412.61512   -763.87779    6406.3842    1160.6645   -9858.6821    15.381273    13.320591    27.509128    5636.2805 
  974000      973.987    560.62493    23.044334   -435.65345   -412.60911    -2072.342    4082.8193   -3391.1999   -6908.6456    15.381275    13.320593     27.50911    5636.2787 
  974500      974.487    599.05653    24.624055   -437.22763   -412.60357   -1109.8896    7831.5055    557.79904   -11718.973    15.381278    13.320595    27.509093    5636.2768 
  975000      974.987    586.35196    24.101837    -436.6969   -412.59506   -2015.6343    6134.6131    1507.6542    -13689.17     15.38128    13.320597    27.509075     5636.275 
  975500      975.487    554.90665    22.809286   -435.39604   -412.58675   -2336.6062    4496.6085    6138.9986   -17645.426    15.381282    13.320599    27.509058    5636.2732 
  976000      975.987    571.73022    23.500814   -436.07948   -412.57867   -1440.2105    8628.1285    1049.9475   -13998.708    15.381285    13.320602     27.50904    5636.2713 
  976500      976.487     558.8032    22.969453   -435.54147   -412.57202    -1861.057     1969.061   -199.64085   -7352.5912    15.381287    13.320604    27.509023    5636.2695 
  977000      976.987      566.395    23.281511   -435.84589   -412.56438   -1524.0882    8621.2441   -3348.7456   -9844.7631     15.38129    13.320606    27.509005    5636.2676 
  977500      977.487    584.82775    24.039184   -436.59578   -412.55659    -1288.709    9226.3219   -1714.7639   -11377.685    15.381292    13.320608    27.508988    5636.2658 
  978000      977.987    562.25393    23.111294   -435.65827   -412.54698   -1581.7944    7992.5114   -1324.8602   -11413.034    15.381294     13.32061     27.50897     5636.264 
  978500      978.487    581.96751    23.921615   -436.46177   -412.54016   -2006.7615    8784.6101    2597.0905   -17401.985    15.381297    13.320612    27.508953    5636.2621 
  979000      978.987     596.1665    24.505261   -437.03771   -412.53244   -2007.5467    6491.6145     1576.547   -14090.802    15.381299    13.320614    27.508935    5636.2603 
  979500      979.487    595.07563    24.460421   -436.98503   -412.52461   -2813.2376    2994.5335    993.33174   -12427.578    15.381302    13.320616    27.508918    5636.2585 
  980000      979.987    592.67034    24.361552   -436.87818   -412.51663   -1707.6831    7707.6143    62.028473   -12892.692    15.381304    13.320618      27.5089    5636.2566 
  980500      980.487    562.38251    23.116579   -435.62593   -412.50935   -1895.6747    7984.2536    1950.6685   -15621.946    15.381306     13.32062    27.508883    5636.2548 
  981000      980.987    576.55323    23.699063   -436.20053   -412.50146   -51.328819    9073.5295    2126.3167   -11353.833    15.381309    13.320622    27.508865    5636.2529 
  981500      981.487     577.1747    23.724608   -436.21702   -412.49241   -1446.6617    5909.0281    4421.2439   -14670.257    15.381311    13.320624    27.508848    5636.2511 
  982000      981.987    575.63021    23.661122   -436.14486   -412.48373   -2321.0801    5144.9034     2558.558   -14666.702    15.381314    13.320626     27.50883    5636.2493 
  982500      982.487    570.51825    23.450996   -435.92714   -412.47615    11.061749    8966.9545    2528.1627   -11461.932    15.381316    13.320628    27.508813    5636.2474 
  983000      982.987    600.27725    24.674232   -437.14239   -412.46816   -1078.9671    7413.0641    1937.8736   -12587.839    15.381318     13.32063    27.508795    5636.2456 
  983500      983.487    588.54336    24.191914   -436.65215   -412.46024    -1842.165    3064.6358    2020.5641   -10611.695    15.381321    13.320632    27.508778    5636.2437 
  984000      983.987    596.12782    24.503671   -436.95513   -412.45146   -2689.0144    3449.2118    5004.9711   -16521.226    15.381323    13.320634     27.50876    5636.2419 
  984500      984.487    602.25103    24.755364    -437.1991   -412.44374   -1514.1205    6609.5025     4856.873   -16008.737    15.381326    13.320636    27.508743    5636.2401 
  985000      984.987    591.35178    24.307353   -436.74235   -412.43499   -1934.5977    4449.7505    1244.2502   -11497.794    15.381328    13.320638    27.508725    5636.2382 
  985500      985.487    589.89489    24.247468   -436.67486    -412.4274   -674.45245    5273.5751     2792.936   -10089.868     15.38133     13.32064    27.508708    5636.2364 
  986000      985.987    603.21674    24.795059   -437.21358   -412.41852   -1124.3467    6818.7517    6295.2038   -16486.996    15.381333    13.320643     27.50869    5636.2346 
  986500      986.487    574.17882    23.601463   -436.01018   -412.40872   -1546.7389    6691.8643    2155.1138   -13487.195    15.381335    13.320645    27.508673    5636.2327 
  987000      986.987    611.53563    25.137005   -437.53815   -412.40115   -1989.6698    4833.4742    1884.8175   -12687.301    15.381338    13.320647    27.508655    5636.2309 
  987500      987.487    550.93541    22.646049   -435.03718   -412.39113   -738.51487    2076.6207    6856.6663   -11148.832     15.38134    13.320649    27.508638     5636.229 
  988000      987.987    601.68089    24.731928   -437.11741   -412.38548   -1140.3832    4363.1549    5421.2877   -13205.592    15.381342    13.320651     27.50862    5636.2272 
  988500      988.487    607.06601    24.953282   -437.32921   -412.37593   -2395.5165    5263.2868     4867.898   -17317.734    15.381345    13.320653    27.508603    5636.2254 
  989000      988.987    594.71481    24.445589   -436.81107   -412.36548   -440.32182    6785.0854    6407.6094    -14513.66    15.381347    13.320655    27.508585    5636.2235 
  989500      989.487    584.82086    24.038901   -436.39714   -412.35824   -1877.7642     3182.465    5614.0271   -14429.785     15.38135    13.320657    27.508568    5636.2217 
  990000      989.987    565.14837    23.230269   -435.58087    -412.3506   -2315.8929   -634.11052    3693.1319     -10006.7    15.381352    13.320659     27.50855    5636.2198 
  990500      990.487    596.79169    24.530959   -436.87299   -412.34203   -2321.5184    549.14237    1164.4595   -8678.1571    15.381354    13.320661    27.508533     5636.218 
  991000      990.987    585.97402    24.086301   -436.42128   -412.33497   -1625.9263    710.00462   -710.12773   -4877.6557    15.381357    13.320663    27.508515    5636.2162 
  991500      991.487    586.10673    24.091757   -436.41586    -412.3241   -827.53493    5644.1588     4015.817   -12142.581    15.381359    13.320665    27.508498    5636.2143 
  992000      991.987    584.91553    24.042793   -436.35567   -412.31288    -1319.268    3642.2044    2999.3387   -10599.347    15.381362    13.320667     27.50848    5636.2125 
  992500      992.487    579.08429    23.803101   -436.10847   -412.30537   -593.79917    3795.5849    7767.5339   -13344.516    15.381364    13.320669    27.508463    5636.2106 
  993000      992.987    583.43295    23.981851   -436.27761   -412.29576   -1073.8761    4262.9463    2368.0349   -9852.6094    15.381366    13.320671    27.508445    5636.2088 
  993500      993.487    560.13455    23.024177   -435.31008    -412.2859   -734.90843    4816.2319    7305.1676   -14326.125    15.381369    13.320673    27.508428     5636.207 
  994000      993.987    583.47838    23.983719   -436.26093   -412.27721   -963.28602    4550.2091    2567.2248   -10007.292    15.381371    13.320675     27.50841    5636.2051 
  994500      994.487    576.03503    23.677762   -435.94588   -412.26812   -2176.7923    2301.5408    6125.8675   -14957.785    15.381374    13.320677    27.508393    5636.2033 
  995000      994.987    576.42627    23.693844   -435.95446   -412.26062    -1331.119    3976.9398    8374.7794   -16345.076    15.381376    13.320679    27.508375    5636.2015 
  995500      995.487     607.5595    24.973567   -437.22519   -412.25163   -2905.1469    2232.7512     2794.868    -13743.06    15.381378    13.320681    27.508358    5636.1996 
  996000      995.987    584.63754    24.031366   -436.27463   -412.24326    271.95949    9193.1683     5035.892   -13413.182    15.381381    13.320684     27.50834    5636.1978 
  996500      996.487    576.31244    23.689165   -435.92163   -412.23246   -1059.5006     5364.863      4316.26   -12859.625    15.381383    13.320686    27.508323    5636.1959 
  997000      996.987    603.33029    24.799726   -437.02295   -412.22322   -515.46463    5508.8003    3169.6516   -10224.846    15.381386    13.320688    27.508305    5636.1941 
  997500      997.487    567.16962    23.313352   -435.52777   -412.21442   -767.86429    6324.3925    6806.3215   -15434.307    15.381388     13.32069    27.508288    5636.1923 
  998000      997.987    581.34128    23.895874   -436.10021   -412.20433   -976.71988    4673.4831    6881.9761   -14485.619     15.38139    13.320692     27.50827    5636.1904 
  998500      998.487    585.70233    24.075134   -436.26805   -412.19292   -396.52405     4368.935    5683.5331    -11242.04    15.381393    13.320694    27.508253    5636.1886 
  999000      998.987     575.8287    23.669281   -435.85254   -412.18326   -1618.5339    3771.3213    4714.0096   -13340.933    15.381395    13.320696    27.508235    5636.1867 
  999500      999.487    569.16986    23.395571   -435.56855   -412.17298   -1166.3945    3610.2688    2289.2871   -9398.7395    15.381398    13.320698    27.508218    5636.1849 
 1000000      999.987    582.32873    23.936463   -436.09957    -412.1631   -1232.2958    7143.8046    4006.5337   -14847.226      15.3814      13.3207      27.5082    5636.1831 
 1000013         1000    556.26426     22.86509     -435.026   -412.16091    -1012.444    4952.9793    1695.4806   -9685.7921      15.3814      13.3207      27.5082     5636.183 
Loop time of 896.451 on 28 procs for 1000000 steps with 319 atoms

Performance: 96.380 ns/day, 0.249 hours/ns, 1115.509 timesteps/s
87.1% CPU use with 28 MPI tasks x no OpenMP threads

MPI task timing breakdown:
Section |  min time  |  avg time  |  max time  |%varavg| %total
---------------------------------------------------------------
Pair    | 740.7      | 780.37     | 803.7      |  61.6 | 87.05
Neigh   | 0.032523   | 0.048693   | 0.062334   |   3.8 |  0.01
Comm    | 81.468     | 103.36     | 142.41     | 162.1 | 11.53
Output  | 0.10152    | 0.10348    | 0.12685    |   1.4 |  0.01
Modify  | 4.8782     | 7.5054     | 12.66      |  81.9 |  0.84
Other   |            | 5.068      |            |       |  0.57

Nlocal:    11.3929 ave 16 max 6 min
Histogram: 1 1 3 1 6 2 4 4 1 5
Nghost:    642.643 ave 683 max 591 min
Histogram: 6 1 1 0 2 4 1 3 6 4
Neighs:    707.821 ave 1011 max 378 min
Histogram: 2 1 3 4 4 2 5 1 3 3
FullNghs:  1415.64 ave 2010 max 754 min
Histogram: 1 4 1 6 2 2 5 2 3 2

Total # of neighbors = 39638
Ave neighs/atom = 124.257
Neighbor list builds = 731
Dangerous builds = 0

write_restart   POSCAR_1x1x1.rest

#unfix    1
#undump   1
Total wall time: 0:14:56
