LAMMPS (7 Dec 2015)
#----------- Initialize Simulation ------------ restart01
#processors	2 2 2
units		metal
boundary	p p p     ## periodic boundary condition  on x y z axis ##
atom_style atomic
#atom_modify map array sort 0 0.0

read_data	POSCAR_1x1x1.lammps
  triclinic box = (0 0 0) to (15.4242 13.3577 27.1933) with tilt (-7.712 0 0)
  2 by 2 by 7 MPI processor grid
  reading atoms ...
  319 atoms

#----------- Define Potential -----------------
pair_style meam
pair_coeff * * MgAlZn.library.meam Mg Al Zn MgAlZn.parameter.meam Mg Al Zn 	#1=Mg 2=Al 3=Zn	#atoms/mass

#----------- Neighbor List --------------------
neighbor 2.0 bin
neigh_modify delay 10 check yes

#--------------  Run a simulation (minimization) ---------------------------------------
minimize       1.0e-4   1.0e-6   100   1000          #結構優化的條件
WARNING: Resetting reneighboring criteria during minimization (../min.cpp:168)
Neighbor list info ...
  2 neighbor list requests
  update every 1 steps, delay 0 steps, check yes
  max neighbors/atom: 2000, page size: 100000
  master list distance cutoff = 8
  ghost atom cutoff = 8
  binsize = 4 -> bins = 6 4 7
Memory usage per processor = 8.65307 Mbytes
Step Temp E_pair E_mol TotEng Press 
       0            0   -436.41187            0   -436.41187   -4306.9625 
      15            0   -457.83409            0   -457.83409   -20792.816 
Loop time of 0.0240734 on 28 procs for 15 steps with 319 atoms

84.1% CPU use with 28 MPI tasks x no OpenMP threads

Minimization stats:
  Stopping criterion = energy tolerance
  Energy initial, next-to-last, final = 
        -436.411869221     -457.796084715     -457.834088852
  Force two-norm initial, final = 19.7401 0.749314
  Force max component initial, final = 2.75472 0.151
  Final line search alpha, max atom move = 0.33855 0.0511211
  Iterations, force evaluations = 15 26

MPI task timing breakdown:
Section |  min time  |  avg time  |  max time  |%varavg| %total
---------------------------------------------------------------
Pair    | 0.019045   | 0.020463   | 0.021551   |   0.4 | 85.00
Neigh   | 0          | 0          | 0          |   0.0 |  0.00
Comm    | 0.00151    | 0.0025853  | 0.0039547  |   1.2 | 10.74
Output  | 0          | 0          | 0          |   0.0 |  0.00
Modify  | 0          | 0          | 0          |   0.0 |  0.00
Other   |            | 0.001025   |            |       |  4.26

Nlocal:    11.3929 ave 15 max 6 min
Histogram: 1 1 1 5 2 3 3 7 2 3
Nghost:    647.536 ave 684 max 591 min
Histogram: 3 1 2 2 0 2 4 3 7 4
Neighs:    710.5 ave 952 max 371 min
Histogram: 1 1 2 4 2 5 2 3 5 3
FullNghs:  1421 ave 1894 max 758 min
Histogram: 1 1 2 5 2 2 3 7 2 3

Total # of neighbors = 39788
Ave neighs/atom = 124.727
Neighbor list builds = 0
Dangerous builds = 0
velocity all  create 600.0 4928459 #rot yes dist gaussian

#--------------  Run a simulation (Relaxation)  ----------------------------------------
fix  1  all  nvt   temp  600.0  600.0  100				#damping constant
#fix  2  all  npt   temp  393.0  393.0  50 iso 0.0 0.0 1000.0
fix  2  all deform 1 x final 0 15.429 y final 0 13.3619 z final 0 27.1583 xy final -7.7144 units lattice
#fix  3  all  npt   temp  393.0  393.0  50 z 0.0 0.0 1000.0

#variable b equal 1
#fix 2 all efield  0.0  0.0  v_b
#compute pot all pe/atom


#----------- Output --------------------------
thermo	 500
timestep  0.001		#1.0 fs
thermo_style	custom step time temp ke pe etotal press pxx pyy pzz lx ly lz vol

dump 1 all custom 10000 dump.eq id type x y z
dump_modify 1 sort  id

run        1000000	#1000 ps
Neighbor list info ...
  2 neighbor list requests
  update every 1 steps, delay 10 steps, check yes
  max neighbors/atom: 2000, page size: 100000
  master list distance cutoff = 8
  ghost atom cutoff = 8
  binsize = 4 -> bins = 6 4 7
Memory usage per processor = 7.5613 Mbytes
Step Time Temp KinEng PotEng TotEng Press Pxx Pyy Pzz Lx Ly Lz Volume 
      15            0          600    24.662836   -457.83409   -433.17125   -16090.998   -11561.047   -11927.203   -24784.743      15.4242      13.3577      27.1933    5602.6855 
     500        0.485    317.63407    13.056261   -446.22341   -433.16714    -9671.888   -6921.9169   -4558.4183   -17535.329    15.424202    13.357702    27.193283    5602.6837 
    1000        0.985    327.37838    13.456798   -446.62367   -433.16687   -8331.1548   -4610.6468   -3650.8032   -16732.015    15.424205    13.357704    27.193266    5602.6819 
    1500        1.485    320.03531    13.154964   -446.32097     -433.166   -9447.0126   -4635.3713   -6127.4056   -17578.261    15.424207    13.357706    27.193248      5602.68 
    2000        1.985    328.22779    13.491713   -446.65708   -433.16537   -9354.8462   -2957.4959   -6652.0877   -18454.955     15.42421    13.357708    27.193231    5602.6782 
    2500        2.485    320.81332    13.186944   -446.35076   -433.16382   -10317.705   -6078.1006   -6436.1151     -18438.9    15.424212     13.35771    27.193213    5602.6763 
    3000        2.985    313.90762    12.903087   -446.06528   -433.16219   -9199.9986   -4438.5554   -6278.8057   -16882.635    15.424214    13.357713    27.193196    5602.6745 
    3500        3.485    316.74155    13.019574   -446.17967    -433.1601   -8511.8825   -4707.0921   -8379.6311   -12448.924    15.424217    13.357715    27.193178    5602.6726 
    4000        3.985    324.90193    13.355005   -446.51275   -433.15774   -9051.8988   -4143.2561   -4830.3705    -18182.07    15.424219    13.357717    27.193161    5602.6708 
    4500        4.485    317.16594    13.037019     -446.192   -433.15498   -8752.9169   -4265.3959   -6892.8507   -15100.504    15.424222    13.357719    27.193143    5602.6689 
    5000        4.985    315.82344    12.981836   -446.13409   -433.15226   -9911.7969   -4237.4741   -7283.5006   -18214.416    15.424224    13.357721    27.193126    5602.6671 
    5500        5.485    338.73574     13.92364   -447.07328   -433.14964    -10572.08   -6274.9792    -8029.974   -17411.288    15.424226    13.357723    27.193108    5602.6652 
    6000        5.985    306.70015    12.606826   -445.75251   -433.14569   -9751.1659   -6015.4146   -6984.4885   -16253.595    15.424229    13.357725    27.193091    5602.6634 
    6500        6.485    308.02923    12.661457    -445.8035   -433.14204   -9480.7294   -3601.9825   -8327.2495   -16512.956    15.424231    13.357727    27.193073    5602.6615 
    7000        6.985    329.84003    13.557984   -446.69644   -433.13846   -9549.8015   -3401.7633   -7252.2534   -17995.388    15.424234    13.357729    27.193056    5602.6596 
    7500        7.485    315.69979    12.976753   -446.11016    -433.1334   -9887.4912   -3081.7948   -9421.2102   -17159.468    15.424236    13.357731    27.193038    5602.6578 
    8000        7.985    314.78855    12.939297   -446.06784   -433.12854   -10160.195    -7089.149   -6367.3567    -17024.08    15.424238    13.357734    27.193021    5602.6559 
    8500        8.485    320.86737    13.189165   -446.31314   -433.12397   -8705.4394   -3072.8618   -6006.7117   -17036.745    15.424241    13.357736    27.193003    5602.6541 
    9000        8.985    315.12904    12.953293   -446.07168   -433.11839   -9563.1683   -6329.4887   -7037.4591   -15322.557    15.424243    13.357738    27.192986    5602.6522 
    9500        9.485    317.23149    13.039714   -446.15246   -433.11274   -9283.6646   -4466.9907    -9431.845   -13952.158    15.424246     13.35774    27.192968    5602.6504 
   10000        9.985    316.60475    13.013952   -446.12025    -433.1063   -9716.8089   -4445.6413   -7287.4581   -17417.327    15.424248    13.357742    27.192951    5602.6485 
   10500       10.485    317.88871    13.066728    -446.1673   -433.10057   -9409.4426   -5582.9024   -7517.4651    -15127.96     15.42425    13.357744    27.192933    5602.6467 
   11000       10.985    315.08492    12.951479   -446.04532   -433.09384   -9367.9261   -7642.9624   -5858.0982   -14602.718    15.424253    13.357746    27.192916    5602.6448 
   11500       11.485    316.28245    13.000703     -446.088    -433.0873   -9231.1607   -4871.5593   -8165.9419   -14655.981    15.424255    13.357748    27.192898     5602.643 
   12000       11.985    302.44508    12.431922   -445.51152    -433.0796   -9015.6389   -5358.1401   -5137.2347   -16551.542    15.424258     13.35775    27.192881    5602.6411 
   12500       12.485    322.40128    13.252216   -446.32445   -433.07223   -10305.555   -5543.6755   -8144.4678   -17228.521     15.42426    13.357752    27.192863    5602.6393 
   13000       12.985    296.20792    12.175545   -445.23959   -433.06404    -8935.032   -3524.2643   -7510.8486   -15769.983    15.424262    13.357755    27.192846    5602.6374 
   13500       13.485    318.51334    13.092404   -446.14848   -433.05608   -8992.7662   -6027.8039   -8202.8216   -12747.673    15.424265    13.357757    27.192828    5602.6356 
   14000       13.985    333.12149    13.692868   -446.74093   -433.04806   -9836.7443   -5203.6464   -6480.2899   -17826.297    15.424267    13.357759    27.192811    5602.6337 
   14500       14.485     339.0978    13.938522   -446.97783   -433.03931   -9868.7438   -4200.7717    -9320.142   -16085.318     15.42427    13.357761    27.192793    5602.6319 
   15000       14.985    326.87261    13.436009   -446.46563   -433.02962   -8947.3911   -3043.1024    -6570.849   -17228.222    15.424272    13.357763    27.192776      5602.63 
   15500       15.485    307.70015     12.64793   -445.66827   -433.02034    -9516.625   -5415.6223   -8171.7972   -14962.455    15.424274    13.357765    27.192758    5602.6281 
   16000       15.985    341.94243     14.05545   -447.06639   -433.01094   -9816.7099   -5801.1834   -5229.4592   -18419.487    15.424277    13.357767    27.192741    5602.6263 
   16500       16.485    311.69702    12.812221   -445.81314   -433.00092   -8940.6676    -2515.278   -7482.1418   -16824.583    15.424279    13.357769    27.192723    5602.6244 
   17000       16.985    316.50265    13.009755   -446.00024   -432.99048   -10140.088   -4090.6817   -10713.333    -15616.25    15.424282    13.357771    27.192706    5602.6226 
   17500       17.485    332.03275    13.648115   -446.62839   -432.98028   -9701.8546   -4464.6948   -7417.3783   -17223.491    15.424284    13.357773    27.192688    5602.6207 
   18000       17.985    309.53091    12.723183   -445.69253   -432.96935   -9446.0909   -4144.6668   -7653.5857    -16540.02    15.424286    13.357776    27.192671    5602.6189 
   18500       18.485    327.75784    13.472396   -446.43062   -432.95823   -9379.6692   -4852.4889    -7547.398   -15739.121    15.424289    13.357778    27.192653     5602.617 
   19000       18.985    316.30253    13.001529   -445.94791   -432.94638   -8668.7379   -4816.4919   -6640.8802   -14548.841    15.424291     13.35778    27.192636    5602.6152 
   19500       19.485    319.25364    13.122833   -446.05745   -432.93462   -9647.6778   -4601.7453   -8129.3295   -16211.958    15.424294    13.357782    27.192618    5602.6133 
   20000       19.985    328.95903    13.521771   -446.44496   -432.92319   -9301.9996   -5574.8235   -6191.0309   -16140.144    15.424296    13.357784    27.192601    5602.6115 
   20500       20.485    318.37869    13.086869   -445.99703   -432.91016   -8434.6878   -6656.0461   -5241.0632   -13406.954    15.424298    13.357786    27.192583    5602.6096 
   21000       20.985    323.93779    13.315374   -446.21345   -432.89807    -8680.754   -3012.9349   -7181.9592   -15847.368    15.424301    13.357788    27.192566    5602.6078 
   21500       21.485    317.82611    13.064155   -445.94934   -432.88519   -9805.9657   -4748.8555   -7649.9748   -17019.067    15.424303     13.35779    27.192548    5602.6059 
   22000       21.985    303.21707    12.463655   -445.33521   -432.87155   -9029.0903   -3438.5816   -8933.6874   -14715.002    15.424306    13.357792    27.192531    5602.6041 
   22500       22.485    319.97422    13.152453   -446.01104   -432.85859   -9833.9441   -6684.1995   -7114.9171   -15702.716    15.424308    13.357794    27.192513    5602.6022 
   23000       22.985    314.29451     12.91899   -445.76335   -432.84436   -9565.0147   -4581.2654   -7931.1269   -16182.652     15.42431    13.357797    27.192496    5602.6004 
   23500       23.485    333.85096    13.722852   -446.55335    -432.8305   -10217.713   -6757.1801   -9699.8355   -14196.122    15.424313    13.357799    27.192478    5602.5985 
   24000       23.985    312.43435    12.842528   -445.65862   -432.81609   -9813.4997   -3424.6109   -9407.3742   -16608.514    15.424315    13.357801    27.192461    5602.5966 
   24500       24.485    319.66729    13.139836   -445.94075   -432.80091   -9435.1868   -8198.1187   -5809.9608   -14297.481    15.424318    13.357803    27.192443    5602.5948 
   25000       24.985     342.2249    14.067061   -446.85397   -432.78691   -9709.8757   -6022.0918   -5977.7718   -17129.763     15.42432    13.357805    27.192426    5602.5929 
   25500       25.485    320.89763    13.190409   -445.96158   -432.77117   -8899.9893   -4743.3208   -8409.5028   -13547.144    15.424322    13.357807    27.192408    5602.5911 
   26000       25.985    293.44485     12.06197   -444.81729   -432.75532   -7937.6606   -4513.8618   -4795.2755   -14503.844    15.424325    13.357809    27.192391    5602.5892 
   26500       26.485    302.57227     12.43715   -445.17698   -432.73983   -8798.7963     -5408.82   -6796.5697   -14190.999    15.424327    13.357811    27.192373    5602.5874 
   27000       26.985    327.42793    13.458835   -446.18371   -432.72487   -9805.3844   -5152.3839     -7044.45   -17219.319     15.42433    13.357813    27.192356    5602.5855 
   27500       27.485     322.7572    13.266846   -445.97538   -432.70853   -8612.3813    -4680.291   -4255.4865   -16901.366    15.424332    13.357815    27.192338    5602.5837 
   28000       27.985    326.87479    13.436099   -446.12846   -432.69236   -9664.6226    -4637.818   -6123.6687   -18232.381    15.424334    13.357818    27.192321    5602.5818 
   28500       28.485    321.93973    13.233244   -445.90898   -432.67573   -9712.1394   -4851.1613   -8366.3467    -15918.91    15.424337     13.35782    27.192303      5602.58 
   29000       28.985     323.1172    13.281644   -445.94073   -432.65909   -10083.481   -7957.9111   -8484.9282   -13807.603    15.424339    13.357822    27.192286    5602.5781 
   29500       29.485    328.28882    13.494222   -446.13691   -432.64269    -8649.397   -6322.7176   -4977.8306   -14647.643    15.424342    13.357824    27.192268    5602.5763 
   30000       29.985    341.53475    14.038692   -446.66465   -432.62595   -9124.4537   -2818.9068   -8096.1874   -16458.267    15.424344    13.357826    27.192251    5602.5744 
   30500       30.485    331.19166    13.613543   -446.22196   -432.60842   -9642.7611   -3122.1487   -8498.8341     -17307.3    15.424346    13.357828    27.192233    5602.5726 
   31000       30.985    316.11663    12.993887   -445.58504   -432.59115   -8662.2695   -5598.6771   -4893.1382   -15494.993    15.424349     13.35783    27.192216    5602.5707 
   31500       31.485    321.30569    13.207182   -445.78049   -432.57331   -8425.8783   -4111.8008   -4544.2416   -16621.593    15.424351    13.357832    27.192198    5602.5688 
   32000       31.985    340.81781    14.009223   -446.56465   -432.55543   -8922.2685   -3568.4882   -7712.4195   -15485.898    15.424354    13.357834    27.192181     5602.567 
   32500       32.485    335.77984    13.802138   -446.33975   -432.53761   -9940.1359   -6688.3583   -8216.7923   -14915.257    15.424356    13.357836    27.192163    5602.5651 
   33000       32.985    308.07347    12.663275    -445.1825   -432.51923   -9195.7931   -3433.6653   -7120.0571   -17033.657    15.424358    13.357839    27.192146    5602.5633 
   33500       33.485     326.2492    13.410384   -445.91132   -432.50093   -9206.4771   -5445.3072   -7952.4448   -14221.679    15.424361    13.357841    27.192128    5602.5614 
   34000       33.985    334.07124    13.731907   -446.21476   -432.48285   -9502.1542   -2567.3754   -7454.7953   -18484.292    15.424363    13.357843    27.192111    5602.5596 
   34500       34.485    315.92571     12.98604   -445.45002   -432.46398   -8666.6575   -5647.6194   -8541.2648   -11811.088    15.424366    13.357845    27.192093    5602.5577 
   35000       34.985    335.59315    13.794465   -446.23997    -432.4455   -8863.8993   -4049.9844    -6813.974    -15727.74    15.424368    13.357847    27.192076    5602.5559 
   35500       35.485    344.63429    14.166098   -446.59283   -432.42674   -8970.6477   -5341.5627   -6358.6871   -15211.693     15.42437    13.357849    27.192058     5602.554 
   36000       35.985    325.13529    13.364597   -445.77248   -432.40789   -8633.0131   -3198.7609   -6264.7698   -16435.509    15.424373    13.357851    27.192041    5602.5522 
   36500       36.485    332.07438    13.649826   -446.03912   -432.38929   -9678.7393   -6918.3038   -4909.6682   -17208.246    15.424375    13.357853    27.192023    5602.5503 
   37000       36.985    324.22379     13.32713   -445.69713      -432.37   -8510.0789   -3067.8232   -5719.4264   -16742.987    15.424378    13.357855    27.192006    5602.5485 
   37500       37.485    317.15816    13.036699   -445.38716   -432.35046   -8652.0614   -2007.5498   -9136.1373   -14812.497     15.42438    13.357857    27.191988    5602.5466 
   38000       37.985    325.35823    13.373761   -445.70533   -432.33157   -9241.3626   -4957.5813   -7978.4067     -14788.1    15.424382     13.35786    27.191971    5602.5448 
   38500       38.485    352.55013    14.491477    -446.8052   -432.31372   -10455.341   -5885.1853   -8539.0386     -16941.8    15.424385    13.357862    27.191953    5602.5429 
   39000       38.985    326.98134    13.440478   -445.73426   -432.29378   -9800.3308   -4735.1414   -8878.2941   -15787.557    15.424387    13.357864    27.191936    5602.5411 
   39500       39.485    334.72999    13.758985   -446.03338    -432.2744   -8637.4456   -2913.1624   -6609.6514   -16389.523     15.42439    13.357866    27.191918    5602.5392 
   40000       39.985    325.13556    13.364608   -445.61957   -432.25497     -9008.98   -2300.9225   -7346.6562   -17379.361    15.424392    13.357868    27.191901    5602.5373 
   40500       40.485    312.50336    12.845365   -445.08099   -432.23562   -8856.5353   -3567.8208   -8849.9706   -14151.814    15.424394     13.35787    27.191883    5602.5355 
   41000       40.985    348.82493    14.338353   -446.55565   -432.21729    -9050.097   -5512.8382   -6285.1931    -15352.26    15.424397    13.357872    27.191866    5602.5336 
   41500       41.485    318.01264    13.071822   -445.26931   -432.19749    -7858.177   -4524.0016   -4089.5624   -14960.967    15.424399    13.357874    27.191848    5602.5318 
   42000       41.985    361.08613    14.842346    -447.0215   -432.17915   -10774.008    -4956.313   -5652.5852   -21713.126    15.424402    13.357876    27.191831    5602.5299 
   42500       42.485    338.27252    13.904599   -446.06442   -432.15982    -9131.455   -5699.7297   -5424.1761   -16270.459    15.424404    13.357878    27.191813    5602.5281 
   43000       42.985    342.40383    14.074416   -446.21475   -432.14033   -9517.9641   -5239.6785   -6745.1829   -16569.031    15.424406    13.357881    27.191796    5602.5262 
   43500       43.485    318.64283    13.097726   -445.21879   -432.12107   -9540.6025   -5765.0012   -7081.1879   -15775.618    15.424409    13.357883    27.191778    5602.5244 
   44000       43.985    350.28842     14.39851   -446.50114   -432.10263    -9565.116   -5129.6769   -9281.3924   -14284.279    15.424411    13.357885    27.191761    5602.5225 
   44500       44.485    312.39351     12.84085   -444.92358   -432.08273   -9293.5201   -5443.5839   -7731.3625   -14705.614    15.424414    13.357887    27.191743    5602.5207 
   45000       44.985    340.52173    13.997053    -446.0615   -432.06445   -8701.5901   -5080.7317   -5742.8184    -15281.22    15.424416    13.357889    27.191726    5602.5188 
   45500       45.485      327.376    13.456701   -445.50214   -432.04544   -9480.7347   -4362.3469   -8826.6026   -15253.255    15.424418    13.357891    27.191708     5602.517 
   46000       45.985    339.65752    13.961529   -445.98798   -432.02645   -9922.4475   -5248.9108   -4612.9444   -19905.487    15.424421    13.357893    27.191691    5602.5151 
   46500       46.485    336.73664    13.841467   -445.84925   -432.00779    -9170.746   -3632.7878   -7311.2064   -16568.244    15.424423    13.357895    27.191673    5602.5133 
   47000       46.985    344.64854    14.166684   -446.15569   -431.98901   -8466.4533   -2992.8234   -5628.1477   -16778.389    15.424426    13.357897    27.191656    5602.5114 
   47500       47.485    320.07751    13.156698   -445.12642   -431.96973   -9152.9053   -6297.4785   -4309.2515   -16851.986    15.424428    13.357899    27.191638    5602.5095 
   48000       47.985    318.17218     13.07838    -445.0302   -431.95182   -8026.7089   -4607.9588   -5861.2332   -13610.935     15.42443    13.357902    27.191621    5602.5077 
   48500       48.485    326.68117     13.42814   -445.36157   -431.93343   -9231.6169   -5279.0501    -5576.089   -16839.712    15.424433    13.357904    27.191603    5602.5058 
   49000       48.985    338.26634    13.904345   -445.81949   -431.91514   -9411.3911   -6457.4894   -7870.4423   -13906.242    15.424435    13.357906    27.191586     5602.504 
   49500       49.485    349.43568    14.363458    -446.2606   -431.89714   -9114.5472   -3536.5501   -8254.2684   -15552.823    15.424438    13.357908    27.191568    5602.5021 
   50000       49.985    309.03605    12.702842   -444.58085     -431.878   -8521.6441   -3610.3839   -4778.0292   -17176.519     15.42444     13.35791    27.191551    5602.5003 
   50500       50.485    332.46098    13.665718   -445.52604   -431.86032   -8458.0819   -5889.5226   -4620.3813   -14864.342    15.424442    13.357912    27.191533    5602.4984 
   51000       50.985    342.66965    14.085342   -445.92849   -431.84315   -9179.1054   -4242.1547   -6868.7141   -16426.448    15.424445    13.357914    27.191516    5602.4966 
   51500       51.485    332.36053    13.661589   -445.48612   -431.82453   -9001.3506   -6094.0218   -7421.9774   -13488.053    15.424447    13.357916    27.191498    5602.4947 
   52000       51.985    323.38064    13.292473   -445.09913   -431.80666   -8120.4099   -4570.6483   -3780.8707   -16009.711     15.42445    13.357918    27.191481    5602.4929 
   52500       52.485    318.68107    13.099298   -444.88819   -431.78889    -8467.627   -1858.2816   -7893.5215   -15651.078    15.424452     13.35792    27.191463     5602.491 
   53000       52.985    329.19961     13.53166   -445.30292   -431.77126   -7860.4277   -6248.8524   -5983.6414   -11348.789    15.424454    13.357923    27.191446    5602.4892 
   53500       53.485    342.23634    14.067531   -445.82176   -431.75423   -9040.7495   -2992.7617   -7360.4321   -16769.055    15.424457    13.357925    27.191428    5602.4873 
   54000       53.985    338.21451    13.902215   -445.63846   -431.73625   -8301.6793   -2035.6436   -6858.0753   -16011.319    15.424459    13.357927    27.191411    5602.4855 
   54500       54.485    352.98957    14.509539   -446.22903   -431.71949   -9350.9269   -3739.5163   -6570.9045    -17742.36    15.424462    13.357929    27.191393    5602.4836 
   55000       54.985    339.02907    13.935697   -445.63811   -431.70241    -9940.917   -5684.7769   -7347.1901   -16790.784    15.424464    13.357931    27.191376    5602.4818 
   55500       55.485    360.60604    14.822613    -446.5078   -431.68519   -8771.8344   -4709.3791   -6985.9457   -14620.179    15.424466    13.357933    27.191358    5602.4799 
   56000       55.985    354.58878    14.575274   -446.24342   -431.66815   -10123.867    -5042.553   -8943.4313   -16385.617    15.424469    13.357935    27.191341     5602.478 
   56500       56.485    362.13125    14.885306   -446.53664   -431.65134   -8971.0184   -3699.5424   -8258.5062   -14955.007    15.424471    13.357937    27.191323    5602.4762 
   57000       56.985    329.70354    13.552374   -445.18581   -431.63344   -9252.3264   -6830.7239   -7192.7842   -13733.471    15.424474    13.357939    27.191306    5602.4743 
   57500       57.485    334.14723     13.73503   -445.35228   -431.61725   -9572.8452   -3717.3263   -7218.9521   -17782.257    15.424476    13.357941    27.191288    5602.4725 
   58000       57.985    351.96034    14.467233    -446.0676   -431.60036   -8760.9442   -4020.6373   -7872.7894   -14389.406    15.424478    13.357944    27.191271    5602.4706 
   58500       58.485    343.75987    14.130155    -445.7138   -431.58365   -9431.2031   -6496.8168   -7226.3693   -14570.423    15.424481    13.357946    27.191253    5602.4688 
   59000       58.985    341.85237    14.051748   -445.61886   -431.56711   -9506.4964   -6823.1088   -7103.2414   -14593.139    15.424483    13.357948    27.191236    5602.4669 
   59500       59.485    319.67704    13.140237   -444.69067   -431.55043   -8150.8991   -1845.4349   -6341.8566   -16265.406    15.424486     13.35795    27.191218    5602.4651 
   60000       59.985    342.02039    14.058654   -445.59286    -431.5342   -9359.6333   -4403.9226   -6557.5078   -17117.469    15.424488    13.357952    27.191201    5602.4632 
   60500       60.485    339.47318    13.953952   -445.47134   -431.51739   -8461.4421   -4796.7587   -3504.7917   -17082.776     15.42449    13.357954    27.191183    5602.4614 
   61000       60.985    334.63561    13.755105   -445.25624   -431.50114   -9045.2091   -4700.4425   -5898.8548    -16536.33    15.424493    13.357956    27.191166    5602.4595 
   61500       61.485     334.0239    13.729961    -445.2154   -431.48544   -8757.6248   -5559.4353   -6642.6446   -14070.794    15.424495    13.357958    27.191148    5602.4577 
   62000       61.985    330.32053    13.577735   -445.04687   -431.46914   -8328.0641   -2211.4362   -6048.0061    -16724.75    15.424498     13.35796    27.191131    5602.4558 
   62500       62.485    316.64619    13.015655   -444.46813   -431.45248   -8611.9356   -3420.4834   -5970.6776   -16444.646      15.4245    13.357962    27.191113     5602.454 
   63000       62.985    351.61898    14.453202   -445.89008   -431.43688    -8335.493   -3725.6956   -7469.6384   -13811.145    15.424502    13.357965    27.191096    5602.4521 
   63500       63.485    341.17341     14.02384   -445.44465   -431.42081   -8316.4651   -4227.0238   -5316.9901   -15405.381    15.424505    13.357967    27.191078    5602.4502 
   64000       63.985    349.52211    14.367011    -445.7724   -431.40539   -8321.6477   -5163.3445   -4324.6911   -15476.907    15.424507    13.357969    27.191061    5602.4484 
   64500       64.485    341.14175    14.022538   -445.41161   -431.38907    -8015.004   -3769.7308   -5712.0191   -14563.262     15.42451    13.357971    27.191043    5602.4465 
   65000       64.985    347.75635     14.29443   -445.66785   -431.37342   -9598.0753   -6656.2664   -5353.6195    -16784.34    15.424512    13.357973    27.191026    5602.4447 
   65500       65.485    338.11642    13.898183   -445.25519     -431.357   -9280.5285   -3828.8692   -7433.1222   -16579.594    15.424514    13.357975    27.191008    5602.4428 
   66000       65.985    334.61761    13.754365   -445.09523   -431.34087   -7924.6793   -4344.0879   -9958.0867   -9471.8633    15.424517    13.357977    27.190991     5602.441 
   66500       66.485    337.68445    13.880427   -445.20556   -431.32513   -9144.8219     -6256.29   -7323.4272   -13854.748    15.424519    13.357979    27.190973    5602.4391 
   67000       66.985    349.80391    14.378594   -445.68788   -431.30928    -8009.899   -5134.7646    -5137.053   -13757.879    15.424522    13.357981    27.190956    5602.4373 
   67500       67.485    345.42586    14.198635   -445.49179   -431.29316    -8441.984   -2260.8921   -6126.4198    -16938.64    15.424524    13.357983    27.190938    5602.4354 
   68000       67.985    338.64284    13.919821   -445.19772    -431.2779   -8362.6843   -3376.4764   -4741.1447   -16970.432    15.424526    13.357986    27.190921    5602.4336 
   68500       68.485    351.24736    14.437926   -445.69972   -431.26179   -8363.7585   -1221.2414   -6707.9401   -17162.094    15.424529    13.357988    27.190903    5602.4317 
   69000       68.985    328.64168    13.508726   -444.75403   -431.24531   -8760.1711   -5958.1634   -8656.1091   -11666.241    15.424531     13.35799    27.190886    5602.4299 
   69500       69.485    346.24082    14.232134   -445.46158   -431.22944   -8496.6167   -4337.2519   -7381.8608   -13770.737    15.424534    13.357992    27.190868     5602.428 
   70000       69.985     336.3812    13.826857    -445.0407   -431.21384   -7659.2028   -2075.9568   -5311.7185   -15589.933    15.424536    13.357994    27.190851    5602.4262 
   70500       70.485    354.95419    14.590295   -445.78815   -431.19786   -8507.5873   -3960.3062   -7317.7822   -14244.673    15.424538    13.357996    27.190833    5602.4243 
   71000       70.985    327.78406    13.473474   -444.65455   -431.18108   -7368.0504   -5929.5672   -3618.2903   -12556.294    15.424541    13.357998    27.190816    5602.4224 
   71500       71.485    328.17947    13.489727   -444.65517   -431.16544   -8109.7487   -3716.7615   -4959.9976   -15652.487    15.424543       13.358    27.190798    5602.4206 
   72000       71.985    341.98081    14.057027   -445.20699   -431.14996   -8911.1853   -5679.4553   -7168.6186   -13885.482    15.424546    13.358002    27.190781    5602.4187 
   72500       72.485    355.07205    14.595139   -445.72951   -431.13437   -9683.6203   -5952.6916   -7888.2066   -15209.963    15.424548    13.358004    27.190763    5602.4169 
   73000       72.985    345.81551    14.214652   -445.33247   -431.11782   -8278.9547   -5399.3681   -4844.7189   -14592.777     15.42455    13.358007    27.190746     5602.415 
   73500       73.485    360.35053     14.81211   -445.91399   -431.10188   -8800.2755   -5166.0531   -7530.9015   -13703.872    15.424553    13.358009    27.190728    5602.4132 
   74000       73.985    348.43497    14.322324    -445.4083   -431.08597   -8685.4717   -4340.3087   -5607.0424   -16109.064    15.424555    13.358011    27.190711    5602.4113 
   74500       74.485    346.90626    14.259487   -445.32878   -431.06929        -8104   -1780.1843   -6348.7384   -16183.077    15.424558    13.358013    27.190693    5602.4095 
   75000       74.985    349.18776    14.353267   -445.40622   -431.05295   -9282.0412   -4174.4142   -6764.8905   -16906.819     15.42456    13.358015    27.190676    5602.4076 
   75500       75.485    339.57705    13.958222   -444.99523   -431.03701   -7847.8102   -5480.2741   -5055.6044   -13007.552    15.424562    13.358017    27.190658    5602.4058 
   76000       75.985    361.83471    14.873117   -445.89466   -431.02155   -9919.4002   -2787.3926   -6132.9485   -20837.859    15.424565    13.358019    27.190641    5602.4039 
   76500       76.485    342.11611    14.062589   -445.06738   -431.00479   -9132.7273    -4953.556   -5541.7776   -16902.848    15.424567    13.358021    27.190623    5602.4021 
   77000       76.985    343.03375    14.100308   -445.08869   -430.98838   -8061.7381   -5151.9392   -4505.9133   -14527.362     15.42457    13.358023    27.190606    5602.4002 
   77500       77.485    344.91555    14.177659   -445.14967   -430.97201   -8850.6741   -5681.9966   -7457.0871   -13412.939    15.424572    13.358025    27.190588    5602.3984 
   78000       77.985    335.55618    13.792945   -444.74857   -430.95563   -8097.4255   -4466.3485   -6356.9008   -13469.027    15.424574    13.358028    27.190571    5602.3965 
   78500       78.485    344.85065    14.174992   -445.11402   -430.93903   -7851.6124    -2869.249   -5889.4559   -14796.132    15.424577     13.35803    27.190553    5602.3947 
   79000       78.985    340.42326    13.993005   -444.91587   -430.92286   -8803.7375   -4498.6887   -6363.6441    -15548.88    15.424579    13.358032    27.190536    5602.3928 
   79500       79.485    359.15201    14.762845   -445.66928   -430.90643   -8789.6195   -2996.1702   -6494.4887     -16878.2    15.424582    13.358034    27.190518    5602.3909 
   80000       79.985    350.87062    14.422441   -445.31227   -430.88983   -9363.0139    -3975.122    -6655.768   -17458.152    15.424584    13.358036    27.190501    5602.3891 
   80500       80.485    321.74694     13.22532   -444.09776   -430.87244   -6860.0311   -963.19872   -2617.0429   -16999.852    15.424586    13.358038    27.190483    5602.3872 
   81000       80.985     361.1864    14.846468   -445.70286   -430.85639   -9160.4879   -5898.2527   -6287.8901   -15295.321    15.424589     13.35804    27.190466    5602.3854 
   81500       81.485    356.68166    14.661302   -445.50072   -430.83942   -9393.0119   -4999.0949   -7082.1298   -16097.811    15.424591    13.358042    27.190448    5602.3835 
   82000       81.985    336.12472    13.816315   -444.63847   -430.82215   -8163.8617   -3750.4574   -5305.1807   -15435.947    15.424594    13.358044    27.190431    5602.3817 
   82500       82.485    372.15415    15.297294   -446.10276   -430.80547   -7471.5065   -2772.6673   -6866.3117    -12775.54    15.424596    13.358046    27.190413    5602.3798 
   83000       82.985    337.17288    13.859399    -444.6473    -430.7879   -8441.8821   -4173.0235   -7840.4568   -13312.166    15.424598    13.358049    27.190396     5602.378 
   83500       83.485    338.67887    13.921302   -444.69241   -430.77111     -8142.56   -3727.1201   -7566.6995    -13133.86    15.424601    13.358051    27.190378    5602.3761 
   84000       83.985    377.00472    15.496676   -446.25121   -430.75454   -9481.1688   -4834.6245   -6775.7317    -16833.15    15.424603    13.358053    27.190361    5602.3743 
   84500       84.485    333.83877    13.722351   -444.45888   -430.73652    -8692.469   -4357.9136   -7198.8146   -14520.679    15.424606    13.358055    27.190343    5602.3724 
   85000       84.985    342.81236    14.091208   -444.81049   -430.71929   -8318.9572   -2636.9632   -7019.4507   -15300.458    15.424608    13.358057    27.190326    5602.3706 
   85500       85.485    345.19219    14.189031   -444.89063    -430.7016   -8310.3856   -3020.3789   -5174.2855   -16736.492     15.42461    13.358059    27.190308    5602.3687 
   86000       85.985    349.87465    14.381502   -445.06553   -430.68403   -8471.1412   -4747.1887   -5414.2195   -15252.015    15.424613    13.358061    27.190291    5602.3669 
   86500       86.485    339.52941    13.956263   -444.62288   -430.66662   -6897.6734   -2947.1877   -4448.8674   -13296.965    15.424615    13.358063    27.190273     5602.365 
   87000       86.985    367.05974     15.08789   -445.73696   -430.64907   -9176.9929   -3652.6531   -6996.3017   -16882.024    15.424618    13.358065    27.190256    5602.3631 
   87500       87.485    355.36094    14.607014   -445.23739   -430.63038   -8272.9806   -5236.1086   -3282.3931    -16300.44     15.42462    13.358067    27.190238    5602.3613 
   88000       87.985    356.59174    14.657606   -445.27001   -430.61241   -7749.9291   -3522.5927   -4518.4999   -15208.695    15.424622     13.35807    27.190221    5602.3594 
   88500       88.485    347.53896    14.285494   -444.87941   -430.59392    -8684.348   -6026.4984   -7626.0081   -12400.537    15.424625    13.358072    27.190203    5602.3576 
   89000       88.985    358.12114    14.720471   -445.29648     -430.576   -7376.7419   -2007.9128   -5524.7839   -14597.529    15.424627    13.358074    27.190186    5602.3557 
   89500       89.485    364.66201    14.989332   -445.54706   -430.55773   -8912.3545   -2798.2097   -6193.7124   -17745.142     15.42463    13.358076    27.190168    5602.3539 
   90000       89.985    370.66841    15.236224   -445.77571   -430.53948   -8578.3808   -3791.0073   -7111.4447   -14832.691    15.424632    13.358078    27.190151     5602.352 
   90500       90.485    355.22477    14.601417   -445.12242     -430.521   -7840.9407   -4137.3297   -6132.8243   -13252.668    15.424634     13.35808    27.190133    5602.3502 
   91000       90.985    353.19929     14.51816   -445.02075   -430.50259   -7627.8508   -5157.1632   -7428.6148   -10297.774    15.424637    13.358082    27.190116    5602.3483 
   91500       91.485     344.1218    14.145032   -444.62876   -430.48373   -7849.4568   -3574.1411   -4438.9728   -15535.257    15.424639    13.358084    27.190098    5602.3465 
   92000       91.985    365.39147    15.019316   -445.48463   -430.46531   -8183.1599   -2032.9676   -7349.7455   -15166.766    15.424642    13.358086    27.190081    5602.3446 
   92500       92.485    364.35612    14.976759   -445.42334   -430.44659   -9623.3283   -5547.3447   -5432.7789   -17889.861    15.424644    13.358088    27.190063    5602.3428 
   93000       92.985    357.90461    14.711571   -445.13915   -430.42758    -7333.068   -3584.0091   -4978.2306   -13436.964    15.424646    13.358091    27.190046    5602.3409 
   93500       93.485    366.50325    15.065016   -445.47398   -430.40896   -8125.5463   -1972.6385   -7284.6193   -15119.381    15.424649    13.358093    27.190028    5602.3391 
   94000       93.985    371.44205    15.268024   -445.65804   -430.39002   -8998.6155   -6167.8286   -5123.9594   -15704.059    15.424651    13.358095    27.190011    5602.3372 
   94500       94.485    366.71887    15.073879   -445.44496   -430.37108   -9213.8379   -4508.4747   -3767.7223   -19365.317    15.424654    13.358097    27.189993    5602.3353 
   95000       94.985    363.56509    14.944243   -445.29647   -430.35222   -6603.9736   -2784.4644   -2757.6325   -14269.824    15.424656    13.358099    27.189976    5602.3335 
   95500       95.485    363.64628    14.947581   -445.28054   -430.33296   -8551.0058   -2051.9478   -8272.3786   -15328.691    15.424658    13.358101    27.189958    5602.3316 
   96000       95.985    356.07843    14.636506   -444.94996   -430.31346   -7911.9595   -3426.8853   -3502.7144   -16806.279    15.424661    13.358103    27.189941    5602.3298 
   96500       96.485    350.60437    14.411496   -444.70576   -430.29427   -7968.1436    -2242.166   -4799.4709   -16862.794    15.424663    13.358105    27.189923    5602.3279 
   97000       96.985    333.11107    13.692439   -443.96687   -430.27443   -7791.8448   -3257.8418    -4104.076   -16013.617    15.424666    13.358107    27.189906    5602.3261 
   97500       97.485    365.40099    15.019708   -445.27453   -430.25483   -8308.1927   -4695.3484   -6202.2268   -14027.003    15.424668    13.358109    27.189888    5602.3242 
   98000       97.985    354.87512    14.587045   -444.82202   -430.23497   -7354.8445   -2134.9994   -7707.4665   -12222.068     15.42467    13.358112    27.189871    5602.3224 
   98500       98.485    363.23035    14.930484   -445.14577   -430.21528   -8088.5527   -3569.3804   -5259.7665   -15436.511    15.424673    13.358114    27.189853    5602.3205 
   99000       98.985    341.89072    14.053324   -444.24793    -430.1946   -7720.4817   -3213.6735   -4237.6278   -15710.144    15.424675    13.358116    27.189836    5602.3187 
   99500       99.485    375.09076    15.418003   -445.59339   -430.17538   -8703.2595   -4670.8142   -6723.9894   -14714.975    15.424678    13.358118    27.189818    5602.3168 
  100000       99.985    352.11913    14.473761    -444.6287   -430.15494   -7702.0055   -4867.2346   -4689.9167   -13548.865     15.42468     13.35812    27.189801     5602.315 
  100500      100.485    346.66661    14.249636   -444.38462   -430.13498   -6729.0894    -469.1167   -7693.2562   -12024.895    15.424682    13.358122    27.189783    5602.3131 
  101000      100.985    364.82331    14.995962   -445.11073   -430.11476   -8540.7477   -2284.1946   -6449.4989    -16888.55    15.424685    13.358124    27.189766    5602.3113 
  101500      101.485    354.96029    14.590546   -444.68552   -430.09497   -8111.3995   -4031.2044   -5865.5225   -14437.472    15.424687    13.358126    27.189748    5602.3094 
  102000      101.985    352.73235    14.498967   -444.57332   -430.07436   -8812.3027   -4195.3457   -7725.5261   -14516.036     15.42469    13.358128    27.189731    5602.3075 
  102500      102.485    358.42317    14.732886    -444.7865   -430.05361    -7859.863   -5359.0081   -6628.4412    -11592.14    15.424692     13.35813    27.189713    5602.3057 
  103000      102.985    363.42998     14.93869   -444.97177   -430.03308   -8690.5463    -4306.517   -9021.2927   -12743.829    15.424694    13.358133    27.189696    5602.3038 
  103500      103.485    366.99616    15.085277   -445.09759   -430.01231   -7910.2319   -3831.1196   -3742.1659    -16157.41    15.424697    13.358135    27.189678     5602.302 
  104000      103.985    348.20566    14.312898   -444.30413   -429.99123     -6591.12   -2337.6395   -5733.7476   -11701.973    15.424699    13.358137    27.189661    5602.3001 
  104500      104.485    350.66497    14.413987   -444.38498   -429.97099   -7584.4935   -4086.6113   -5824.3582   -12842.511    15.424702    13.358139    27.189643    5602.2983 
  105000      104.985    356.17124    14.640321   -444.59045   -429.95013   -7147.8372   -1280.9198   -3765.9957   -16396.596    15.424704    13.358141    27.189626    5602.2964 
  105500      105.485    366.19431    15.052317   -444.98158   -429.92927   -8459.1573   -4763.0392   -5778.8611   -14835.572    15.424706    13.358143    27.189608    5602.2946 
  106000      105.985    351.87189    14.463598   -444.37178   -429.90819   -8035.0618   -5515.7223   -4536.6991   -14052.764    15.424709    13.358145    27.189591    5602.2927 
  106500      106.485    370.15761    15.215227   -445.10292   -429.88769   -8727.1482   -3133.3015   -7797.5261   -15250.617    15.424711    13.358147    27.189573    5602.2909 
  107000      106.985    351.66562    14.455119   -444.32084   -429.86572   -9303.4412   -4060.7556   -6943.3864   -16906.182    15.424714    13.358149    27.189556     5602.289 
  107500      107.485    381.05452    15.663142   -445.50815     -429.845   -7692.6026   -3176.3814   -4456.9745   -15444.452    15.424716    13.358151    27.189538    5602.2872 
  108000      107.985    376.10626    15.459745    -445.2833   -429.82356   -9189.2552   -4209.1498   -4125.6236   -19232.992    15.424718    13.358154    27.189521    5602.2853 
  108500      108.485    369.28289    15.179272   -444.98154   -429.80227   -8059.0108   -4225.9653   -6380.5287   -13570.539    15.424721    13.358156    27.189503    5602.2835 
  109000      108.985    361.91674    14.876488   -444.65708   -429.78059   -7784.0947    -4300.205   -3539.0362   -15513.043    15.424723    13.358158    27.189486    5602.2816 
  109500      109.485    374.94493    15.412009   -445.17142   -429.75942   -7490.7927   -5133.9744   -6530.8941    -10807.51    15.424726     13.35816    27.189468    5602.2797 
  110000      109.985    355.87858    14.628291   -444.36583   -429.73754   -8079.3662   -2195.5217    -6453.695   -15588.882    15.424728    13.358162    27.189451    5602.2779 
  110500      110.485    369.29973    15.179964   -444.89554   -429.71557   -7375.1072   -3145.9862   -8532.8019   -10446.533     15.42473    13.358164    27.189433     5602.276 
  111000      110.985    373.14492     15.33802   -445.03245   -429.69443   -9491.6903   -5325.5277   -7380.9601   -15768.583    15.424733    13.358166    27.189416    5602.2742 
  111500      111.485    357.57395    14.697979    -444.3707   -429.67273   -7555.2624   -2519.8846   -4840.8413   -15305.061    15.424735    13.358168    27.189398    5602.2723 
  112000      111.985    342.87747    14.093885   -443.74472   -429.65084   -6827.1303   -3196.9908   -5229.2715   -12055.128    15.424738     13.35817    27.189381    5602.2705 
  112500      112.485    373.89837     15.36899   -444.99795   -429.62896     -8804.46   -5034.2563   -8971.1087   -12408.015     15.42474    13.358172    27.189363    5602.2686 
  113000      112.985     368.4621    15.145534   -444.75227   -429.60674   -8113.5114   -4277.8382   -5602.7764    -14459.92    15.424742    13.358175    27.189346    5602.2668 
  113500      113.485    352.37228    14.484166   -444.06993   -429.58576   -7620.0807   -799.65143   -4857.1498   -17203.441    15.424745    13.358177    27.189328    5602.2649 
  114000      113.985     363.0506    14.923095   -444.48685   -429.56376   -8000.3598   -2525.7313   -6317.4168   -15157.931    15.424747    13.358179    27.189311    5602.2631 
  114500      114.485     385.0764     15.82846   -445.37072   -429.54226     -9288.44   -7279.7792    -6195.631    -14389.91     15.42475    13.358181    27.189293    5602.2612 
  115000      114.985    350.61802    14.412058   -443.93171   -429.51965   -7217.8855   -3381.1016   -7543.1553     -10729.4    15.424752    13.358183    27.189276    5602.2594 
  115500      115.485    370.50397    15.229464     -444.727   -429.49753   -8762.0053    -5827.334   -5828.4922    -14630.19    15.424754    13.358185    27.189258    5602.2575 
  116000      115.985    349.78811    14.377944   -443.85365    -429.4757   -9060.0744   -3565.6263    -5192.825   -18421.772    15.424757    13.358187    27.189241    5602.2556 
  116500      116.485    376.08939    15.459052   -444.91251   -429.45345   -8358.5062   -4622.3576   -7506.4324   -12946.729    15.424759    13.358189    27.189223    5602.2538 
  117000      116.985    375.70303     15.44317   -444.87368   -429.43051   -7473.8714   -1070.2455   -6196.3412   -15155.027    15.424762    13.358191    27.189206    5602.2519 
  117500      117.485    376.64931    15.482067   -444.89083   -429.40876   -7623.7952   -3780.2595    -5284.912   -13806.214    15.424764    13.358193    27.189188    5602.2501 
  118000      117.985    378.90346    15.574723   -444.96112   -429.38639   -7472.2169   -3868.4624   -7036.6707   -11511.518    15.424766    13.358196    27.189171    5602.2482 
  118500      118.485    371.90007    15.286851   -444.65016   -429.36331    -8184.447   -5142.2045   -4135.4902   -15275.646    15.424769    13.358198    27.189153    5602.2464 
  119000      118.985    359.50651    14.777417   -444.11906   -429.34164   -6067.8852   -2673.1029   -7719.6431   -7810.9097    15.424771      13.3582    27.189136    5602.2445 
  119500      119.485    386.57412    15.890023   -445.20883   -429.31881   -7526.4849    -3116.868   -6842.6201   -12619.967    15.424774    13.358202    27.189118    5602.2427 
  120000      119.985    349.76208    14.376875   -443.67273   -429.29586   -7653.5027   -4709.4081   -6450.7123   -11800.388    15.424776    13.358204    27.189101    5602.2408 
  120500      120.485    360.44689    14.816071   -444.08955   -429.27348   -6778.3714    -2380.301    -3770.798   -14184.015    15.424778    13.358206    27.189083     5602.239 
  121000      120.985    372.05751    15.293322    -444.5439   -429.25057   -7201.9078   -1631.4557    -4857.331   -15116.937    15.424781    13.358208    27.189066    5602.2371 
  121500      121.485    384.80351    15.817243   -445.04624     -429.229   -8365.2239   -4182.1148   -6896.6233   -14016.934    15.424783     13.35821    27.189048    5602.2353 
  122000      121.985    363.80198    14.953981   -444.16023   -429.20625   -7432.1727   -2273.5329   -3581.4306   -16441.555    15.424786    13.358212    27.189031    5602.2334 
  122500      122.485    337.70961    13.881461   -443.06373   -429.18227    -8311.957   -4065.5415   -7269.4931   -13600.837    15.424788    13.358214    27.189013    5602.2316 
  123000      122.985    342.16127    14.064445   -443.22405   -429.15961   -6518.9158   -3138.0792   -2155.2846   -14263.384     15.42479    13.358217    27.188996    5602.2297 
  123500      123.485     367.9072    15.122725   -444.25993   -429.13721   -7317.6503   -2817.4066   -4490.7465   -14644.798    15.424793    13.358219    27.188978    5602.2278 
  124000      123.985    377.14401    15.502401   -444.61694   -429.11454   -6985.0943   -3583.7452   -6107.4356   -11264.102    15.424795    13.358221    27.188961     5602.226 
  124500      124.485    385.51118    15.846331   -444.93817   -429.09183   -7087.9041   -1797.1152   -4338.2436   -15128.354    15.424798    13.358223    27.188943    5602.2241 
  125000      124.985    357.75811    14.705549   -443.77413   -429.06858   -7704.7374   -4142.5553   -4801.7212   -14169.936      15.4248    13.358225    27.188926    5602.2223 
  125500      125.485    362.40021    14.896362    -443.9415   -429.04514   -6826.2333   -1321.9431   -3471.6958   -15685.061    15.424802    13.358227    27.188908    5602.2204 
  126000      125.985       379.02    15.579513   -444.60217   -429.02266   -7975.5577   -6428.6936   -1579.2287   -15918.751    15.424805    13.358229    27.188891    5602.2186 
  126500      126.485    373.46053    15.350993   -444.35028   -428.99929   -7624.1977   -2986.7544   -4363.7547   -15522.084    15.424807    13.358231    27.188873    5602.2167 
  127000      126.985    392.04321    16.114829   -445.09151   -428.97668   -7090.7844   -2722.4281   -5302.5817   -13247.343     15.42481    13.358233    27.188856    5602.2149 
  127500      127.485    367.28906    15.097316   -444.05068   -428.95336   -8288.4881   -3752.6977   -5400.8754   -15711.891    15.424812    13.358235    27.188838     5602.213 
  128000      127.985    377.10673    15.500869   -444.43164   -428.93078      -7606.3   -4596.3231   -5272.9296   -12949.647    15.424814    13.358238    27.188821    5602.2112 
  128500      128.485    385.58683    15.849441   -444.75687   -428.90743   -8163.9889   -1779.2127   -7492.8263   -15219.928    15.424817     13.35824    27.188803    5602.2093 
  129000      128.985    378.92225    15.575495   -444.45976   -428.88426   -6537.2626   -2538.0557   -3370.7514   -13702.981    15.424819    13.358242    27.188786    5602.2075 
  129500      129.485    360.61588    14.823017   -443.68386   -428.86085   -7296.2271   -1931.7071    -5353.782   -14603.192    15.424822    13.358244    27.188768    5602.2056 
  130000      129.985    406.50275    16.709184   -445.54769   -428.83851    -7802.904   -2678.7048    -5697.474   -15032.533    15.424824    13.358246    27.188751    5602.2038 
  130500      130.485    380.30051    15.632148   -444.44656   -428.81441   -6879.0117   -3605.6153   -4439.0057   -12592.414    15.424826    13.358248    27.188733    5602.2019 
  131000      130.985      365.672    15.030847   -443.82155    -428.7907   -7664.2016   -3615.2231   -5812.9597   -13564.422    15.424829     13.35825    27.188716       5602.2 
  131500      131.485    371.88105    15.286069   -444.05331   -428.76724   -8333.6084   -3695.6966   -6290.2724   -15014.856    15.424831    13.358252    27.188698    5602.1982 
  132000      131.985    372.75244    15.321887   -444.06604   -428.74415    -7607.634    -3656.236   -4010.4938   -15156.172    15.424834    13.358254    27.188681    5602.1963 
  132500      132.485    384.84333     15.81888   -444.54029   -428.72141   -6924.2711   -2725.9729   -7490.6571   -10556.183    15.424836    13.358256    27.188663    5602.1945 
  133000      132.985    373.27401    15.343326   -444.04043    -428.6971   -7347.4454   -3582.7289   -6260.0872    -12199.52    15.424838    13.358259    27.188646    5602.1926 
  133500      133.485    381.74057    15.691342    -444.3654   -428.67405   -6910.3202   -3422.8593   -5456.0464   -11852.055    15.424841    13.358261    27.188628    5602.1908 
  134000      133.985    383.43797    15.761113   -444.41123   -428.65012    -5440.393     1587.033   -4994.6087   -12913.603    15.424843    13.358263    27.188611    5602.1889 
  134500      134.485    371.49212    15.270082   -443.89654   -428.62645   -7624.8573   -2500.0156    -5167.325   -15207.231    15.424846    13.358265    27.188593    5602.1871 
  135000      134.985    374.35547    15.387779   -443.99069   -428.60291   -6920.4291   -621.07621   -5870.1436   -14270.067    15.424848    13.358267    27.188576    5602.1852 
  135500      135.485    375.94142    15.452969   -444.03219   -428.57922   -7015.6649   -3905.2057   -5685.6795   -11456.109     15.42485    13.358269    27.188558    5602.1834 
  136000      135.985    381.73777    15.691226   -444.24667   -428.55544   -7004.1132   -446.18116   -6336.1361   -14230.022    15.424853    13.358271    27.188541    5602.1815 
  136500      136.485    380.80603    15.652928    -444.1851   -428.53217   -6673.4199   -2192.6122   -2877.1385   -14950.509    15.424855    13.358273    27.188523    5602.1797 
  137000      136.985    386.42928     15.88407   -444.39248   -428.50841   -6682.2011   -3040.9298   -5356.1884   -11649.485    15.424858    13.358275    27.188506    5602.1778 
  137500      137.485    387.50874    15.928441   -444.41241   -428.48397   -6129.8392    -2022.876   -1546.0286   -14820.613     15.42486    13.358277    27.188488    5602.1759 
  138000      137.985    372.48727    15.310987   -443.77096   -428.45998   -8301.6622   -5766.7794   -5350.0837   -13788.124    15.424862     13.35828    27.188471    5602.1741 
  138500      138.485    386.26725    15.877409    -444.3141   -428.43669   -7501.3022    -5091.814   -4988.4803   -12423.612    15.424865    13.358282    27.188453    5602.1722 
  139000      138.985    389.03307    15.991098   -444.40394   -428.41284   -6604.6718   -1806.8209   -4452.1726   -13555.022    15.424867    13.358284    27.188436    5602.1704 
  139500      139.485    360.73513    14.827919   -443.21647   -428.38855   -6747.1375   -4053.7242   -6457.6201   -9730.0684     15.42487    13.358286    27.188418    5602.1685 
  140000      139.985    368.18981    15.134341   -443.49927   -428.36493   -7109.0089   -1178.3873   -6119.3639   -14029.276    15.424872    13.358288    27.188401    5602.1667 
  140500      140.485    384.34368    15.798342   -444.14009   -428.34174   -6937.7018   -2766.5988   -5794.3325   -12252.174    15.424874     13.35829    27.188383    5602.1648 
  141000      140.985    366.28683     15.05612   -443.37335   -428.31723   -7277.1221    -3302.644   -3314.0333   -15214.689    15.424877    13.358292    27.188366     5602.163 
  141500      141.485    387.89306    15.944238   -444.23801   -428.29378   -7122.5387   -3145.2058   -3913.5262   -14308.884    15.424879    13.358294    27.188348    5602.1611 
  142000      141.985    362.45575    14.898645   -443.16813   -428.26949   -6781.5119   -4387.7295   -4131.7761    -11825.03    15.424882    13.358296    27.188331    5602.1593 
  142500      142.485    384.61848    15.809637   -444.05527   -428.24563   -7368.2218   -1448.1486    -5862.415   -14794.102    15.424884    13.358298    27.188313    5602.1574 
  143000      142.985    372.57886    15.314752    -443.5368   -428.22205   -7000.9125   -1674.3794    -4769.938    -14558.42    15.424886    13.358301    27.188296    5602.1556 
  143500      143.485    384.88518      15.8206   -444.01823   -428.19763   -7678.4524   -3780.1221   -4130.7707   -15124.464    15.424889    13.358303    27.188278    5602.1537 
  144000      143.985    378.51852      15.5589   -443.73204   -428.17314   -7117.8843    -2430.347   -1527.5864   -17395.719    15.424891    13.358305    27.188261    5602.1519 
  144500      144.485    383.26622    15.754053   -443.90297   -428.14892    -7368.258   -1586.1826   -5655.7713    -14862.82    15.424894    13.358307    27.188243      5602.15 
  145000      144.985    371.09892     15.25392   -443.37857   -428.12466   -8022.8708   -3317.6155    -2884.923   -17866.074    15.424896    13.358309    27.188226    5602.1481 
  145500      145.485    381.14739    15.666959   -443.76782   -428.10086   -5818.4937    -2357.434   -6411.6438   -8686.4032    15.424898    13.358311    27.188208    5602.1463 
  146000      145.985    387.42105    15.924836   -444.00078   -428.07594   -7844.0716   -2378.7121    -4249.394   -16904.109    15.424901    13.358313    27.188191    5602.1444 
  146500      146.485     386.3848    15.882241   -443.93446   -428.05222   -6513.0569   -2428.1996   -4536.9751   -12573.996    15.424903    13.358315    27.188173    5602.1426 
  147000      146.985    393.59158    16.178474   -444.20774   -428.02927   -7320.5113   -3110.1521   -5510.2079   -13341.174    15.424906    13.358317    27.188156    5602.1407 
  147500      147.485    383.61955    15.768577   -443.77322   -428.00465   -7235.9804   -2735.4788   -4881.3969   -14091.065    15.424908    13.358319    27.188138    5602.1389 
  148000      147.985    378.57897    15.561385   -443.54153   -427.98014   -6279.2788   -1530.4296   -6187.9747   -11119.432     15.42491    13.358322    27.188121     5602.137 
  148500      148.485    401.44186    16.501158   -444.45778   -427.95662   -7680.6153   -3313.9282   -6243.9631   -13483.955    15.424913    13.358324    27.188103    5602.1352 
  149000      148.985    384.11271    15.788848   -443.72107   -427.93222   -7267.4667   -3273.2454   -4038.8356   -14490.319    15.424915    13.358326    27.188086    5602.1333 
  149500      149.485     397.1731    16.325692   -444.23361   -427.90792   -7897.5876   -2651.6104   -5800.7678   -15240.385    15.424918    13.358328    27.188068    5602.1315 
  150000      149.985    377.13595     15.50207   -443.38554   -427.88347   -7097.2961   -594.26524   -5511.5422   -15186.081     15.42492     13.35833    27.188051    5602.1296 
  150500      150.485    413.18482    16.983849   -444.84349   -427.85964   -7555.8764   -3711.0827    -5188.811   -13767.736    15.424922    13.358332    27.188033    5602.1278 
  151000      150.985    390.06858    16.033662   -443.86828   -427.83461   -6383.2481   -728.04565    -5185.119    -13236.58    15.424925    13.358334    27.188016    5602.1259 
  151500      151.485    374.30372    15.385652   -443.19512   -427.80947   -6636.9652   -3879.8676   -4082.5524   -11948.476    15.424927    13.358336    27.187998    5602.1241 
  152000      151.985    406.61729    16.713892   -444.49936   -427.78547   -7702.0063    -5671.575   -2707.6518   -14726.792     15.42493    13.358338    27.187981    5602.1222 
  152500      152.485    377.25824    15.507096   -443.26789    -427.7608   -5148.0716    -1393.134   -489.19681   -13561.884    15.424932     13.35834    27.187963    5602.1203 
  153000      152.985    386.48019    15.886163   -443.62262   -427.73646   -6824.3144   -4489.0392   -3432.4063   -12551.498    15.424934    13.358343    27.187946    5602.1185 
  153500      153.485    408.22119     16.77982   -444.49214   -427.71232   -7702.3101   -2754.6801   -7141.3431   -13210.907    15.424937    13.358345    27.187928    5602.1166 
  154000      153.985     368.8875     15.16302   -442.85026   -427.68724   -6665.0662   -1834.1494   -4132.2236   -14028.826    15.424939    13.358347    27.187911    5602.1148 
  154500      154.485    383.24229    15.753069   -443.41507     -427.662   -6946.8431   -1023.3225    -5900.313   -13916.894    15.424942    13.358349    27.187893    5602.1129 
  155000      154.985    377.64803    15.523119    -443.1607   -427.63758   -6222.0456   -3318.7529   -4981.2836     -10366.1    15.424944    13.358351    27.187876    5602.1111 
  155500      155.485    385.89802    15.862232   -443.47483    -427.6126   -6767.7082   -3013.3018   -5898.3693   -11391.454    15.424946    13.358353    27.187858    5602.1092 
  156000      155.985    392.97537    16.153145   -443.74084    -427.5877   -6751.4959   -1237.3493    -4043.946   -14973.192    15.424949    13.358355    27.187841    5602.1074 
  156500      156.485    411.26542    16.904952   -444.46811   -427.56316   -6067.5361   -1502.3961    -3311.261   -13388.951    15.424951    13.358357    27.187823    5602.1055 
  157000      156.985    379.54164    15.600955   -443.13949   -427.53854   -7309.5522   -5110.4426   -5045.9535   -11772.261    15.424954    13.358359    27.187806    5602.1037 
  157500      157.485    390.12527    16.035992   -443.54992   -427.51393   -6538.6143   -2900.1879   -4991.5498   -11724.105    15.424956    13.358361    27.187788    5602.1018 
  158000      157.985    391.60512    16.096821   -443.58585   -427.48903   -6919.6319   -3637.2205   -3390.5144   -13731.161    15.424958    13.358364    27.187771       5602.1 
  158500      158.485    397.17269    16.325675   -443.78999   -427.46431   -7344.6118    390.89076   -7371.0564    -15053.67    15.424961    13.358366    27.187753    5602.0981 
  159000      158.985    400.35278    16.456391   -443.89559    -427.4392   -5986.1597   -3643.3957   -1988.3708   -12326.713    15.424963    13.358368    27.187736    5602.0962 
  159500      159.485     404.5144    16.627454   -444.04162   -427.41417   -8035.7357   -2722.4757   -5166.4616    -16218.27    15.424966     13.35837    27.187718    5602.0944 
  160000      159.985    388.31465    15.961567   -443.35116   -427.38959   -5123.6859   -274.14684   -2906.4817   -12190.429    15.424968    13.358372    27.187701    5602.0925 
  160500      160.485    398.18361    16.367228   -443.73228   -427.36505   -6053.5138   -1047.1323   -3427.6718   -13685.737     15.42497    13.358374    27.187683    5602.0907 
  161000      160.985    379.81068    15.612014   -442.95221   -427.34019   -5842.0581   -1633.4338   -3290.1883   -12602.552    15.424973    13.358376    27.187666    5602.0888 
  161500      161.485    396.71653    16.306924    -443.6226   -427.31568   -7212.7006   -1834.7538   -4817.8367   -14985.511    15.424975    13.358378    27.187648     5602.087 
  162000      161.985    385.37669    15.840803   -443.13133   -427.29053   -5764.5323   -1111.1495   -862.05654   -15320.391    15.424978     13.35838    27.187631    5602.0851 
  162500      162.485    391.26709    16.082927   -443.34876   -427.26583   -6969.0398   -5573.9986   -4879.4214   -10453.699     15.42498    13.358382    27.187613    5602.0833 
  163000      162.985    400.37373    16.457252   -443.69816    -427.2409   -6485.6493   -2530.1234   -3575.0236   -13351.801    15.424982    13.358385    27.187596    5602.0814 
  163500      163.485    400.81867    16.475542   -443.69175   -427.21621   -6905.1315   -3414.4386   -4059.1609   -13241.795    15.424985    13.358387    27.187578    5602.0796 
  164000      163.985    394.13743    16.200911   -443.39167   -427.19076    -6796.672    -2573.573   -3559.5776   -14256.865    15.424987    13.358389    27.187561    5602.0777 
  164500      164.485    423.93354    17.425672   -444.59247   -427.16679   -7570.1532   -2828.2679   -4742.2822   -15139.909     15.42499    13.358391    27.187543    5602.0759 
  165000      164.985    399.32352    16.414084   -443.55452   -427.14044   -6635.9408   -4185.3896   -5018.5425    -10703.89    15.424992    13.358393    27.187526     5602.074 
  165500      165.485    378.96232    15.577142   -442.69286   -427.11572   -6076.8776   -3329.2448   -2943.5134   -11957.875    15.424994    13.358395    27.187508    5602.0721 
  166000      165.985    402.66126    16.551281   -443.64279   -427.09151   -6854.1272   -2717.2458   -5755.8299   -12089.306    15.424997    13.358397    27.187491    5602.0703 
  166500      166.485    398.08581    16.363208    -443.4292   -427.06599   -5496.4994   -178.42705   -4310.8239   -12000.247    15.424999    13.358399    27.187473    5602.0684 
  167000      166.985    414.90446    17.054534    -444.0958   -427.04127   -5763.9667   -2550.1611   -4257.1316   -10484.607    15.425002    13.358401    27.187456    5602.0666 
  167500      167.485    401.87086    16.518792   -443.53466   -427.01587   -6479.2761   -2279.2764   -3320.4072   -13838.145    15.425004    13.358403    27.187438    5602.0647 
  168000      167.985    401.90253    16.520093   -443.50988   -426.98979   -6227.7487    -2607.356   -3995.3477   -12080.542    15.425006    13.358406    27.187421    5602.0629 
  168500      168.485    418.76618    17.213269   -444.17831   -426.96504   -7035.2887   -1173.1341   -6291.5031   -13641.229    15.425009    13.358408    27.187403     5602.061 
  169000      168.985      387.649    15.934206   -442.87332   -426.93911   -7550.9765   -3451.0995   -3634.4482   -15567.382    15.425011     13.35841    27.187386    5602.0592 
  169500      169.485    420.96567    17.303678   -444.21813   -426.91445   -6079.8896   -2253.7042   -3680.1464   -12305.818    15.425014    13.358412    27.187368    5602.0573 
  170000      169.985    403.79228    16.597771   -443.48687    -426.8891   -5176.0713   -391.81193    -1658.519   -13477.883    15.425016    13.358414    27.187351    5602.0555 
  170500      170.485    389.80906    16.022994   -442.88717   -426.86418   -6658.9578   -2225.3787   -5049.2894   -12702.205    15.425018    13.358416    27.187333    5602.0536 
  171000      170.985    418.33949     17.19573   -444.03449   -426.83876   -6564.5564   -1732.6888   -4918.2969   -13042.683    15.425021    13.358418    27.187316    5602.0518 
  171500      171.485    391.60242     16.09671   -442.90974   -426.81303   -6316.0727   -2574.3823   -4352.4139   -12021.422    15.425023     13.35842    27.187298    5602.0499 
  172000      171.985     382.9732    15.742009   -442.52925   -426.78724   -6312.5253   -3446.5126   -3889.4137   -11601.649    15.425026    13.358422    27.187281    5602.0481 
  172500      172.485    374.30279    15.385613   -442.14702   -426.76141   -6625.6769   -4283.6125   -2523.5083    -13069.91    15.425028    13.358424    27.187263    5602.0462 
  173000      172.985    398.37861    16.375244   -443.11224     -426.737    -7414.383   -4020.7549   -3766.8073   -14455.587     15.42503    13.358427    27.187246    5602.0443 
  173500      173.485    368.24451     15.13659   -441.84788   -426.71129   -6799.6998   -2751.8389   -5230.0434   -12417.217    15.425033    13.358429    27.187228    5602.0425 
  174000      173.985    398.56354    16.382845   -443.06941   -426.68656    -6220.381   -2955.7115    -5481.097   -10224.335    15.425035    13.358431    27.187211    5602.0406 
  174500      174.485    404.78995     16.63878   -443.29921   -426.66043   -6547.6701   -3528.1646   -3193.3968   -12921.449    15.425038    13.358433    27.187193    5602.0388 
  175000      174.985    397.02269    16.319509   -442.95424   -426.63473   -7039.7222   -2988.6798   -5434.5193   -12695.968     15.42504    13.358435    27.187176    5602.0369 
  175500      175.485    400.59411    16.466311   -443.07542   -426.60911   -5976.6974   -1931.1895    -5018.262   -10980.641    15.425042    13.358437    27.187158    5602.0351 
  176000      175.985    423.79586    17.420013   -444.00378   -426.58377    -6018.361   -2411.9933   -4703.8218   -10939.268    15.425045    13.358439    27.187141    5602.0332 
  176500      176.485    421.57825    17.328858   -443.88657   -426.55771   -5741.8533   -5188.0475   -2749.6085   -9287.9039    15.425047    13.358441    27.187123    5602.0314 
  177000      176.985    394.34938    16.209623   -442.74121   -426.53159   -5815.3219   -1698.8126   -5381.7096   -10365.444     15.42505    13.358443    27.187106    5602.0295 
  177500      177.485    399.16243    16.407462   -442.91327    -426.5058   -6261.6391   -1538.8523   -5909.0743   -11336.991    15.425052    13.358445    27.187088    5602.0277 
  178000      177.985    380.03857    15.621382   -442.10065   -426.47926   -6600.2181   -1562.8113   -4067.2234    -14170.62    15.425054    13.358448    27.187071    5602.0258 
  178500      178.485    418.68164    17.209794   -443.66407   -426.45428   -6363.9828   -2008.7623   -4829.9994   -12253.187    15.425057     13.35845    27.187053     5602.024 
  179000      178.985    389.68792    16.018015   -442.44589   -426.42788   -6014.8011   -4137.4165   -4061.9355   -9845.0512    15.425059    13.358452    27.187036    5602.0221 
  179500      179.485    396.35817    16.292194    -442.6948   -426.40261   -5823.0112   -2029.0198   -3863.0437    -11576.97    15.425062    13.358454    27.187018    5602.0202 
  180000      179.985    412.69333    16.963646   -443.34043   -426.37679   -6494.9104   -1817.0675    -2839.224    -14828.44    15.425064    13.358456    27.187001    5602.0184 
  180500      180.485     387.6253    15.933232   -442.28393   -426.35069   -6573.5519   -3188.4371   -6215.5582   -10316.661    15.425066    13.358458    27.186983    5602.0165 
  181000      180.985    396.76125    16.308762   -442.63341   -426.32465   -6766.6357   -3279.7449   -5778.3965   -11241.766    15.425069     13.35846    27.186966    5602.0147 
  181500      181.485    399.05604    16.403089   -442.70184   -426.29875   -6728.5365    -654.7223   -3488.4763   -16042.411    15.425071    13.358462    27.186948    5602.0128 
  182000      181.985    407.99909    16.770691   -443.04343   -426.27274   -7161.3556   -2933.6121   -6864.8068   -11685.648    15.425074    13.358464    27.186931     5602.011 
  182500      182.485    416.04775    17.101529   -443.34906   -426.24753   -6018.8467     227.6308   -7956.7061   -10327.465    15.425076    13.358466    27.186913    5602.0091 
  183000      182.985    418.55305    17.204509   -443.42544   -426.22093    -7198.548   -3821.3041   -7881.5142   -9892.8257    15.425078    13.358469    27.186896    5602.0073 
  183500      183.485    392.54014    16.135255   -442.33003   -426.19478   -6359.9375   -3231.0775   -4954.3691   -10894.366    15.425081    13.358471    27.186878    5602.0054 
  184000      183.985    404.14552    16.612291    -442.7812   -426.16891   -5903.6791   -1977.5154   -4101.6726   -11631.849    15.425083    13.358473    27.186861    5602.0036 
  184500      184.485    393.03541    16.155613   -442.29808   -426.14247    -5193.879   -2572.9608   -4147.4369   -8861.2393    15.425086    13.358475    27.186843    5602.0017 
  185000      184.985    408.12322    16.775793   -442.89238   -426.11659   -5246.0962   -3365.1137   -4978.0802   -7395.0947    15.425088    13.358477    27.186826    5601.9999 
  185500      185.485     397.2821    16.330172   -442.42083   -426.09066   -6098.9651   -3358.2099   -2718.9324   -12219.753     15.42509    13.358479    27.186808     5601.998 
  186000      185.985    421.67851     17.33298   -443.39805   -426.06507   -6354.6445   -3654.4282   -1681.3204   -13728.185    15.425093    13.358481    27.186791    5601.9961 
  186500      186.485    405.97823    16.687624   -442.72664   -426.03902   -6685.8138   -2302.4336   -4302.4464   -13452.561    15.425095    13.358483    27.186773    5601.9943 
  187000      186.985     422.6462    17.372756   -443.38598   -426.01322   -7681.5679   -3656.2618   -5897.0214   -13491.421    15.425098    13.358485    27.186756    5601.9924 
  187500      187.485    398.63182    16.385652   -442.37218   -425.98653   -6519.8583   -1070.5597   -5634.0556    -12854.96      15.4251    13.358487    27.186738    5601.9906 
  188000      187.985    399.49454    16.421114   -442.38149   -425.96038   -6750.0585   -2849.5837   -6195.3786   -11205.213    15.425102     13.35849    27.186721    5601.9887 
  188500      188.485    419.91196    17.260366   -443.19499   -425.93462   -6168.2127   -1876.6022   -5174.0646   -11453.971    15.425105    13.358492    27.186703    5601.9869 
  189000      188.985    413.80138    17.009192   -442.91799   -425.90879   -7524.4227   -2623.8968    -5153.501    -14795.87    15.425107    13.358494    27.186686     5601.985 
  189500      189.485    419.83873    17.257356   -443.14027   -425.88291   -6508.1971   -5252.9789   -2714.8135   -11556.799     15.42511    13.358496    27.186668    5601.9832 
  190000      189.985    415.04345    17.060247   -442.91735   -425.85711   -5758.0736    -4091.574   -1571.4807   -11611.166    15.425112    13.358498    27.186651    5601.9813 
  190500      190.485    397.92361    16.356541   -442.18631   -425.82976   -5649.3261   -2752.9926   -2110.6715   -12084.314    15.425114      13.3585    27.186633    5601.9795 
  191000      190.985    394.46095    16.214209   -442.01726   -425.80305   -6105.1464   -1994.9558   -4783.4626   -11537.021    15.425117    13.358502    27.186616    5601.9776 
  191500      191.485    408.55857    16.793688   -442.57133   -425.77764   -6187.5212   -5090.4968   -3708.0676   -9763.9992    15.425119    13.358504    27.186598    5601.9758 
  192000      191.985    422.72672    17.376066   -443.12755   -425.75149      -6171.9   -1707.5464   -3965.7581   -12842.395    15.425122    13.358506    27.186581    5601.9739 
  192500      192.485    393.09385    16.158015   -441.88313   -425.72511   -5778.3406   -4076.4689   -4011.6439   -9246.9089    15.425124    13.358508    27.186563    5601.9721 
  193000      192.985    404.40451    16.622936   -442.32192   -425.69898   -6306.4045   -2006.5711   -3473.2719    -13439.37    15.425126    13.358511    27.186546    5601.9702 
  193500      193.485    418.15848     17.18829   -442.86032   -425.67203   -6878.5599   -3057.6034   -4048.5175   -13529.559    15.425129    13.358513    27.186528    5601.9683 
  194000      193.985     398.8724    16.395541   -442.04149   -425.64595   -5028.9974   -2666.0744    -3202.139   -9218.7788    15.425131    13.358515    27.186511    5601.9665 
  194500      194.485    426.75906    17.541814   -443.16187   -425.62006   -6408.1445   -2425.0352   -4426.1791   -12373.219    15.425134    13.358517    27.186493    5601.9646 
  195000      194.985    420.36316    17.278913   -442.87167   -425.59276    -7170.817   -2135.1885    -4749.636   -14627.626    15.425136    13.358519    27.186476    5601.9628 
  195500      195.485    427.22974    17.561161   -443.12764   -425.56648   -5908.4381   -1248.0902   -4502.5607   -11974.663    15.425138    13.358521    27.186458    5601.9609 
  196000      195.985    426.69424     17.53915   -443.07928   -425.54013   -6969.2754   -686.38916   -4221.9242   -15999.513    15.425141    13.358523    27.186441    5601.9591 
  196500      196.485    447.61447     18.39907   -443.91275   -425.51368   -6075.6612   -992.61989    -2474.471   -14759.893    15.425143    13.358525    27.186423    5601.9572 
  197000      196.985    404.12435    16.611421   -442.09769   -425.48627    -5856.008   -7238.2197   -348.38969   -9981.4147    15.425146    13.358527    27.186406    5601.9554 
  197500      197.485     414.8888    17.053891   -442.51386   -425.45997   -5423.4561   -644.76611   -2001.2461   -13624.356    15.425148    13.358529    27.186388    5601.9535 
  198000      197.985    428.45214    17.611408   -443.04591    -425.4345   -5982.9469   -4145.6473    -180.3706   -13622.823     15.42515    13.358532    27.186371    5601.9517 
  198500      198.485    399.21244    16.409518   -441.81656   -425.40704   -5095.4074   -3752.7106   -1552.6774   -9980.8342    15.425153    13.358534    27.186353    5601.9498 
  199000      198.985    395.68142    16.264376   -441.64402   -425.37965   -4741.3306   -2699.5735    1029.6225   -12554.041    15.425155    13.358536    27.186336     5601.948 
  199500      199.485    425.77768    17.501475   -442.85549   -425.35402   -5251.6586   -4450.5544    1981.2186    -13285.64    15.425158    13.358538    27.186318    5601.9461 
  200000      199.985    408.86368     16.80623   -442.13218   -425.32595   -5983.4866   -4529.0413    1034.2445   -14455.663     15.42516     13.35854    27.186301    5601.9442 
  200500      200.485    424.54619    17.450855   -442.75041   -425.29955   -6538.1828   -4717.0716   -2118.0119   -12779.465    15.425162    13.358542    27.186283    5601.9424 
  201000      200.985    420.36145    17.278842   -442.55143   -425.27259   -5395.3265   -4696.9636   -1588.4369    -9900.579    15.425165    13.358544    27.186266    5601.9405 
  201500      201.485    429.84045    17.668474   -442.91461   -425.24613   -6415.6979   -6545.6334    1099.6087   -13801.069    15.425167    13.358546    27.186248    5601.9387 
  202000      201.985    417.63663    17.166839   -442.38591   -425.21907   -5178.0976    -1811.927   -786.58888   -12935.777     15.42517    13.358548    27.186231    5601.9368 
  202500      202.485    400.17948    16.449268   -441.64139   -425.19212   -5069.1098   -2681.8932    923.03255   -13448.469    15.425172     13.35855    27.186213     5601.935 
  203000      202.985    422.47242    17.365613   -442.53139   -425.16578   -6683.5895   -4498.9698   -1686.7126   -13865.086    15.425174    13.358553    27.186196    5601.9331 
  203500      203.485     418.4435    17.200005   -442.33739   -425.13739   -5813.3098    -3787.175   -3500.3813   -10152.373    15.425177    13.358555    27.186178    5601.9313 
  204000      203.985    416.28358    17.111222   -442.22192    -425.1107   -6164.9061   -5103.0326    764.63272   -14156.318    15.425179    13.358557    27.186161    5601.9294 
  204500      204.485     399.3468    16.415041   -441.49882   -425.08378   -5060.2333    -5571.555   -497.25966   -9111.8854    15.425182    13.358559    27.186143    5601.9276 
  205000      204.985    394.62552    16.220974   -441.27726   -425.05629   -5649.2741   -3298.0519   -59.581309   -13590.189    15.425184    13.358561    27.186126    5601.9257 
  205500      205.485    417.27391     17.15193   -442.18177   -425.02984   -5033.2707   -3569.7457   -2097.5237   -9432.5429    15.425186    13.358563    27.186108    5601.9239 
  206000      205.985    437.75385    17.993752    -442.9964   -425.00265   -5977.3676   -3945.9944   -3286.2428   -10699.866    15.425189    13.358565    27.186091     5601.922 
  206500      206.485    410.71988    16.882528   -441.85801   -424.97548   -6947.7192   -3475.8171   -2229.4632   -15137.877    15.425191    13.358567    27.186073    5601.9201 
  207000      206.985    450.00881    18.497489   -443.44605   -424.94856   -5343.9024   -3892.9243   -2483.8868   -9654.8961    15.425194    13.358569    27.186056    5601.9183 
  207500      207.485    402.87868    16.560218   -441.48195   -424.92174   -4059.7584   -3521.4427    9.3143566   -8667.1469    15.425196    13.358571    27.186038    5601.9164 
  208000      207.985    417.65525    17.167605   -442.06194   -424.89434   -4902.4276   -1906.4908    11.234235   -12812.026    15.425198    13.358574    27.186021    5601.9146 
  208500      208.485    433.00217    17.798436   -442.66587   -424.86743   -6094.6067   -3052.3053   -621.28208   -14610.233    15.425201    13.358576    27.186003    5601.9127 
  209000      208.985    435.70874    17.909689   -442.75045   -424.84077   -7131.1096   -6290.2583   -5102.0573   -10001.013    15.425203    13.358578    27.185986    5601.9109 
  209500      209.485    407.27667    16.740996   -441.55448   -424.81349   -4156.5526   -597.37473    -2085.117   -9787.1661    15.425206     13.35858    27.185968     5601.909 
  210000      209.985    413.50694     16.99709   -441.78372   -424.78663    -4782.923   -3575.2526   -325.23948   -10448.277    15.425208    13.358582    27.185951    5601.9072 
  210500      210.485    438.38894    18.019857   -442.77942   -424.75956   -5567.4056   -1758.3028   -167.90444    -14776.01     15.42521    13.358584    27.185933    5601.9053 
  211000      210.985    407.07685    16.732783   -441.46428    -424.7315   -3639.2533   -2990.1315   -1344.5202   -6583.1082    15.425213    13.358586    27.185916    5601.9035 
  211500      211.485    445.64583     18.31815   -443.02369   -424.70554   -5890.1856   -3806.2542   -2040.5959   -11823.707    15.425215    13.358588    27.185898    5601.9016 
  212000      211.985    435.04635    17.882461   -442.56013   -424.67767    -6093.939    732.41341    -498.8085   -18515.422    15.425218     13.35859    27.185881    5601.8998 
[...]
  948500      948.485    604.29406    24.839342   -438.29081   -413.45147   -489.59775   -234.45916    3654.9491   -4889.2832    15.428753    13.361684    27.160103    5599.1669 
  949000      948.985    560.90279    23.055755   -436.50354   -413.44779    -1757.788   -3763.6959    5252.7961   -6762.4642    15.428755    13.361686    27.160086    5599.1651 
  949500      949.485    589.60332    24.235483    -437.6801   -413.44462   -469.41078   -203.02787    6856.5339   -8061.7383    15.428758    13.361688    27.160068    5599.1632 
  950000      949.985    564.85333    23.218141   -436.65868   -413.44054   -232.76421    378.75047   -618.91609   -458.12701     15.42876     13.36169    27.160051    5599.1614 
  950500      950.485    537.37552    22.088674   -435.52329   -413.43462    1231.9077    2645.1675    4970.2397   -3919.6843    15.428762    13.361692    27.160033    5599.1595 
  951000      950.985    567.52351    23.327899   -436.76054   -413.43264   -144.24199    3631.4551   -545.65943   -3518.5217    15.428765    13.361694    27.160016    5599.1577 
  951500      951.485    536.91816    22.069874   -435.49834   -413.42846    65.704151    2047.7024    2957.5816   -4808.1715    15.428767    13.361696    27.159998    5599.1558 
  952000      951.985    551.93561    22.687162   -436.11051   -413.42335   -348.60783     1127.334    2847.4133   -5020.5707     15.42877    13.361698    27.159981    5599.1539 
  952500      952.485    562.48373     23.12074   -436.53966   -413.41892    -997.6159   -1196.2574    3620.3231   -5416.9134    15.428772      13.3617    27.159963    5599.1521 
  953000      952.985    574.12999    23.599456   -437.01419   -413.41474   -1296.1038   -2849.9412    4027.8546   -5066.2248    15.428774    13.361703    27.159946    5599.1502 
  953500      953.485    566.29594     23.27744   -436.68916   -413.41172   -53.393018    1277.4229    1547.7227   -2985.3246    15.428777    13.361705    27.159928    5599.1484 
  954000      953.985    553.88677    22.767364   -436.17498   -413.40761    1055.9371    3539.7572    2309.1375   -2681.0835    15.428779    13.361707    27.159911    5599.1465 
  954500      954.485    583.84605    23.998832   -437.40312   -413.40429   -1131.9564    2770.4213    562.82956   -6729.1201    15.428782    13.361709    27.159893    5599.1447 
  955000      954.985    579.06057    23.802126   -437.20307   -413.40095    452.70464   -925.73073    4486.1632   -2202.3185    15.428784    13.361711    27.159876    5599.1428 
  955500      955.485    553.41941    22.748153   -436.14323   -413.39508    1123.9497    5234.3076    3498.4562   -5360.9147    15.428786    13.361713    27.159858     5599.141 
  956000      955.985    557.85258    22.930378   -436.32036   -413.38999    880.65265    2592.5548    3045.8224   -2996.4193    15.428789    13.361715    27.159841    5599.1391 
  956500      956.485    555.62206    22.838693   -436.22373   -413.38504    836.43143    2225.2268    996.61489   -712.54737    15.428791    13.361717    27.159823    5599.1372 
  957000      956.985    594.55005    24.438817   -437.81986   -413.38105   -1190.9969   -188.88614    448.96975   -3833.0744    15.428794    13.361719    27.159806    5599.1354 
  957500      957.485      586.518    24.108662   -437.48676    -413.3781     -738.431    63.922626    692.21041    -2971.426    15.428796    13.361721    27.159788    5599.1335 
  958000      957.985     558.9178    22.974163   -436.34518   -413.37102   -904.25871    1549.5047   -416.05368   -3846.2272    15.428798    13.361724    27.159771    5599.1317 
  958500      958.485    556.20853    22.862799   -436.23071   -413.36791    570.59488    2943.6487   -197.61448   -1034.2496    15.428801    13.361726    27.159753    5599.1298 
  959000      958.985    559.89467    23.014317   -436.37666   -413.36234   -1152.5281    131.75112   -4700.9907    1111.6552    15.428803    13.361728    27.159736     5599.128 
  959500      959.485    558.92668    22.974528   -436.33159   -413.35707   -731.68632   -1001.0505    3195.8647   -4389.8732    15.428806     13.36173    27.159718    5599.1261 
  960000      959.985    535.82773    22.025052   -435.37861   -413.35356   -446.18005    2472.4552    5690.3548   -9501.3502    15.428808    13.361732    27.159701    5599.1242 
  960500      960.485     595.5529    24.480039   -437.82951   -413.34947   -1038.4236    1814.8028    860.68272   -5790.7565     15.42881    13.361734    27.159683    5599.1224 
  961000      960.985    553.08084    22.734236   -436.07895   -413.34471   -725.38455     225.2794    812.70114   -3214.1342    15.428813    13.361736    27.159666    5599.1205 
  961500      961.485    589.41386    24.227695    -437.5685    -413.3408   -543.24424    1581.6638    -779.4875    -2431.909    15.428815    13.361738    27.159648    5599.1187 
  962000      961.985    544.58542    22.385035   -435.72073    -413.3357    441.93902     2087.885    2644.2668   -3406.3347    15.428818     13.36174    27.159631    5599.1168 
  962500      962.485    564.81933    23.216744   -436.54689   -413.33015   -296.47988   -308.06002    887.63822   -1469.0178     15.42882    13.361742    27.159613     5599.115 
  963000      962.985    555.84653    22.847919   -436.17261   -413.32469   -269.01072    -117.7621    1568.0417   -2257.3117    15.428822    13.361745    27.159596    5599.1131 
  963500      963.485    553.64416    22.757392   -436.07661   -413.31922    946.10105     859.1152    5534.7105   -3555.5225    15.428825    13.361747    27.159578    5599.1112 
  964000      963.985    581.12616    23.887032   -437.20219   -413.31516    463.95616    1485.0511    4160.9387   -4254.1212    15.428827    13.361749    27.159561    5599.1094 
  964500      964.485    568.76098    23.378764   -436.68879   -413.31003    137.09135     827.3679    1055.1503   -1471.2441     15.42883    13.361751    27.159543    5599.1075 
  965000      964.985      576.784    23.708548   -437.01457   -413.30603   -487.77022    1397.0776    4306.6016   -7166.9898    15.428832    13.361753    27.159526    5599.1057 
  965500      965.485    542.47896    22.298449   -435.59872   -413.30027    270.44956    4249.9703     690.7653   -4129.3869    15.428834    13.361755    27.159508    5599.1038 
  966000      965.985    543.71714    22.349344   -435.64332   -413.29398    -278.8256    2959.3161   -1630.8985   -2164.8943    15.428837    13.361757    27.159491     5599.102 
  966500      966.485    557.76657    22.926842   -436.21415   -413.28731    466.06396    3035.0204    1500.3021   -3137.1306    15.428839    13.361759    27.159473    5599.1001 
  967000      966.985    556.75049    22.885076   -436.16554   -413.28046   -1439.4584    3386.5915   -903.94381   -6801.0228    15.428842    13.361761    27.159456    5599.0982 
  967500      967.485    587.03364    24.129857   -437.40837   -413.27852   -161.31035    4853.7421   -2359.1816   -2978.4915    15.428844    13.361763    27.159438    5599.0964 
  968000      967.985    601.25034     24.71423   -437.98688   -413.27265    -1374.937    1037.4609   -2270.9976   -2891.2744    15.428846    13.361766    27.159421    5599.0945 
  968500      968.485    575.65557    23.662165   -436.92668   -413.26451    61.400456    4126.1664   -2335.5827   -1606.3823    15.428849    13.361768    27.159403    5599.0927 
  969000      968.985    567.17139    23.313424   -436.57282   -413.25939   -883.86805    651.60436   -31.701564   -3271.5069    15.428851     13.36177    27.159386    5599.0908 
  969500      969.485    542.68897    22.307081   -435.55886   -413.25178    627.84435    3319.2602    653.62706   -2089.3542    15.428854    13.361772    27.159368     5599.089 
  970000      969.985    600.06874    24.665661   -437.91286    -413.2472   -1592.1029    863.50456    374.57019   -6014.3835    15.428856    13.361774    27.159351    5599.0871 
  970500      970.485    571.84018    23.505334   -436.74678   -413.24145    266.02109    2647.3684   -1875.8997    26.594579    15.428858    13.361776    27.159333    5599.0852 
  971000      970.985    561.41965    23.077001   -436.31157   -413.23457   -62.072536    1934.3483    2410.0384   -4530.6043    15.428861    13.361778    27.159316    5599.0834 
  971500      971.485    561.13325    23.065228   -436.29433    -413.2291   -1199.1522   -1057.7707    325.48715    -2865.173    15.428863     13.36178    27.159298    5599.0815 
  972000      971.985    555.87547    22.849109   -436.07239   -413.22329    126.72964    2378.0817     84.21186   -2082.1046    15.428866    13.361782    27.159281    5599.0797 
  972500      972.485     530.2889     21.79738   -435.01485   -413.21747    1106.9666    3101.3437    380.90335   -161.34737    15.428868    13.361784    27.159263    5599.0778 
  973000      972.985    548.36401    22.540352   -435.75142   -413.21106    1519.2325    1858.6014    3084.5225   -385.42622     15.42887    13.361787    27.159246     5599.076 
  973500      973.485      572.003    23.512026   -436.71794   -413.20591   -966.50903    820.23107   -1747.4603   -1972.2978    15.428873    13.361789    27.159228    5599.0741 
  974000      973.985    547.80653    22.517437   -435.71837   -413.20093   -436.64366    760.73544   -20.282546   -2050.3839    15.428875    13.361791    27.159211    5599.0722 
  974500      974.485    549.26602    22.577429   -435.77158   -413.19415   -668.30114    5698.7299   -2445.4957   -5258.1376    15.428878    13.361793    27.159193    5599.0704 
  975000      974.985    582.84546    23.957703    -437.1449   -413.18719   -815.56691    2607.7674    754.23693   -5808.7051     15.42888    13.361795    27.159176    5599.0685 
  975500      975.485    576.51163    23.697353   -436.87806   -413.18071   -98.825991     2704.803    1256.3766   -4257.6577    15.428882    13.361797    27.159158    5599.0667 
  976000      975.985     593.7273    24.404998   -437.58183   -413.17683   -449.14722    1714.8127    2008.9533   -5071.2077    15.428885    13.361799    27.159141    5599.0648 
  976500      976.485    596.73031    24.528436   -437.70032   -413.17188   -903.31581    2310.4148     268.7566   -5289.1189    15.428887    13.361801    27.159123     5599.063 
  977000      976.985     581.4155    23.898925   -437.06274   -413.16382   -434.29295    4750.4381   -4287.8098   -1765.5071     15.42889    13.361803    27.159106    5599.0611 
  977500      977.485    546.48181    22.462985   -435.61954   -413.15656    1408.6436    3156.1281    2606.6348   -1536.8321    15.428892    13.361805    27.159088    5599.0593 
  978000      977.985    526.02675    21.622186   -434.77165   -413.14946    1715.1853    5148.0393    3061.6096   -3064.0929    15.428894    13.361808    27.159071    5599.0574 
  978500      978.485     589.7394    24.241076   -437.38529   -413.14422   -985.51696   -488.98418    3484.2015   -5951.7682    15.428897     13.36181    27.159053    5599.0555 
  979000      978.985    543.18297    22.327387   -435.46365   -413.13626    -1322.957   -503.74528    1935.7527   -5400.8784    15.428899    13.361812    27.159036    5599.0537 
  979500      979.485    560.37405    23.034022   -436.16422    -413.1302     468.0023    1899.2276    2733.4017   -3228.6224    15.428902    13.361814    27.159018    5599.0518 
  980000      979.985    564.45994    23.201971   -436.32566   -413.12369   -885.62417     329.9524    3303.2912   -6290.1161    15.428904    13.361816    27.159001      5599.05 
  980500      980.485    571.15304    23.477089   -436.59367   -413.11658    138.75924   -679.16472    5530.3278   -4434.8853    15.428906    13.361818    27.158983    5599.0481 
  981000      980.985    577.15469    23.723785   -436.83441   -413.11063    676.84572    1117.2318    4774.9514    -3861.646    15.428909     13.36182    27.158966    5599.0463 
  981500      981.485    569.54118    23.410834   -436.51187   -413.10104   -511.87956    516.23274    3362.9997   -5414.8712    15.428911    13.361822    27.158948    5599.0444 
  982000      981.985    542.30803    22.291423   -435.38728   -413.09586    302.93188   -115.73536    5848.7879   -4824.2569    15.428914    13.361824    27.158931    5599.0425 
  982500      982.485    581.84729    23.916674   -437.00521   -413.08854    932.33928    1362.2385    6766.8676   -5332.0882    15.428916    13.361826    27.158913    5599.0407 
  983000      982.985    570.94295    23.468454   -436.55037   -413.08192   -458.17487   -329.10536    5087.6424   -6133.0617    15.428918    13.361829    27.158896    5599.0388 
  983500      983.485    600.93031    24.701076   -437.77559   -413.07451    -994.6934   -2571.5996   -487.30637    74.825759    15.428921    13.361831    27.158878     5599.037 
  984000      983.985    567.47586     23.32594   -436.39273   -413.06679    2.2744258   -1680.8177    7886.2798   -6198.6389    15.428923    13.361833    27.158861    5599.0351 
  984500      984.485    591.44228    24.311073   -437.37296   -413.06188   -2217.8391   -778.53817     2186.308   -8061.2871    15.428926    13.361835    27.158843    5599.0333 
  985000      984.985     608.3842    25.007466   -438.06468   -413.05721    1246.8279   -565.19029    2042.6393    2263.0348    15.428928    13.361837    27.158826    5599.0314 
  985500      985.485    532.41043    21.884585   -434.93208    -413.0475    92.918089   -60.551043    2630.0411   -2290.7358     15.42893    13.361839    27.158808    5599.0295 
  986000      985.985    584.40141     24.02166   -437.06147   -413.03981   -9.8176171   -655.20977    3871.2316   -3245.4746    15.428933    13.361841    27.158791    5599.0277 
  986500      986.485    554.85841    22.807303   -435.83964   -413.03234    1311.7189    831.12428    3697.2921    -593.2598    15.428935    13.361843    27.158773    5599.0258 
  987000      986.985    585.29065    24.058212   -437.08268   -413.02447    133.43311    1812.5243    524.59185   -1936.8169    15.428938    13.361845    27.158756     5599.024 
  987500      987.485     602.7056    24.774049   -437.79078   -413.01673   -2016.4992   -3002.6929    3832.1663   -6878.9711     15.42894    13.361847    27.158738    5599.0221 
  988000      987.985    589.74981    24.241504   -437.25077   -413.00927     257.9496    1156.3512    5475.2965   -5857.7989    15.428942     13.36185    27.158721    5599.0203 
  988500      988.485    539.10063    22.159584   -435.16088   -413.00129    2382.7364     646.4278    5534.3583    967.42302    15.428945    13.361852    27.158703    5599.0184 
  989000      988.985    597.88085    24.575729   -437.57149   -412.99576    817.98063    2668.1221    2839.0982   -3053.2784    15.428947    13.361854    27.158686    5599.0165 
  989500      989.485    547.30355    22.496763   -435.48321   -412.98645    1498.1883    2834.4811    2989.3455   -1329.2616     15.42895    13.361856    27.158668    5599.0147 
  990000      989.985    574.11486    23.598834   -436.57851   -412.97968   -241.10471   -3871.2476    1562.1705     1585.763    15.428952    13.361858    27.158651    5599.0128 
  990500      990.485    587.93073    24.166732   -437.13791   -412.97118    56.117148    3799.3778    1497.0687   -5128.0951    15.428954     13.36186    27.158633     5599.011 
  991000      990.985    557.91995    22.933147    -435.8944   -412.96125    1344.0929    -2217.353    5891.9049    357.72692    15.428957    13.361862    27.158616    5599.0091 
  991500      991.485    564.10825    23.187515    -436.1415   -412.95399   -1067.2759   -1306.5719    1583.9673   -3479.2231    15.428959    13.361864    27.158598    5599.0073 
  992000      991.985    552.72623     22.71966   -435.66478   -412.94512    1725.1842    1155.0132    3536.9487    483.59074    15.428962    13.361866    27.158581    5599.0054 
  992500      992.485    572.07797    23.515108   -436.45311     -412.938   -187.32181    -62.92135     1772.964   -2272.0081    15.428964    13.361868    27.158563    5599.0035 
  993000      992.985    566.53137    23.287117   -436.21898   -412.93187   -358.49206   -3383.6788    4670.1202   -2361.9176    15.428966    13.361871    27.158546    5599.0017 
  993500      993.485    603.82254     24.81996   -437.74234   -412.92238    -1595.434    603.71702    1705.5809      -7095.6    15.428969    13.361873    27.158528    5598.9998 
  994000      993.985    588.73468    24.199778   -437.11332   -412.91354   -933.07907   -582.60178   -1235.0988   -981.53662    15.428971    13.361875    27.158511     5598.998 
  994500      994.485    562.75188    23.131762   -436.03532   -412.90356    345.66474    671.98281   -38.101256    403.11267    15.428974    13.361877    27.158493    5598.9961 
  995000      994.985    552.30791    22.702466   -435.59749   -412.89503    65.912631    900.32348    912.65882   -1615.2444    15.428976    13.361879    27.158476    5598.9943 
  995500      995.485    577.07509    23.720513   -436.60825   -412.88774    68.825604   -1352.1595    4329.6685   -2771.0321    15.428978    13.361881    27.158458    5598.9924 
  996000      995.985    560.64643    23.045218   -435.92283   -412.87761    830.19588   -278.18836    5884.6469    -3115.871    15.428981    13.361883    27.158441    5598.9905 
  996500      996.485    564.73162    23.213139     -436.084   -412.87086    36.206958    2287.1111    1573.8303   -3752.3205    15.428983    13.361885    27.158423    5598.9887 
  997000      996.985     602.9146    24.782639   -437.64537   -412.86273   -443.90681    3511.3336    312.81148   -5155.8655    15.428986    13.361887    27.158406    5598.9868 
  997500      997.485    583.36587    23.979094   -436.83295   -412.85385    504.77475    605.40785    5492.5323   -4583.6159    15.428988    13.361889    27.158388     5598.985 
  998000      997.985    596.85691     24.53364   -437.37852   -412.84488   -579.73652   -246.13056   -297.52713   -1195.5519     15.42899    13.361892    27.158371    5598.9831 
  998500      998.485    578.62584    23.784257   -436.61952   -412.83526   -511.28119   -1673.9136    1444.8327   -1304.7627    15.428993    13.361894    27.158353    5598.9813 
  999000      998.985    548.41686    22.542525   -435.36902   -412.82649    62.556659    2145.2734    1204.8672   -3162.4706    15.428995    13.361896    27.158336    5598.9794 
  999500      999.485    572.06473    23.514564   -436.33242   -412.81785    258.60734    868.50271    3358.3903    -3451.071    15.428998    13.361898    27.158318    5598.9775 
 1000000      999.985    570.23029     23.43916   -436.24721   -412.80805    186.40252    4016.1434    2360.0305   -5816.9664       15.429      13.3619    27.158301    5598.9757 
 1000015         1000    560.25584    23.029163   -435.83677   -412.80761    798.57407    4989.9583    3570.6688   -6164.9049       15.429      13.3619      27.1583    5598.9756 
Loop time of 916.117 on 28 procs for 1000000 steps with 319 atoms

Performance: 94.311 ns/day, 0.254 hours/ns, 1091.563 timesteps/s
87.1% CPU use with 28 MPI tasks x no OpenMP threads

MPI task timing breakdown:
Section |  min time  |  avg time  |  max time  |%varavg| %total
---------------------------------------------------------------
Pair    | 742.05     | 792.33     | 827.86     |  74.5 | 86.49
Neigh   | 0.016731   | 0.027028   | 0.034919   |   2.7 |  0.00
Comm    | 77.071     | 110.94     | 160.67     | 191.4 | 12.11
Output  | 0.10174    | 0.10439    | 0.12757    |   1.4 |  0.01
Modify  | 4.8209     | 7.4254     | 12.436     |  84.2 |  0.81
Other   |            | 5.289      |            |       |  0.58

Nlocal:    11.3929 ave 16 max 7 min
Histogram: 2 3 3 3 3 2 6 2 3 1
Nghost:    646.571 ave 681 max 586 min
Histogram: 2 2 2 0 2 3 3 2 5 7
Neighs:    710.786 ave 1027 max 433 min
Histogram: 2 4 4 2 3 3 5 1 1 3
FullNghs:  1421.57 ave 1999 max 864 min
Histogram: 2 3 3 3 3 2 6 2 1 3

Total # of neighbors = 39804
Ave neighs/atom = 124.777
Neighbor list builds = 399
Dangerous builds = 0

write_restart   POSCAR_1x1x1.rest

#unfix    1
#undump   1
Total wall time: 0:15:16
