LAMMPS (7 Dec 2015)
#----------- Initialize Simulation ------------ restart01
#processors	2 2 2
units		metal
boundary	p p p     ## periodic boundary condition  on x y z axis ##
atom_style atomic
#atom_modify map array sort 0 0.0

read_data	POSCAR_1x1x1.lammps
  triclinic box = (0 0 0) to (15.3957 13.333 27.4032) with tilt (-7.69775 0 0)
  2 by 2 by 7 MPI processor grid
  reading atoms ...
  319 atoms

#----------- Define Potential -----------------
pair_style meam
pair_coeff * * MgAlZn.library.meam Mg Al Zn MgAlZn.parameter.meam Mg Al Zn 	#1=Mg 2=Al 3=Zn	#atoms/mass

#----------- Neighbor List --------------------
neighbor 2.0 bin
neigh_modify delay 10 check yes

#--------------  Run a simulation (minimization) ---------------------------------------
minimize       1.0e-4   1.0e-6   100   1000          #結構優化的條件
WARNING: Resetting reneighboring criteria during minimization (../min.cpp:168)
Neighbor list info ...
  2 neighbor list requests
  update every 1 steps, delay 0 steps, check yes
  max neighbors/atom: 2000, page size: 100000
  master list distance cutoff = 8
  ghost atom cutoff = 8
  binsize = 4 -> bins = 6 4 7
Memory usage per processor = 8.65073 Mbytes
Step Temp E_pair E_mol TotEng Press 
       0            0   -436.14642            0   -436.14642    -4659.114 
      12            0   -458.13381            0   -458.13381   -22157.487 
Loop time of 0.0193867 on 28 procs for 12 steps with 319 atoms

87.4% CPU use with 28 MPI tasks x no OpenMP threads

Minimization stats:
  Stopping criterion = energy tolerance
  Energy initial, next-to-last, final = 
        -436.146418733     -458.093818118     -458.133811301
  Force two-norm initial, final = 20.256 0.759511
  Force max component initial, final = 4.07594 0.140672
  Final line search alpha, max atom move = 0.318501 0.044804
  Iterations, force evaluations = 12 21

MPI task timing breakdown:
Section |  min time  |  avg time  |  max time  |%varavg| %total
---------------------------------------------------------------
Pair    | 0.015845   | 0.016618   | 0.017371   |   0.3 | 85.72
Neigh   | 0          | 0          | 0          |   0.0 |  0.00
Comm    | 0.0012197  | 0.0019452  | 0.0026973  |   0.9 | 10.03
Output  | 0          | 0          | 0          |   0.0 |  0.00
Modify  | 0          | 0          | 0          |   0.0 |  0.00
Other   |            | 0.0008231  |            |       |  4.25

Nlocal:    11.3929 ave 15 max 7 min
Histogram: 3 2 3 2 0 3 4 3 5 3
Nghost:    639.679 ave 674 max 582 min
Histogram: 3 1 2 2 0 2 2 3 5 8
Neighs:    706.5 ave 965 max 411 min
Histogram: 3 2 3 0 4 4 1 6 3 2
FullNghs:  1413 ave 1885 max 853 min
Histogram: 3 2 3 2 0 5 2 3 4 4

Total # of neighbors = 39564
Ave neighs/atom = 124.025
Neighbor list builds = 0
Dangerous builds = 0
velocity all  create 600.0 4928459 #rot yes dist gaussian

#--------------  Run a simulation (Relaxation)  ----------------------------------------
fix  1  all  nvt   temp  600.0  600.0  100				#damping constant
#fix  2  all  npt   temp  393.0  393.0  50 iso 0.0 0.0 1000.0
fix  2  all deform 1 x final 0 15.4004 y final 0 13.3371 z final 0 27.3682 xy final -7.7001 units lattice
#fix  3  all  npt   temp  393.0  393.0  50 z 0.0 0.0 1000.0

#variable b equal 1
#fix 2 all efield  0.0  0.0  v_b
#compute pot all pe/atom


#----------- Output --------------------------
thermo	 500
timestep  0.001		#1.0 fs
thermo_style	custom step time temp ke pe etotal press pxx pyy pzz lx ly lz vol

dump 1 all custom 10000 dump.eq id type x y z
dump_modify 1 sort  id

run        1000000	#1000 ps
Neighbor list info ...
  2 neighbor list requests
  update every 1 steps, delay 10 steps, check yes
  max neighbors/atom: 2000, page size: 100000
  master list distance cutoff = 8
  ghost atom cutoff = 8
  binsize = 4 -> bins = 6 4 7
Memory usage per processor = 7.55755 Mbytes
Step Time Temp KinEng PotEng TotEng Press Pxx Pyy Pzz Lx Ly Lz Volume 
      12            0          600    24.662836   -458.13381   -433.47098   -17474.386   -12238.244   -10234.917   -29949.998      15.3957       13.333      27.4032    5625.0787 
     500        0.488     314.1448    12.912836   -446.38006   -433.46722   -10460.472   -8042.1351   -3313.5814     -20025.7    15.395702    13.333002    27.403183    5625.0768 
    1000        0.988    319.37232    13.127712   -446.59465   -433.46694   -10850.745    -7205.557    -2363.089   -22983.588    15.395705    13.333004    27.403165     5625.075 
    1500        1.488    317.90295    13.067314   -446.53313   -433.46582   -10180.303   -5220.6728    -5057.595   -20262.642    15.395707    13.333006    27.403148    5625.0731 
    2000        1.988     333.1851    13.695482   -447.16087   -433.46539   -10794.468   -5854.3778   -4774.9401   -21754.085    15.395709    13.333008     27.40313    5625.0712 
    2500        2.488    306.68819    12.606334   -446.06991   -433.46358   -9335.5461   -6351.9606   -1074.3362   -20580.341    15.395712     13.33301    27.403113    5625.0694 
    3000        2.988     316.8321    13.023297   -446.48488   -433.46158   -11482.014   -6051.9838   -5972.2391   -22421.818    15.395714    13.333012    27.403095    5625.0675 
    3500        3.488    310.64767    12.769087   -446.22914   -433.46005   -9940.7104   -8341.3303   -3904.2979   -17576.503    15.395716    13.333014    27.403078    5625.0656 
    4000        3.988    331.54097    13.627901   -447.08578   -433.45788   -11327.892   -6922.3584    -7840.619   -19220.698    15.395719    13.333016     27.40306    5625.0637 
    4500        4.488    304.56444    12.519038   -445.97439   -433.45535   -10469.426   -6219.0178   -3595.2526   -21594.007    15.395721    13.333018    27.403043    5625.0619 
    5000        4.988    312.58363    12.848665   -446.30117   -433.45251   -10407.602   -4983.5591   -6109.4378   -20129.808    15.395723     13.33302    27.403025      5625.06 
    5500        5.488    325.29127    13.371008   -446.82039   -433.44938    -11376.53   -6439.8067    -5679.497   -22010.286    15.395726    13.333023    27.403008    5625.0581 
    6000        5.988    309.34636    12.715597   -446.16127   -433.44567   -10029.409   -8098.0795   -3569.2514   -18420.896    15.395728    13.333025     27.40299    5625.0563 
    6500        6.488    320.13299    13.158979   -446.60129   -433.44231   -10618.457   -6615.1121   -3957.9747   -21282.283     15.39573    13.333027    27.402973    5625.0544 
    7000        6.988     319.9286    13.150577   -446.58844   -433.43786   -10907.259   -8042.4912   -3288.1668    -21391.12    15.395733    13.333029    27.402955    5625.0525 
    7500        7.488    323.06261      13.2794   -446.71317   -433.43377   -10664.211   -6943.6467   -4247.7184   -20801.269    15.395735    13.333031    27.402938    5625.0507 
    8000        7.988     308.2475    12.670429   -446.09904   -433.42862   -9672.5775   -5931.9563   -3106.9689   -19978.807    15.395738    13.333033     27.40292    5625.0488 
    8500        8.488    313.33378    12.879499   -446.30309   -433.42359   -11411.257   -5968.5328   -6911.7105   -21353.529     15.39574    13.333035    27.402903    5625.0469 
    9000        8.988    311.43588    12.801487   -446.21966   -433.41817   -11245.009   -8949.4456   -4669.2188   -20116.362    15.395742    13.333037    27.402885    5625.0451 
    9500        9.488    324.58701     13.34206   -446.75431   -433.41225   -11014.892    -6782.244   -5657.6565   -20604.776    15.395745    13.333039    27.402868    5625.0432 
   10000        9.988    304.57769    12.519583   -445.92654   -433.40695   -9869.9645   -4823.1403   -3665.5774   -21121.176    15.395747    13.333041     27.40285    5625.0413 
   10500       10.488    309.51253    12.722428   -446.12282   -433.40039   -9216.1792   -6695.4667   -2803.3139   -18149.757    15.395749    13.333043    27.402833    5625.0395 
   11000       10.988    312.16544    12.831475   -446.22518   -433.39371   -11520.023   -6973.9224   -5751.4606   -21834.687    15.395752    13.333045    27.402815    5625.0376 
   11500       11.488    311.32125    12.796775   -446.18372   -433.38695   -10812.504   -7571.2006   -5320.4774   -19545.835    15.395754    13.333047    27.402798    5625.0357 
   12000       11.988    314.51827    12.928187    -446.3079   -433.37972   -10765.623   -6312.8943   -4976.1071   -21007.867    15.395756    13.333049     27.40278    5625.0338 
   12500       12.488    305.45964    12.555835    -445.9278   -433.37197   -11002.638   -7127.4169   -5130.2277    -20750.27    15.395759    13.333051    27.402763     5625.032 
   13000       12.988     307.7897    12.651611   -446.01587   -433.36426   -9796.5605   -6847.6787   -3243.8917   -19298.111    15.395761    13.333053    27.402745    5625.0301 
   13500       13.488    316.69684    13.017737   -446.37395   -433.35622   -11086.906   -6018.4608   -4830.1108   -22412.147    15.395763    13.333055    27.402728    5625.0282 
   14000       13.988    314.41622    12.923993   -446.27188   -433.34788    -10887.46   -5217.4208   -4556.8936   -22888.065    15.395766    13.333057     27.40271    5625.0264 
   14500       14.488    307.43102    12.636868   -445.97594   -433.33907   -10574.957   -6010.8867   -6133.8011   -19580.184    15.395768    13.333059    27.402693    5625.0245 
   15000       14.988    317.73867    13.060561    -446.3906   -433.33004   -12120.561   -7858.3553   -5191.3515   -23311.976     15.39577    13.333061    27.402675    5625.0226 
   15500       15.488    309.84974    12.736289   -446.05681   -433.32053   -10024.571   -5844.3746   -5232.6002   -18996.739    15.395773    13.333064    27.402658    5625.0208 
   16000       15.988    327.75093    13.472112   -446.78341   -433.31129   -10332.387   -6134.5653   -4268.1231   -20594.472    15.395775    13.333066     27.40264    5625.0189 
   16500       16.488    334.73211    13.759072   -447.06026   -433.30118   -10046.156   -5000.2251     -3888.35   -21249.893    15.395777    13.333068    27.402623     5625.017 
   17000       16.988     311.2822     12.79517   -446.08567    -433.2905   -10171.781   -4933.6186   -5428.9977   -20152.726     15.39578     13.33307    27.402605    5625.0152 
   17500       17.488    313.22898    12.875192   -446.15518   -433.27999   -10979.537     -6440.65   -2312.0362   -24185.924    15.395782    13.333072    27.402588    5625.0133 
   18000       17.988    318.05844    13.073705   -446.34311    -433.2694   -10597.532   -7340.0415   -4527.7968   -19924.756    15.395785    13.333074     27.40257    5625.0114 
   18500       18.488    312.74038    12.855108   -446.11321    -433.2581   -9823.2433     -5844.15   -3587.2617   -20038.318    15.395787    13.333076    27.402553    5625.0096 
   19000       18.988    309.59093     12.72565   -445.97202   -433.24637   -10800.639   -8359.8184   -4066.1727   -19975.926    15.395789    13.333078    27.402535    5625.0077 
   19500       19.488    326.21606    13.409022   -446.64392    -433.2349   -10599.038    -8251.428   -3237.1192   -20308.567    15.395792     13.33308    27.402518    5625.0058 
   20000       19.988    314.68449     12.93502   -446.15799   -433.22297   -10371.193   -7072.7972   -3978.4445   -20062.337    15.395794    13.333082      27.4025    5625.0039 
   20500       20.488    280.22219    11.518456   -444.72865   -433.21019   -8504.8688   -6053.8785   -3538.8934   -15921.835    15.395796    13.333084    27.402483    5625.0021 
   21000       20.988    324.16154    13.324571   -446.52286   -433.19829   -10609.802   -5818.8142   -3948.1626   -22062.431    15.395799    13.333086    27.402465    5625.0002 
   21500       21.488    327.21413    13.450047   -446.63555    -433.1855   -11003.021   -7525.9084   -823.40929   -24659.747    15.395801    13.333088    27.402448    5624.9983 
   22000       21.988     324.5749    13.341562   -446.51349   -433.17193   -11462.112   -7479.1012   -5167.4005   -21739.833    15.395803     13.33309     27.40243    5624.9965 
   22500       22.488     299.4686    12.309575   -445.46736   -433.15779   -9792.1662   -6136.7111   -1897.4206   -21342.367    15.395806    13.333092    27.402413    5624.9946 
   23000       22.988    327.93677    13.479751   -446.62461   -433.14486    -11259.97   -8067.5017   -5772.7348   -19939.675    15.395808    13.333094    27.402395    5624.9927 
   23500       23.488    311.22691    12.792897   -445.92344   -433.13054   -9974.4755    -6814.913   -5065.5373   -18042.976     15.39581    13.333096    27.402378    5624.9909 
   24000       23.988    315.36783    12.963108   -446.07957   -433.11646   -9780.4019   -6591.7787   -3214.8611   -19534.566    15.395813    13.333098     27.40236     5624.989 
   24500       24.488    312.16709    12.831543   -445.93331   -433.10176   -9508.4379   -4196.0021   -3935.9585   -20393.353    15.395815      13.3331    27.402343    5624.9871 
   25000       24.988    317.72341    13.059934   -446.14677   -433.08683   -10264.354   -5671.7269   -5981.7125   -19139.624    15.395817    13.333102    27.402325    5624.9853 
   25500       25.488    321.55403     13.21739   -446.28888   -433.07149   -11203.939   -7522.3616   -3312.7746   -22776.682     15.39582    13.333105    27.402308    5624.9834 
   26000       25.988    309.28872    12.713228   -445.76932    -433.0561   -9901.6026   -6007.7156   -4302.8342   -19394.258    15.395822    13.333107     27.40229    5624.9815 
   26500       26.488    330.22363    13.573752   -446.61427   -433.04051   -10553.093   -5609.2129    -5126.956   -20923.109    15.395824    13.333109    27.402273    5624.9797 
   27000       26.988    336.31629    13.824189   -446.84893   -433.02474   -11117.531   -6538.3698   -7090.8885   -19723.333    15.395827    13.333111    27.402255    5624.9778 
   27500       27.488    315.04989    12.950039   -445.95852   -433.00848   -10561.644   -5172.1643   -4861.8183    -21650.95    15.395829    13.333113    27.402238    5624.9759 
   28000       27.988    305.32371    12.550248   -445.54211   -432.99187   -9926.1199   -6693.1852   -3605.9483   -19479.226    15.395832    13.333115     27.40222     5624.974 
   28500       28.488    325.26825    13.370062   -446.34564   -432.97558   -10067.986   -5106.3021   -5606.3911   -19491.266    15.395834    13.333117    27.402203    5624.9722 
   29000       28.988      317.513    13.051285   -446.01007   -432.95878   -10354.523   -5312.7122   -3798.2133   -21952.643    15.395836    13.333119    27.402185    5624.9703 
   29500       29.488    324.03365    13.319315   -446.26145   -432.94214   -9796.5992   -6572.8889   -2154.6078   -20662.301    15.395839    13.333121    27.402168    5624.9684 
   30000       29.988    313.10096    12.869929   -445.79474   -432.92481   -11284.836   -9214.1051   -1921.6756   -22718.728    15.395841    13.333123     27.40215    5624.9666 
   30500       30.488    318.53953     13.09348   -446.00152   -432.90804   -10481.294   -6890.1745   -5253.1873   -19300.519    15.395843    13.333125    27.402133    5624.9647 
   31000       30.988    320.21028    13.162156   -446.05241   -432.89025   -10113.734   -7095.4314    -4080.662   -19165.108    15.395846    13.333127    27.402115    5624.9628 
   31500       31.488    316.54332    13.011427   -445.88411   -432.87268   -10162.214   -6728.7761   -4229.8749    -19527.99    15.395848    13.333129    27.402098     5624.961 
   32000       31.988    310.95545    12.781739   -445.63639   -432.85465   -9351.3903   -5450.8137   -3369.9032   -19233.454     15.39585    13.333131     27.40208    5624.9591 
   32500       32.488    323.58786     13.30099   -446.13788   -432.83689   -10192.906   -6633.5662   -1851.4298   -22093.723    15.395853    13.333133    27.402063    5624.9572 
   33000       32.988    329.52224    13.544921    -446.3639   -432.81898   -10567.899   -5858.9506   -6009.5032   -19835.243    15.395855    13.333135    27.402045    5624.9554 
   33500       33.488    314.12984    12.912221    -445.7129   -432.80068   -10955.787   -7171.5324   -5804.3346   -19891.495    15.395857    13.333137    27.402028    5624.9535 
   34000       33.988    316.57266    13.012632   -445.79467   -432.78204   -10122.941   -5940.1845    -3859.379   -20569.259     15.39586    13.333139     27.40201    5624.9516 
   34500       34.488    324.14578    13.323923   -446.08792     -432.764   -9598.7756   -3993.7403   -4533.2846   -20269.302    15.395862    13.333141    27.401993    5624.9497 
   35000       34.988    309.48601    12.721338   -445.46657   -432.74523   -10513.957   -7266.4659   -3551.7737    -20723.63    15.395864    13.333143    27.401975    5624.9479 
   35500       35.488    314.99232    12.947673   -445.67398   -432.72631   -10728.874   -4775.6981   -6516.6723   -20894.251    15.395867    13.333146    27.401958     5624.946 
   36000       35.988    325.76356    13.390422   -446.09848   -432.70806   -10623.163   -9179.1253   -4751.3419   -17939.022    15.395869    13.333148     27.40194    5624.9441 
   36500       36.488    304.44375    12.514077   -445.20261   -432.68853   -9922.2484    -4936.501   -7133.5496   -17696.695    15.395871     13.33315    27.401923    5624.9423 
   37000       36.988    337.02418    13.853287   -446.52386   -432.67057   -10363.479   -4942.9511   -6557.4635   -19590.023    15.395874    13.333152    27.401905    5624.9404 
   37500       37.488    323.59511    13.301288   -445.95257   -432.65128   -10068.083   -4681.2391   -4049.3646   -21473.644    15.395876    13.333154    27.401888    5624.9385 
   38000       37.988    323.66081    13.303989   -445.93594   -432.63195   -10102.867   -6485.9906    -2864.116   -20958.494    15.395879    13.333156     27.40187    5624.9367 
   38500       38.488    331.61412    13.630908   -446.24396   -432.61306   -10416.446   -6711.2022   -4536.4077   -20001.729    15.395881    13.333158    27.401853    5624.9348 
   39000       38.988    343.62536    14.124626   -446.71884   -432.59422   -10804.601   -7942.3863   -2379.1405   -22092.277    15.395883     13.33316    27.401835    5624.9329 
   39500       39.488    319.26588    13.123336   -445.69823   -432.57489   -10612.098   -7271.4473   -4066.8572    -20497.99    15.395886    13.333162    27.401818    5624.9311 
   40000       39.988    325.87635    13.395058   -445.95077   -432.55571   -9206.3808   -4685.6853   -3890.0313   -19043.426    15.395888    13.333164      27.4018    5624.9292 
   40500       40.488     322.1365    13.241333   -445.77807   -432.53674   -10475.981   -9107.3608   -1649.1322    -20671.45     15.39589    13.333166    27.401783    5624.9273 
   41000       40.988    321.92586    13.232674   -445.75032   -432.51765   -10549.912   -6545.6706   -4728.0345   -20376.031    15.395893    13.333168    27.401765    5624.9255 
   41500       41.488    318.40888     13.08811   -445.58645   -432.49834   -8956.6797   -6635.2678   -2625.2006   -17609.571    15.395895     13.33317    27.401748    5624.9236 
   42000       41.988    329.37077    13.538695   -446.01829   -432.47959   -10975.018   -6858.2072   -7071.8924   -18994.954    15.395897    13.333172     27.40173    5624.9217 
   42500       42.488    341.34041    14.030704    -446.4909   -432.46019   -9972.6304   -6292.3754     -6976.18   -16649.336      15.3959    13.333174    27.401713    5624.9198 
   43000       42.988    322.95041    13.274788   -445.71573   -432.44094   -11002.392   -8139.8355   -5295.7365   -19571.603    15.395902    13.333176    27.401695     5624.918 
   43500       43.488    327.88802    13.477747   -445.89964   -432.42189   -10678.306   -8476.2782    -5233.517   -18325.122    15.395904    13.333178    27.401678    5624.9161 
   44000       43.988    336.27697    13.822573   -446.22623   -432.40366   -10808.128   -5330.7516   -4991.5184   -22102.113    15.395907     13.33318     27.40166    5624.9142 
   44500       44.488     310.0202    12.743295   -445.12709   -432.38379   -9779.3096   -6643.4628   -3944.7475   -18749.719    15.395909    13.333182    27.401643    5624.9124 
   45000       44.988    328.48076    13.502112   -445.86734   -432.36522   -11260.363   -5272.2535   -3661.3487   -24847.487    15.395911    13.333184    27.401625    5624.9105 
   45500       45.488    320.31894    13.166622   -445.51316   -432.34654   -9574.3781   -6895.1866   -2654.7097   -19173.238    15.395914    13.333187    27.401608    5624.9086 
   46000       45.988    326.18798    13.407868   -445.73592   -432.32806   -10050.857   -4976.5062   -3493.2891   -21682.776    15.395916    13.333189     27.40159    5624.9068 
   46500       46.488    332.12671    13.651977   -445.96098     -432.309   -10073.011   -6811.3779   -4560.4231   -18847.231    15.395918    13.333191    27.401573    5624.9049 
   47000       46.988    334.62855    13.754815   -446.04538   -432.29057   -10800.917   -6713.7864   -4056.2302   -21632.733    15.395921    13.333193    27.401555     5624.903 
   47500       47.488    328.65259    13.509175   -445.78115   -432.27198   -9563.2469   -6248.7502   -3286.4841   -19154.506    15.395923    13.333195    27.401538    5624.9012 
   48000       47.988    344.31049    14.152789   -446.40677   -432.25398   -10293.118    -5691.732   -5017.1487   -20170.474    15.395926    13.333197     27.40152    5624.8993 
   48500       48.488     322.7853    13.268001   -445.50328   -432.23528   -9011.4598   -5818.9723   -2692.3763   -18523.031    15.395928    13.333199    27.401503    5624.8974 
   49000       48.988    331.26541    13.616574   -445.83333   -432.21676   -10468.731   -7492.6851   -883.41267   -23030.095     15.39593    13.333201    27.401485    5624.8956 
   49500       49.488    328.92549    13.520392   -445.71928   -432.19889   -10310.183   -6897.2202   -3163.1831   -20870.147    15.395933    13.333203    27.401468    5624.8937 
   50000       49.988    339.33522    13.948281   -446.12965   -432.18137   -10268.114   -7275.7734   -3942.1695     -19586.4    15.395935    13.333205     27.40145    5624.8918 
   50500       50.488    330.09532    13.568478   -445.73082   -432.16234   -9524.2103   -7435.4849   -2208.0492   -18929.097    15.395937    13.333207    27.401433    5624.8899 
   51000       50.988     325.4011    13.375523    -445.5199   -432.14437   -9397.0706   -5311.0417   -1225.8076   -21654.363     15.39594    13.333209    27.401415    5624.8881 
   51500       51.488    324.85037    13.352886   -445.47975   -432.12687   -9256.1206   -5022.6236   -3767.7488   -18977.989    15.395942    13.333211    27.401398    5624.8862 
   52000       51.988    330.24825    13.574764   -445.68388   -432.10912   -11353.506   -7013.8595   -4875.6696   -22170.989    15.395944    13.333213     27.40138    5624.8843 
   52500       52.488      325.821    13.392783   -445.48481   -432.09202   -8432.6088    -6048.259   -3132.8819   -16116.685    15.395947    13.333215    27.401363    5624.8825 
   53000       52.988    326.78878    13.432563   -445.50723   -432.07466   -9796.5277   -5146.8522   -5515.0515   -18727.679    15.395949    13.333217    27.401345    5624.8806 
   53500       53.488    322.62615     13.26146   -445.31865   -432.05719   -8977.4573   -7108.3737   -1817.9308   -18006.067    15.395951    13.333219    27.401328    5624.8787 
   54000       53.988    327.71194    13.470509   -445.51065   -432.04014   -10355.932   -5982.7039   -2435.3774   -22649.713    15.395954    13.333221     27.40131    5624.8769 
   54500       54.488    337.14435    13.858226   -445.88129   -432.02306   -9437.1164   -8046.1833    -2158.747   -18106.419    15.395956    13.333223    27.401293     5624.875 
   55000       54.988    332.00801    13.647098   -445.65307   -432.00597   -10794.084    -5633.059   -6199.1664   -20550.026    15.395958    13.333225    27.401275    5624.8731 
   55500       55.488    341.23896    14.026534   -446.01564    -431.9891   -10273.521   -8022.9123   -2655.0619   -20142.588    15.395961    13.333228    27.401258    5624.8713 
   56000       55.988    330.08412    13.568017   -445.54009   -431.97207   -11338.821    -8172.602   -2912.5843   -22931.277    15.395963     13.33323     27.40124    5624.8694 
   56500       56.488    330.94476    13.603394    -445.5594   -431.95601   -9728.8218   -7763.9423    -3643.228   -17779.295    15.395965    13.333232    27.401223    5624.8675 
   57000       56.988    322.82992    13.269835   -445.20911   -431.93927   -9914.1559   -5793.8442   -1769.2823   -22179.341    15.395968    13.333234    27.401205    5624.8656 
   57500       57.488    356.72213    14.662966   -446.58639   -431.92342   -11403.849   -8160.9637   -5546.4328   -20504.151     15.39597    13.333236    27.401188    5624.8638 
   58000       57.988    328.54551    13.504773   -445.41119   -431.90642   -9443.2327   -4229.9753   -2089.0152   -22010.708    15.395973    13.333238     27.40117    5624.8619 
   58500       58.488    339.01236     13.93501   -445.82514   -431.89013   -9931.8833   -6315.9928   -4004.4515   -19475.206    15.395975     13.33324    27.401153      5624.86 
   59000       58.988    359.06943    14.759451   -446.63308   -431.87363   -10765.629   -6158.2687   -3395.3139   -22743.304    15.395977    13.333242    27.401135    5624.8582 
   59500       59.488     336.4184    13.828386   -445.68566   -431.85728   -9487.0875   -6320.6317    -5197.904   -16942.727     15.39598    13.333244    27.401118    5624.8563 
   60000       59.988    331.94585    13.644543   -445.48531   -431.84077   -9790.0192   -5139.5347   -3907.3536   -20323.169    15.395982    13.333246      27.4011    5624.8544 
   60500       60.488     341.4629    14.035739   -445.86025   -431.82451   -11529.695   -7851.8448   -4365.4301   -22371.809    15.395984    13.333248    27.401083    5624.8526 
   61000       60.988    327.82243    13.475051   -445.28318   -431.80813   -9480.0129   -5957.3174   -2095.4019    -20387.32    15.395987     13.33325    27.401065    5624.8507 
   61500       61.488    336.96896    13.851017   -445.64347   -431.79246   -9759.5746   -5625.0703   -3049.0656   -20604.588    15.395989    13.333252    27.401048    5624.8488 
   62000       61.988    348.58105    14.328329   -446.10495   -431.77662   -9756.1993   -7000.1319   -2184.7234   -20083.743    15.395991    13.333254     27.40103     5624.847 
   62500       62.488    342.53611    14.079853   -445.84011   -431.76026   -11147.833   -8484.2424   -2991.3136   -21967.943    15.395994    13.333256    27.401013    5624.8451 
   63000       62.988    349.89518    14.382345   -446.12672   -431.74438   -10545.681   -6465.1316   -4259.5565   -20912.354    15.395996    13.333258    27.400995    5624.8432 
   63500       63.488    327.03992    13.442886   -445.17138    -431.7285   -9362.6105   -6445.4937    -5174.832   -16467.506    15.395998     13.33326    27.400978    5624.8414 
   64000       63.988    356.81268    14.666688    -446.3796   -431.71291    -9884.949    -4120.916   -2819.9353   -22713.996    15.396001    13.333262     27.40096    5624.8395 
   64500       64.488    351.60517    14.452634   -446.14942   -431.69679   -9468.5912   -7229.1234   -3995.0293   -17181.621    15.396003    13.333264    27.400943    5624.8376 
   65000       64.988    350.21401    14.395451   -446.07715    -431.6817   -9872.2943   -7904.5058   -5638.4226   -16073.955    15.396005    13.333266    27.400925    5624.8357 
   65500       65.488    330.34215    13.578623   -445.24401   -431.66539   -10939.515    -6265.208   -4992.3354       -21561    15.396008    13.333269    27.400908    5624.8339 
   66000       65.988    349.66705    14.372968   -446.02228   -431.64932   -9876.4614   -8942.9369   -3029.2579   -17657.189     15.39601    13.333271     27.40089     5624.832 
   66500       66.488    337.13282    13.857752   -445.49165    -431.6339   -10292.676   -4739.7413   -5279.1363   -20859.151    15.396012    13.333273    27.400873    5624.8301 
   67000       66.988    347.65184    14.290134   -445.90836   -431.61822   -9592.4194   -6426.5214   -4160.0732   -18190.664    15.396015    13.333275    27.400855    5624.8283 
   67500       67.488    352.77624    14.500771   -446.10361   -431.60284   -9920.0229   -4878.6241   -6170.5672   -18710.877    15.396017    13.333277    27.400838    5624.8264 
   68000       67.988    349.97209    14.385507   -445.97232   -431.58681   -10624.452   -9312.8512   -5358.3526   -17202.151     15.39602    13.333279     27.40082    5624.8245 
   68500       68.488    326.88103    13.436355   -445.00755    -431.5712    -10210.81   -6386.4517    -1680.967   -22565.012    15.396022    13.333281    27.400803    5624.8227 
   69000       68.988    339.98809    13.975117   -445.53042    -431.5553   -8969.6313   -3975.6319   -3462.0196   -19471.243    15.396024    13.333283    27.400785    5624.8208 
   69500       69.488    345.03589    14.182606   -445.72289   -431.54029   -10397.756   -8674.2533   -6128.3714   -16390.644    15.396027    13.333285    27.400768    5624.8189 
   70000       69.988    346.76282    14.253591   -445.77779    -431.5242   -10424.288   -4332.8101   -5118.0974   -21821.955    15.396029    13.333287     27.40075    5624.8171 
   70500       70.488    360.10458       14.802   -446.31034   -431.50834   -9489.7241   -6500.0673   -4021.4343   -17947.671    15.396031    13.333289    27.400733    5624.8152 
   71000       70.988    330.54682    13.587037   -445.07941   -431.49238   -9923.9444   -5550.8365   -3834.5404   -20386.456    15.396034    13.333291    27.400715    5624.8133 
   71500       71.488    338.18374     13.90095   -445.37794   -431.47699   -9466.3067   -5989.7202   -4751.7364   -17657.463    15.396036    13.333293    27.400698    5624.8114 
   72000       71.988    358.95572    14.754776   -446.21548   -431.46071   -9875.5527   -4221.9906   -4753.8625   -20650.805    15.396038    13.333295     27.40068    5624.8096 
   72500       72.488    347.40722    14.280079   -445.72503   -431.44495   -9479.5979   -7414.3324   -2559.2688   -18465.193    15.396041    13.333297    27.400663    5624.8077 
   73000       72.988    350.24164    14.396587   -445.82566   -431.42907    -10807.79   -7521.8511   -3306.6885   -21594.831    15.396043    13.333299    27.400645    5624.8058 
   73500       73.488    330.12577    13.569729    -444.9825   -431.41277   -8380.3373   -5499.9819   -2404.0921   -17236.938    15.396045    13.333301    27.400628     5624.804 
   74000       73.988    329.93182    13.561757    -444.9587   -431.39695   -9223.6412   -3390.5878   -3306.9941   -20973.342    15.396048    13.333303     27.40061    5624.8021 
   74500       74.488     351.1477     14.43383    -445.8148   -431.38097    -10505.31    -8230.785   -4502.0354    -18783.11     15.39605    13.333305    27.400593    5624.8002 
   75000       74.988      319.876    13.148415   -444.51274   -431.36432   -9547.9827   -6740.0813   -4926.9409   -16976.926    15.396052    13.333307    27.400575    5624.7984 
   75500       75.488    330.79697    13.597319   -444.94543   -431.34811   -9588.5739   -7472.9403   -744.87832   -20547.903    15.396055     13.33331    27.400558    5624.7965 
   76000       75.988    338.60926    13.918441    -445.2506   -431.33216      -9179.2   -5652.4273   -2768.7382   -19116.434    15.396057    13.333312     27.40054    5624.7946 
   76500       76.488    321.92543    13.232657   -444.54859   -431.31593   -8708.7026   -4491.2458   -3840.5946   -17794.267    15.396059    13.333314    27.400523    5624.7928 
   77000       76.988    318.90995    13.108706   -444.40852   -431.29981   -7750.1567    -6468.782    -1664.483   -15117.205    15.396062    13.333316    27.400505    5624.7909 
   77500       77.488    348.74566    14.335095   -445.61924   -431.28415   -8927.3856   -3233.9239   -2090.8912   -21457.342    15.396064    13.333318    27.400488     5624.789 
   78000       77.988    337.30391    13.864785   -445.13197   -431.26719   -9583.3679   -5557.5732   -2888.2827   -20304.248    15.396067     13.33332     27.40047    5624.7871 
   78500       78.488    326.60592    13.425047   -444.67531   -431.25027   -9694.1828    -6864.681   -2669.9303   -19547.937    15.396069    13.333322    27.400453    5624.7853 
   79000       78.988    329.52848    13.545178   -444.77897   -431.23379   -9230.5055   -7001.0743   -1125.1498   -19565.292    15.396071    13.333324    27.400435    5624.7834 
   79500       79.488    343.13939     14.10465   -445.32189   -431.21724   -9154.7205   -5938.7806   -4449.2934   -17076.088    15.396074    13.333326    27.400418    5624.7815 
   80000       79.988    340.26245    13.986395     -445.187    -431.2006   -8917.9976   -9201.9066   -2889.9752   -14662.111    15.396076    13.333328      27.4004    5624.7797 
   80500       80.488     345.7211    14.210771   -445.39452   -431.18374   -9890.6351   -6704.4681    -3238.136   -19729.301    15.396078     13.33333    27.400383    5624.7778 
   81000       80.988     341.7603    14.047963   -445.21512   -431.16715   -9934.9921   -4737.6987   -5647.4775     -19419.8    15.396081    13.333332    27.400365    5624.7759 
   81500       81.488    352.37902    14.484443   -445.63481   -431.15037    -9097.976   -5786.5358   -3147.2014   -18360.191    15.396083    13.333334    27.400348    5624.7741 
   82000       81.988    362.64308    14.906345   -446.03982   -431.13347   -10453.351   -4730.8336   -3113.7032   -23515.516    15.396085    13.333336     27.40033    5624.7722 
   82500       82.488    323.75408    13.307823   -444.42405   -431.11622   -8112.1586   -5759.1872     403.1211    -18980.41    15.396088    13.333338    27.400313    5624.7703 
   83000       82.988    329.92734    13.561573   -444.66031   -431.09874   -8554.5978   -5904.3466    660.63832   -20420.085     15.39609     13.33334    27.400295    5624.7685 
   83500       83.488    341.00203    14.016795   -445.09872   -431.08193    -8231.902   -5982.6121   -2554.0273   -16159.067    15.396092    13.333342    27.400278    5624.7666 
   84000       83.988    338.39652    13.909696   -444.97435   -431.06465   -8377.3248   -4935.7992   -3947.2049    -16248.97    15.396095    13.333344     27.40026    5624.7647 
   84500       84.488    334.48522    13.748923   -444.79678   -431.04786   -9154.0631   -5790.6447   -5094.9272   -16576.617    15.396097    13.333346    27.400243    5624.7629 
   85000       84.988    350.24405    14.396686   -445.42689    -431.0302   -9627.2567   -6246.4334    -2374.481   -20260.856    15.396099    13.333348    27.400225     5624.761 
   85500       85.488    337.95277    13.891456   -444.90383   -431.01237   -9667.5129   -5856.2317   -6454.0821   -16692.225    15.396102    13.333351    27.400208    5624.7591 
   86000       85.988    331.98794    13.646273   -444.64095   -430.99467   -9432.0431     -7348.71   -1966.0001   -18981.419    15.396104    13.333353     27.40019    5624.7572 
   86500       86.488    352.53174    14.490721   -445.46806   -430.97734   -9661.5477   -6454.2465   -3532.9675   -18997.429    15.396106    13.333355    27.400173    5624.7554 
   87000       86.988    367.33131    15.099053   -446.05898   -430.95992   -9872.0174   -5877.7099   -4503.7308   -19234.611    15.396109    13.333357    27.400155    5624.7535 
   87500       87.488     344.2579    14.150627   -445.09225   -430.94162   -8386.7527   -4446.9495   -3406.3643   -17306.944    15.396111    13.333359    27.400138    5624.7516 
   88000       87.988    327.37103    13.456496   -444.37952   -430.92302   -9251.8878     -3881.33    -4438.233     -19436.1    15.396114    13.333361     27.40012    5624.7498 
   88500       88.488    349.70992     14.37473   -445.28013    -430.9054   -10198.237   -7267.9986   -3285.8729   -20040.841    15.396116    13.333363    27.400103    5624.7479 
   89000       88.988    338.47625    13.912974   -444.80076   -430.88779   -10131.215   -5325.5129   -3710.1283   -21358.005    15.396118    13.333365    27.400085     5624.746 
   89500       89.488    352.90548    14.506083   -445.37552   -430.86944   -9834.6825   -6993.6085   -4718.0256   -17792.413    15.396121    13.333367    27.400068    5624.7442 
   90000       89.988    340.34302    13.989707   -444.84069   -430.85098   -10456.778    -5847.601   -3753.8455   -21768.887    15.396123    13.333369     27.40005    5624.7423 
   90500       90.488    340.14748    13.981669   -444.81409   -430.83242   -9018.6035   -6739.4368   -1926.7452   -18389.629    15.396125    13.333371    27.400033    5624.7404 
   91000       90.988    368.59164    15.150858   -445.96547   -430.81461   -9714.0298   -5482.1905   -4363.5695   -19296.329    15.396128    13.333373    27.400015    5624.7386 
   91500       91.488    334.48277    13.748823   -444.54384   -430.79502   -9537.5662    -5115.799   -3031.6195    -20465.28     15.39613    13.333375    27.399998    5624.7367 
   92000       91.988     350.9788    14.426888   -445.20347   -430.77658   -9200.0611    -7655.553   -2613.0641   -17331.566    15.396132    13.333377     27.39998    5624.7348 
   92500       92.488    344.30489    14.152558   -444.91022   -430.75766   -9019.5611   -4806.5679   -2219.6037   -20032.512    15.396135    13.333379    27.399963    5624.7329 
   93000       92.988    334.57903    13.752779   -444.49166   -430.73888   -7611.2027   -4633.4114   -2628.7068    -15571.49    15.396137    13.333381    27.399945    5624.7311 
   93500       93.488    344.68932     14.16836   -444.88789   -430.71953   -9148.3639   -7182.5905   -790.34089    -19472.16    15.396139    13.333383    27.399928    5624.7292 
   94000       93.988     338.2905    13.905338   -444.60554    -430.7002   -8916.0931   -4873.2594   -1898.9977   -19976.022    15.396142    13.333385     27.39991    5624.7273 
   94500       94.488    342.36577    14.072851   -444.75442   -430.68157   -9298.4832   -5081.1124   -4742.8417   -18071.495    15.396144    13.333387    27.399893    5624.7255 
   95000       94.988      362.256    14.890434   -445.55301   -430.66258   -9499.5968   -4457.4398   -3331.7672   -20709.583    15.396146    13.333389    27.399875    5624.7236 
   95500       95.488    344.33431    14.153767   -444.79684   -430.64307   -8637.6991   -7046.2332   -634.59639   -18232.268    15.396149    13.333392    27.399858    5624.7217 
   96000       95.988    357.80699    14.707558   -445.33166    -430.6241    -9351.449   -5090.4417   -4668.1403   -18295.765    15.396151    13.333394     27.39984    5624.7199 
   96500       96.488    368.01502    15.127157   -445.73159   -430.60443   -9602.2375   -5180.2687   -4145.2684   -19481.175    15.396153    13.333396    27.399823     5624.718 
   97000       96.988    350.63515    14.412762   -444.99745   -430.58469   -9897.3038   -6104.6021   -5661.9119   -17925.397    15.396156    13.333398    27.399805    5624.7161 
   97500       97.488    341.87934    14.052857   -444.61761   -430.56476   -9936.5321    -5832.607    -3250.815   -20726.174    15.396158      13.3334    27.399788    5624.7143 
   98000       97.988    336.18478    13.818783   -444.36397   -430.54519   -9482.4758   -5627.3492   -2520.8324   -20299.246    15.396161    13.333402     27.39977    5624.7124 
   98500       98.488    345.86712    14.216773   -444.74199   -430.52521   -10447.098   -8610.8939   -3011.1283   -19719.273    15.396163    13.333404    27.399753    5624.7105 
   99000       98.988    363.94951    14.960045   -445.46552   -430.50547   -9408.2694     -5306.33   -4791.3762   -18127.102    15.396165    13.333406    27.399735    5624.7086 
   99500       99.488    356.18056    14.640704   -445.12605   -430.48534   -7903.0204   -3536.1495   -1718.9222   -18453.989    15.396168    13.333408    27.399718    5624.7068 
  100000       99.988    344.75728    14.171154   -444.63686   -430.46571   -9662.2864   -5939.3774   -5542.9831   -17504.499     15.39617     13.33341      27.3997    5624.7049 
  100500      100.488    341.30869      14.0294   -444.47463   -430.44523   -9126.6204   -5593.6999   -2427.5708   -19358.591    15.396172    13.333412    27.399683     5624.703 
  101000      100.988    338.20184    13.901694   -444.32639    -430.4247   -8126.7064   -4288.5431   -1196.9504   -18894.626    15.396175    13.333414    27.399665    5624.7012 
  101500      101.488    353.77887    14.541984   -444.94694   -430.40496   -10420.487   -6023.9699   -3173.5356   -22063.954    15.396177    13.333416    27.399648    5624.6993 
  102000      101.988    347.31745    14.276389   -444.66036   -430.38397   -8067.5532   -4499.6766   -2691.1549   -17011.828    15.396179    13.333418     27.39963    5624.6974 
  102500      102.488    369.57334    15.191211   -445.55503   -430.36382   -9947.2112   -6325.3123   -2710.3687   -20805.953    15.396182     13.33342    27.399613    5624.6956 
  103000      102.988    374.29363    15.385237   -445.72841   -430.34317   -9084.1633   -4656.9343   -3439.9397   -19155.616    15.396184    13.333422    27.399595    5624.6937 
  103500      103.488     369.6285    15.193478   -445.51605   -430.32257   -9077.4835   -7271.0711   -3509.2291   -16452.151    15.396186    13.333424    27.399578    5624.6918 
  104000      103.988    361.36084    14.853639   -445.15543   -430.30179   -10099.929   -5921.6532   -5748.9539   -18629.181    15.396189    13.333426     27.39956      5624.69 
  104500      104.488    370.07251    15.211729   -445.49257   -430.28084   -9408.5857   -6847.9081   -4807.3327   -16570.516    15.396191    13.333428    27.399543    5624.6881 
  105000      104.988    352.55971     14.49187   -444.75195   -430.26008   -9714.4415   -5730.6407   -2425.3845   -20987.299    15.396193     13.33343    27.399525    5624.6862 
  105500      105.488    354.70915    14.580223   -444.81888   -430.23865   -9674.2562   -6669.8127   -1869.0696   -20483.886    15.396196    13.333433    27.399508    5624.6843 
  106000      105.988    357.91362    14.711941   -444.93008   -430.21814   -9816.4804   -6254.1587   -2202.0209   -20993.262    15.396198    13.333435     27.39949    5624.6825 
  106500      106.488    355.72495    14.621977   -444.81883   -430.19685   -9212.2642    -4747.411    -4210.131   -18679.251      15.3962    13.333437    27.399473    5624.6806 
  107000      106.988     354.7519     14.58198   -444.75777   -430.17579   -8269.0923   -3621.8768   -3339.3554   -17846.045    15.396203    13.333439    27.399455    5624.6787 
  107500      107.488    364.45892    14.980984   -445.13525   -430.15427   -9543.9896   -7246.8593   -5893.8812   -15491.228    15.396205    13.333441    27.399438    5624.6769 
  108000      107.988    355.45088    14.610711   -444.74377   -430.13306   -8628.2755   -5256.5553     -3028.41   -17599.861    15.396208    13.333443     27.39942     5624.675 
  108500      108.488    365.50845    15.024125   -445.13552    -430.1114   -8820.5882   -5128.4849   -4288.2343   -17045.045     15.39621    13.333445    27.399403    5624.6731 
  109000      108.988    345.01535    14.181761   -444.27159   -430.08983   -10283.224   -6057.2133   -4721.7185   -20070.741    15.396212    13.333447    27.399385    5624.6713 
  109500      109.488    372.12865    15.296246   -445.36466   -430.06842   -9063.1472   -6243.0477   -1837.9643    -19108.43    15.396215    13.333449    27.399368    5624.6694 
  110000      109.988    357.18135    14.681842   -444.72863   -430.04679   -9635.7433   -7666.7608   -2101.9804   -19138.489    15.396217    13.333451     27.39935    5624.6675 
  110500      110.488    359.23552    14.766278   -444.79143   -430.02515   -8417.4664   -6908.6898   -1609.4028   -16734.307    15.396219    13.333453    27.399333    5624.6657 
  111000      110.988    367.14486    15.091389   -445.09441   -430.00302   -9342.8105   -5573.7012   -529.38766   -21925.343    15.396222    13.333455    27.399315    5624.6638 
  111500      111.488    356.43524    14.651173   -444.63267   -429.98149   -9502.4591     -6599.71   -1204.8515   -20702.816    15.396224    13.333457    27.399298    5624.6619 
  112000      111.988    375.86558    15.449852   -445.41024   -429.96038   -8370.6256   -5554.3324    -4412.224    -15145.32    15.396226    13.333459     27.39928      5624.66 
  112500      112.488     358.9298    14.753711   -444.69119   -429.93748   -9340.4899   -3856.4307   -2416.7278   -21748.311    15.396229    13.333461    27.399263    5624.6582 
  113000      112.988    365.66582    15.030593   -444.94606   -429.91547   -9097.5142   -5783.1344   -2268.8546   -19240.554    15.396231    13.333463    27.399245    5624.6563 
  113500      113.488    369.46215     15.18664   -445.08136   -429.89471   -8555.2043   -3903.8565   -2510.7021   -19251.054    15.396233    13.333465    27.399228    5624.6544 
  114000      113.988    368.05193    15.128674   -445.00065   -429.87198    -10255.31   -6874.4401   -3638.1415   -20253.349    15.396236    13.333467     27.39921    5624.6526 
  114500      114.488    347.14395    14.269257   -444.11933   -429.85007    -7700.028   -5441.3893   -1763.5042    -15895.19    15.396238    13.333469    27.399193    5624.6507 
  115000      114.988    376.99031    15.496083   -445.32443   -429.82834   -9424.2675   -5979.5075    -492.5269   -21800.768     15.39624    13.333471    27.399175    5624.6488 
  115500      115.488    357.69991    14.703157   -444.50934   -429.80618   -10067.294    -6423.415   -2469.0714   -21309.396    15.396243    13.333474    27.399158     5624.647 
  116000      115.988    362.25533    14.890406   -444.67479   -429.78438   -8741.2433   -5374.9391    -3571.908   -17276.883    15.396245    13.333476     27.39914    5624.6451 
  116500      116.488    361.75351    14.869779   -444.63177   -429.76199   -8241.3644   -2337.4316   -4299.1099   -18087.552    15.396247    13.333478    27.399123    5624.6432 
  117000      116.988     359.9883     14.79722   -444.53675   -429.73953     -8662.76   -6366.0012   -27.704885   -19594.574     15.39625     13.33348    27.399105    5624.6414 
  117500      117.488    337.33754    13.866167   -443.58323   -429.71706   -9498.3442   -6118.0502   -2804.3365   -19572.646    15.396252    13.333482    27.399088    5624.6395 
  118000      117.988    352.55486    14.491671   -444.18585   -429.69418   -8093.0821   -6762.6519   -677.69463     -16838.9    15.396255    13.333484     27.39907    5624.6376 
  118500      118.488    365.72307    15.032947   -444.70492   -429.67197   -9622.5684    -2557.706   -4152.1164   -22157.883    15.396257    13.333486    27.399053    5624.6357 
  119000      118.988    347.19263    14.271258   -443.92019   -429.64893    -7971.148   -4245.2519    -1517.199   -18150.993    15.396259    13.333488    27.399035    5624.6339 
  119500      119.488    376.65248    15.482197   -445.10899    -429.6268   -9759.5737   -8343.4478   -2769.6121   -18165.661    15.396262     13.33349    27.399018     5624.632 
  120000      119.988    360.34582    14.811916   -444.41624   -429.60432   -9069.8168   -5241.7608   -2740.0568   -19227.633    15.396264    13.333492       27.399    5624.6301 
  120500      120.488    383.99201    15.783887   -445.36586   -429.58197   -8861.2478   -6345.5058   -868.96513   -19369.272    15.396266    13.333494    27.398983    5624.6283 
  121000      120.988    374.40933    15.389993   -444.94908   -429.55908   -9059.0203   -6725.3339   -2704.5858   -17747.141    15.396269    13.333496    27.398965    5624.6264 
  121500      121.488     371.9832    15.290268   -444.82652   -429.53626   -8147.6232   -4951.5063   -60.884762   -19430.479    15.396271    13.333498    27.398948    5624.6245 
  122000      121.988     370.6188    15.234184   -444.74815   -429.51397    -9805.659   -7784.1242   -2444.8043   -19188.048    15.396273      13.3335     27.39893    5624.6227 
  122500      122.488    367.14572    15.091424   -444.58294   -429.49151     -8971.35   -2810.8306    -6913.504   -17189.716    15.396276    13.333502    27.398913    5624.6208 
  123000      122.988    357.51821    14.695688   -444.16459    -429.4689   -8540.8638   -5625.6159   -2086.8263   -17910.149    15.396278    13.333504    27.398895    5624.6189 
  123500      123.488    373.39289    15.348212   -444.79447   -429.44626   -9729.2202   -5945.5752   -2724.9389   -20517.147     15.39628    13.333506    27.398878    5624.6171 
  124000      123.988    353.68856    14.538271   -443.96134   -429.42306    -8628.604    -4828.417   -2288.1449    -18769.25    15.396283    13.333508     27.39886    5624.6152 
  124500      124.488     375.6459    15.440822   -444.84094   -429.40012   -8835.5589    -5736.032   -3324.2378   -17446.407    15.396285     13.33351    27.398843    5624.6133 
  125000      124.988    358.79423    14.748138   -444.12541   -429.37727    -8904.505    -3083.798   -2924.2738   -20705.443    15.396287    13.333512    27.398825    5624.6114 
  125500      125.488    361.07739    14.841987   -444.19643   -429.35444     -8329.28   -5821.1416   -1790.3198   -17376.378     15.39629    13.333515    27.398808    5624.6096 
  126000      125.988     370.8691    15.244473   -444.57631   -429.33183   -8590.4298   -7957.9429   -2416.5446   -15396.802    15.396292    13.333517     27.39879    5624.6077 
  126500      126.488    371.86182    15.285278   -444.59399   -429.30871   -8235.1615   -5340.8627   -2311.7911   -17052.831    15.396294    13.333519    27.398773    5624.6058 
  127000      126.988    354.98173    14.591427   -443.87739   -429.28596   -8759.1162    -4549.309   -874.52486   -20853.515    15.396297    13.333521    27.398755     5624.604 
  127500      127.488    374.60784    15.398153   -444.66126   -429.26311   -9019.0442   -4714.9174   -2699.4766   -19642.739    15.396299    13.333523    27.398738    5624.6021 
  128000      127.988     368.0197    15.127349   -444.36774   -429.24039   -9179.8749   -7503.7065   -1979.7455   -18056.173    15.396302    13.333525     27.39872    5624.6002 
  128500      128.488    362.57251    14.903444   -444.12072   -429.21727   -7633.8262   -3342.5687   -595.14749   -18963.762    15.396304    13.333527    27.398703    5624.5984 
  129000      128.988    371.51551    15.271043   -444.46467   -429.19363   -8155.9161   -4598.5762   -2073.4772   -17795.695    15.396306    13.333529    27.398685    5624.5965 
  129500      129.488    357.88527    14.710776   -443.88125   -429.17047   -8726.0331   -4580.9647   -2383.1521   -19213.983    15.396309    13.333531    27.398668    5624.5946 
  130000      129.988    374.75996    15.404406   -444.55118   -429.14678   -7769.9681   -2644.9395   -6228.8705   -14436.094    15.396311    13.333533     27.39865    5624.5928 
  130500      130.488    364.73416    14.992298   -444.11555   -429.12325   -8152.5145   -3685.4245   -1987.1996   -18784.919    15.396313    13.333535    27.398633    5624.5909 
  131000      130.988    372.59792    15.315535   -444.41577   -429.10023   -8644.3584   -5489.8269   -1932.6393   -18510.609    15.396316    13.333537    27.398615     5624.589 
  131500      131.488    351.98834    14.468384   -443.54532   -429.07694   -7358.1501    -3293.363    880.32024   -19661.408    15.396318    13.333539    27.398598    5624.5871 
  132000      131.988     364.7242    14.991888   -444.04553   -429.05364   -8698.3953   -1871.7083   -3597.5715   -20625.906     15.39632    13.333541     27.39858    5624.5853 
  132500      132.488    362.93575    14.918374   -443.94863   -429.03025   -7264.0395   -5379.0207   -3788.0625   -12625.035    15.396323    13.333543    27.398563    5624.5834 
  133000      132.988    356.67148    14.660884   -443.66785   -429.00697   -8134.9338    -1628.311    -4003.794   -18772.697    15.396325    13.333545    27.398545    5624.5815 
  133500      133.488     371.8017    15.282807   -444.26634   -428.98353   -9204.6965   -2346.5026   -7276.2665    -17991.32    15.396327    13.333547    27.398528    5624.5797 
  134000      133.988    378.50197     15.55822   -444.51869   -428.96047   -8947.1109   -6588.0339   -2625.9967   -17627.302     15.39633    13.333549     27.39851    5624.5778 
  134500      134.488    366.45463    15.063017   -443.99933   -428.93631   -7761.6109   -4507.7634   -1607.7715   -17169.298    15.396332    13.333551    27.398493    5624.5759 
  135000      134.988    381.10183    15.665086   -444.57781   -428.91272   -9383.0501   -3878.4859   -4107.3281   -20163.336    15.396334    13.333553    27.398475    5624.5741 
  135500      135.488    387.89234    15.944209   -444.83356   -428.88935   -8460.8973   -3042.9066    -4536.633   -17803.152    15.396337    13.333556    27.398458    5624.5722 
  136000      135.988    398.70581    16.388693   -445.25468   -428.86598   -8923.1549    -3483.028   -3392.4642   -19893.973    15.396339    13.333558     27.39844    5624.5703 
  136500      136.488    389.68939    16.018076   -444.85969   -428.84162   -8570.1945   -3823.0652   -3049.3382    -18838.18    15.396341     13.33356    27.398423    5624.5685 
  137000      136.988    394.01686    16.195955   -445.01409   -428.81814   -8882.4694   -4211.9694   -3098.0974   -19337.341    15.396344    13.333562    27.398405    5624.5666 
  137500      137.488    360.15037    14.803882   -443.59737   -428.79348   -8294.5801   -2376.9237   -2055.0056   -20451.811    15.396346    13.333564    27.398388    5624.5647 
  138000      137.988     374.8861     15.40959   -444.17992   -428.77033   -7953.6651   -4709.0188   -1367.4324   -17784.544    15.396349    13.333566     27.39837    5624.5628 
  138500      138.488    392.21198    16.121766   -444.86855   -428.74678    -7612.673   -3080.3295   -3777.8253   -15979.864    15.396351    13.333568    27.398353     5624.561 
  139000      138.988    355.08085    14.595501   -443.31755   -428.72205   -6600.2497    -4401.838    -915.0336   -14483.878    15.396353     13.33357    27.398335    5624.5591 
  139500      139.488    378.27063    15.548711   -444.24791    -428.6992   -9759.1178   -6666.3625   -5444.0932   -17166.898    15.396356    13.333572    27.398318    5624.5572 
  140000      139.988    385.53459    15.847294   -444.52262   -428.67533   -7004.9219   -2410.3991   -1447.8888   -17156.478    15.396358    13.333574      27.3983    5624.5554 
  140500      140.488    403.26576    16.576129   -445.22799   -428.65186   -8383.0893   -5573.7578   -1853.7866   -17721.723     15.39636    13.333576    27.398283    5624.5535 
  141000      140.988    380.85325    15.654869    -444.2827   -428.62783   -8503.4422   -966.54863   -2215.5927   -22328.185    15.396363    13.333578    27.398265    5624.5516 
  141500      141.488    387.33669    15.921369   -444.52496    -428.6036   -8295.2453   -4309.9748   -1635.2094   -18940.552    15.396365     13.33358    27.398248    5624.5498 
  142000      141.988    362.49582    14.900291   -443.47935   -428.57906    -8581.696   -4639.0633   -1942.6741   -19163.351    15.396367    13.333582     27.39823    5624.5479 
  142500      142.488    369.00825    15.167983   -443.72294   -428.55495   -8495.6172     -5925.61   -3385.7441   -16175.498     15.39637    13.333584    27.398213     5624.546 
  143000      142.988    379.49867    15.599189   -444.13007   -428.53088   -8098.0648   -2970.9402   -2446.7814   -18876.473    15.396372    13.333586    27.398195    5624.5442 
  143500      143.488    385.96159    15.864846   -444.37193   -428.50709   -8792.0188    -4251.646   -1851.9116   -20272.499    15.396374    13.333588    27.398178    5624.5423 
  144000      143.988     368.3344    15.140285   -443.62329   -428.48301   -8316.1898   -4038.7152   -3907.3375   -17002.517    15.396377     13.33359     27.39816    5624.5404 
  144500      144.488    348.61799    14.329847   -442.78856   -428.45872   -8657.9082    -4484.174   -1973.8529   -19515.698    15.396379    13.333592    27.398143    5624.5385 
  145000      144.988    365.08479     15.00671   -443.44107   -428.43436   -7612.7321   -2945.5225   -2211.3414   -17681.332    15.396381    13.333594    27.398125    5624.5367 
  145500      145.488    377.60291    15.521264   -443.93187    -428.4106   -9297.8556   -6358.0009   -3711.2727   -17824.293    15.396384    13.333597    27.398108    5624.5348 
  146000      145.988      390.577    16.054561   -444.44136    -428.3868   -8023.6168   -2364.0812   -2836.4665   -18870.303    15.396386    13.333599     27.39809    5624.5329 
  146500      146.488    363.50374    14.941722   -443.30442    -428.3627   -7790.9327   -952.39232   -3399.6284   -19020.777    15.396388    13.333601    27.398073    5624.5311 
  147000      146.988     393.3481    16.168466   -444.50741   -428.33894   -7959.0747   -4555.7285   -236.71305   -19084.783    15.396391    13.333603    27.398055    5624.5292 
  147500      147.488    375.68791    15.442549   -443.75686   -428.31431    -7326.506   -1540.5237   -3029.3491   -17409.645    15.396393    13.333605    27.398038    5624.5273 
  148000      147.988    400.54514    16.464298   -444.75481   -428.29051   -8220.4646   -4927.3221   -1880.3921    -17853.68    15.396396    13.333607     27.39802    5624.5255 
  148500      148.488    383.39699    15.759428   -444.02502   -428.26559    -7575.983   -3138.4437    -1303.359   -18286.146    15.396398    13.333609    27.398003    5624.5236 
  149000      148.988    398.76747    16.391228   -444.63296   -428.24173    -8844.465   -5884.7411    -702.9944   -19945.659      15.3964    13.333611    27.397985    5624.5217 
  149500      149.488      369.439    15.185689   -443.40219    -428.2165   -8421.1831   -4700.9971   -3690.4982   -16872.054    15.396403    13.333613    27.397968    5624.5199 
  150000      149.988    358.61145    14.740625    -442.9332   -428.19257   -6036.8408    -1556.078   -3089.1318   -13465.313    15.396405    13.333615     27.39795     5624.518 
  150500      150.488    349.44388    14.363795   -442.53176   -428.16797   -7194.6705   -2905.0943   -3144.2107   -15534.706    15.396407    13.333617    27.397933    5624.5161 
  151000      150.988    393.03682    16.155671   -444.30036   -428.14469   -9084.1048   -4687.7999   -2034.3126   -20530.202     15.39641    13.333619    27.397915    5624.5142 
  151500      151.488    371.87216    15.285703   -443.40548   -428.11978   -8743.7518   -4527.2507   -1680.0346    -20023.97    15.396412    13.333621    27.397898    5624.5124 
  152000      151.988    394.41717     16.21241   -444.30792   -428.09551   -8224.8438   -3440.8464   -1574.9506   -19658.734    15.396414    13.333623     27.39788    5624.5105 
  152500      152.488    393.72657    16.184023   -444.25474   -428.07072   -8785.8518   -3284.4776   -2074.4625   -20998.615    15.396417    13.333625    27.397863    5624.5086 
  153000      152.988    373.02623    15.333141   -443.37939   -428.04625   -7827.3587   -1763.5312    9.5149129    -21728.06    15.396419    13.333627    27.397845    5624.5068 
  153500      153.488     390.4345    16.048703   -444.07107   -428.02237    -8543.692   -3476.8172    -2559.748   -19594.511    15.396421    13.333629    27.397828    5624.5049 
  154000      153.988    403.58743    16.589351   -444.58757   -427.99822   -8375.2261   -4091.4284   -2537.0062   -18497.244    15.396424    13.333631     27.39781     5624.503 
  154500      154.488    402.81615    16.557648   -444.53086   -427.97321    -8404.762   -3768.6438   -2410.5753   -19035.067    15.396426    13.333633    27.397793    5624.5012 
  155000      154.988     351.6794    14.455685   -442.40378   -427.94809   -6905.3178   -2384.0374   -1882.0352   -16449.881    15.396428    13.333635    27.397775    5624.4993 
  155500      155.488    376.07188    15.458332    -443.3817   -427.92336   -7597.0989   -2116.7279   -1645.5243   -19029.044    15.396431    13.333638    27.397758    5624.4974 
  156000      155.988    380.03613    15.621281   -443.51983   -427.89855   -6839.0395   -586.68796    254.06734   -20184.498    15.396433     13.33364     27.39774    5624.4956 
  156500      156.488    378.56859    15.560958   -443.43468   -427.87372   -8237.5157    -3522.272   -3495.4879   -17694.787    15.396435    13.333642    27.397723    5624.4937 
  157000      156.988    393.61784    16.179553    -444.0287   -427.84915   -7329.0127   -4984.6752    -4228.966   -12773.397    15.396438    13.333644    27.397705    5624.4918 
  157500      157.488    393.33367    16.167873   -443.99252   -427.82464   -8194.6159   -4801.0341   -2104.5423   -17678.271     15.39644    13.333646    27.397688    5624.4899 
  158000      157.988    382.52448    15.723564   -443.52292   -427.79936   -7505.1584   -5557.2218   -1937.7491   -15020.504    15.396443    13.333648     27.39767    5624.4881 
  158500      158.488    379.68732    15.606943   -443.38162   -427.77468   -8434.4184   -4029.9401   -2018.5334   -19254.782    15.396445     13.33365    27.397653    5624.4862 
  159000      158.988    394.24612    16.205379   -443.95558    -427.7502   -7252.7373   -1647.0179    -2318.874    -17792.32    15.396447    13.333652    27.397635    5624.4843 
  159500      159.488     364.6432    14.988559   -442.71373   -427.72517   -7296.0653   -3097.3516   -1638.0714   -17152.773     15.39645    13.333654    27.397618    5624.4825 
  160000      159.988    389.60079    16.014434   -443.71504    -427.7006   -8566.2177   -2893.9176   -1574.5081   -21230.228    15.396452    13.333656      27.3976    5624.4806 
  160500      160.488    398.49107    16.379866   -444.05564   -427.67578   -8475.2303   -4740.6784   -2657.5435   -18027.469    15.396454    13.333658    27.397583    5624.4787 
  161000      160.988    379.11262     15.58332   -443.23447   -427.65115   -8391.3235   -4608.4944   -1454.3923   -19111.084    15.396457     13.33366    27.397565    5624.4769 
  161500      161.488    376.42086    15.472676   -443.09827    -427.6256   -7174.6875   -3345.9803   -1908.2573   -16269.825    15.396459    13.333662    27.397548     5624.475 
  162000      161.988    376.70366    15.484301   -443.08476   -427.60046   -7145.2698   -5037.8763   -1341.4966   -15056.436    15.396461    13.333664     27.39753    5624.4731 
  162500      162.488    375.51028    15.435247   -443.01087   -427.57562   -8255.3793   -5571.7976   -2150.3687   -17043.972    15.396464    13.333666    27.397513    5624.4713 
  163000      162.988    385.08389    15.828768   -443.37989   -427.55112    -8038.919    -4643.751   -866.12746   -18606.879    15.396466    13.333668    27.397495    5624.4694 
  163500      163.488    407.69535    16.758206   -444.28416   -427.52595   -7571.9993   -5621.5797     228.6696   -17323.088    15.396468     13.33367    27.397478    5624.4675 
  164000      163.988    396.57399    16.301065   -443.80153   -427.50047   -8898.9396   -7269.9371    -927.5313    -18499.35    15.396471    13.333672     27.39746    5624.4656 
  164500      164.488    388.75997    15.979872   -443.45476   -427.47488   -7347.2217   -3383.6112   -1234.8642    -17423.19    15.396473    13.333674    27.397443    5624.4638 
  165000      164.988    396.96036    16.316947   -443.76679   -427.44984   -8760.7395   -6488.2087   -1392.4673   -18401.543    15.396475    13.333676    27.397425    5624.4619 
  165500      165.488    385.44292    15.843525   -443.26862   -427.42509   -7520.7441   -3557.2684   -2532.6256   -16472.338    15.396478    13.333679    27.397408      5624.46 
  166000      165.988    394.16852    16.202189   -443.60178   -427.39959   -8887.3826   -5608.8514   -5214.3561    -15838.94     15.39648    13.333681     27.39739    5624.4582 
  166500      166.488    394.47021     16.21459   -443.58899    -427.3744   -8644.6709   -5910.6541    -3073.708   -16949.651    15.396482    13.333683    27.397373    5624.4563 
  167000      166.988    376.00908     15.45575   -442.80453   -427.34878   -6677.2036   -1694.4601     -263.798   -18073.353    15.396485    13.333685    27.397355    5624.4544 
  167500      167.488     377.3605      15.5113   -442.83507   -427.32377   -6766.7318   -4107.9618   -1172.0379   -15020.196    15.396487    13.333687    27.397338    5624.4526 
  168000      167.988    389.14599    15.995739    -443.2942   -427.29847   -7004.3044   -4760.3808   -1506.4574   -14746.075     15.39649    13.333689     27.39732    5624.4507 
  168500      168.488    409.31353     16.82472   -444.09846   -427.27374   -8771.7151   -5699.4126   -3577.1443   -17038.588    15.396492    13.333691    27.397303    5624.4488 
  169000      168.988    392.84081    16.147614   -443.39544   -427.24782   -8091.9184   -4345.9156   -277.75444   -19652.085    15.396494    13.333693    27.397285    5624.4469 
  169500      169.488    410.56167    16.876025   -444.09912    -427.2231   -9014.3985   -3694.3802   -3787.8909   -19560.924    15.396497    13.333695    27.397268    5624.4451 
  170000      169.988    376.82593    15.489327   -442.68641   -427.19708   -7046.1205   -3697.4347     48.77288     -17489.7    15.396499    13.333697     27.39725    5624.4432 
  170500      170.488    382.50344    15.722699   -442.89445   -427.17175   -7509.8252   -4712.4865   -2255.2891     -15561.7    15.396501    13.333699    27.397233    5624.4413 
  171000      170.988    397.40141    16.335076   -443.48158    -427.1465    -8428.867   -6427.6121    1909.1906    -20768.18    15.396504    13.333701    27.397215    5624.4395 
  171500      171.488     389.5842    16.013752   -443.13457   -427.12082   -7282.0657   -2705.0223   -771.72083   -18369.454    15.396506    13.333703    27.397198    5624.4376 
  172000      171.988    380.12514     15.62494   -442.72051   -427.09557   -6271.3341   -3836.1984   -494.58042   -14483.223    15.396508    13.333705     27.39718    5624.4357 
  172500      172.488    401.57445    16.506608   -443.57652   -427.06991   -8778.9603   -5515.1307   -2181.4434   -18640.307    15.396511    13.333707    27.397163    5624.4339 
  173000      172.988    370.91109    15.246199    -442.2902     -427.044   -7386.1173   -2730.6315   -2857.5385   -16570.182    15.396513    13.333709    27.397145     5624.432 
  173500      173.488     376.0906    15.459101   -442.47768   -427.01858   -7864.9336   -3491.9256    117.92095   -20220.796    15.396515    13.333711    27.397128    5624.4301 
  174000      173.988    403.33128    16.578822   -443.57216   -426.99334    -7171.843     -2703.45   -96.368382    -18715.71    15.396518    13.333713     27.39711    5624.4283 
  174500      174.488    374.43344    15.390984   -442.35826   -426.96727   -6250.6274   -4489.4497   -1690.9353   -12571.497     15.39652    13.333715    27.397093    5624.4264 
  175000      174.988    400.62619     16.46763   -443.40912   -426.94149   -7726.5598   -5930.6536   -2170.4374   -15078.588    15.396522    13.333717    27.397075    5624.4245 
  175500      175.488    402.06443    16.526748   -443.44277   -426.91602   -7909.2936   -4928.9596   -2105.9164   -16693.005    15.396525     13.33372    27.397058    5624.4226 
  176000      175.988    397.22581    16.327858   -443.21874   -426.89088   -6759.5393   -2656.6374   -297.66873   -17324.312    15.396527    13.333722     27.39704    5624.4208 
  176500      176.488    402.67341     16.55178    -443.4165   -426.86472   -7790.9265   -6732.1357   -623.18395    -16017.46    15.396529    13.333724    27.397023    5624.4189 
  177000      176.988    378.22366     15.54678   -442.38536   -426.83858   -8042.3222   -8373.8494    1368.9424    -17122.06    15.396532    13.333726    27.397005     5624.417 
  177500      177.488    403.79173    16.597748   -443.41149   -426.81375   -7211.0893   -5547.6294   -182.18153   -15903.457    15.396534    13.333728    27.396988    5624.4152 
  178000      177.988    394.18902    16.203032   -442.98988   -426.78685   -7330.6776   -2285.2229    -2172.122   -17534.688    15.396537     13.33373     27.39697    5624.4133 
  178500      178.488    407.96386    16.769243   -443.53143   -426.76219   -8953.8991   -5148.3849   -4533.3263   -17179.986    15.396539    13.333732    27.396953    5624.4114 
  179000      178.988     410.5029    16.873609   -443.60921    -426.7356   -7341.5669   -86.632163    -3495.056   -18443.012    15.396541    13.333734    27.396935    5624.4096 
  179500      179.488    406.94868    16.727514   -443.43781   -426.71029   -8393.8566   -2811.0487   -3427.2743   -18943.247    15.396544    13.333736    27.396918    5624.4077 
  180000      179.988    391.93587    16.110416   -442.79387   -426.68346    -8501.665   -2864.1847    -3146.013   -19494.797    15.396546    13.333738      27.3969    5624.4058 
  180500      180.488    397.62603    16.344309   -443.00203   -426.65772    -7817.703   -5366.6329   -4295.8985   -13790.578    15.396548     13.33374    27.396883     5624.404 
  181000      180.988    385.63724    15.851513   -442.48359   -426.63207   -6464.3724   -3866.9819   -1233.0158   -14293.119    15.396551    13.333742    27.396865    5624.4021 
  181500      181.488     387.2993    15.919832   -442.52551   -426.60568   -8051.1792   -5045.6353   -1268.6065   -17839.296    15.396553    13.333744    27.396848    5624.4002 
  182000      181.988    391.51058    16.092935   -442.67318   -426.58024   -7104.4662   -5506.8455    -1228.952   -14577.601    15.396555    13.333746     27.39683    5624.3983 
  182500      182.488    400.20472    16.450305    -443.0048    -426.5545   -7518.8454    -6658.055    467.95568   -16366.437    15.396558    13.333748    27.396813    5624.3965 
  183000      182.988    390.04328    16.032622   -442.56051   -426.52789   -8088.5256   -5689.8005   -5060.7395   -13515.037     15.39656     13.33375    27.396795    5624.3946 
  183500      183.488    416.65177    17.126357   -443.62843   -426.50208   -8310.7089   -3019.2353   -3824.0592   -18088.832    15.396562    13.333752    27.396778    5624.3927 
  184000      183.988    406.39003    16.704551    -443.1808   -426.47625   -6749.1654   -5648.0185   -999.16319   -13600.315    15.396565    13.333754     27.39676    5624.3909 
  184500      184.488    402.17723    16.531385    -442.9817   -426.45032   -8347.9183   -1811.6475    672.46293    -23904.57    15.396567    13.333756    27.396743     5624.389 
  185000      184.988    389.08986    15.993432   -442.41733    -426.4239   -7446.9039   -4637.3141     -2402.95   -15300.448    15.396569    13.333758    27.396725    5624.3871 
  185500      185.488    390.61056     16.05594   -442.45369   -426.39775   -7870.9472   -1570.6307   -2204.1642   -19838.047    15.396572    13.333761    27.396708    5624.3853 
  186000      185.988    415.66556    17.085819   -443.45739   -426.37157   -8011.0995   -3930.3733   -2677.1871   -17425.738    15.396574    13.333763     27.39669    5624.3834 
  186500      186.488    378.34428    15.551738   -441.89714   -426.34541   -6470.5706   -1783.6071   -1254.5744    -16373.53    15.396576    13.333765    27.396673    5624.3815 
  187000      186.988     403.6263    16.590948   -442.91032   -426.31937   -7555.5677   -2744.8964   -4562.2761   -15359.531    15.396579    13.333767    27.396655    5624.3796 
  187500      187.488    428.38288    17.608561   -443.90204   -426.29348   -7942.6328   -3981.6722   -3308.0175   -16538.209    15.396581    13.333769    27.396638    5624.3778 
  188000      187.988    397.26676    16.329541   -442.59609   -426.26654    -8337.218   -1693.5853   -1632.2889    -21685.78    15.396584    13.333771     27.39662    5624.3759 
  188500      188.488     410.9235    16.890898   -443.13219   -426.24129   -7188.6321   -6284.7282    1214.2002   -16495.368    15.396586    13.333773    27.396603     5624.374 
  189000      188.988      413.076    16.979376   -443.19388    -426.2145   -8030.4355   -3630.4686   -1117.1714   -19343.666    15.396588    13.333775    27.396585    5624.3722 
  189500      189.488    401.27357     16.49424   -442.68248   -426.18824   -7618.4403    -3532.655   -3639.0824   -15683.583    15.396591    13.333777    27.396568    5624.3703 
  190000      189.988    409.16435    16.818588   -442.97988    -426.1613   -6988.6672   -3995.6824   -1796.9066   -15173.413    15.396593    13.333779     27.39655    5624.3684 
  190500      190.488    413.17293     16.98336   -443.11805   -426.13469   -7806.0142   -3458.6602   -1933.5516   -18025.831    15.396595    13.333781    27.396533    5624.3666 
  191000      190.988    401.97252     16.52297   -442.63143   -426.10846    -6088.174    248.95834    -2282.679   -16230.801    15.396598    13.333783    27.396515    5624.3647 
  191500      191.488    427.38837    17.567682   -443.65004   -426.08236   -6901.0001   -1072.2126   -977.25698   -18653.531      15.3966    13.333785    27.396498    5624.3628 
  192000      191.988    408.53955    16.792906   -442.84868   -426.05578   -8198.1345   -3885.7534   -3603.1638   -17105.486    15.396602    13.333787     27.39648     5624.361 
  192500      192.488     389.3081    16.002403   -442.03153   -426.02912   -6835.3738   -3906.6863   -389.92085   -16209.514    15.396605    13.333789    27.396463    5624.3591 
  193000      192.988    413.80668     17.00941   -443.01207   -426.00266   -8191.2001   -3622.6463    -3965.618   -16985.336    15.396607    13.333791    27.396445    5624.3572 
  193500      193.488    429.95611    17.673228   -443.64988   -425.97665   -6870.8154   -3009.6794    -1896.348   -15706.419    15.396609    13.333793    27.396428    5624.3553 
  194000      193.988    401.10611    16.487357   -442.43662   -425.94926   -7344.9478    -2817.519   -4477.8084   -14739.516    15.396612    13.333795     27.39641    5624.3535 
  194500      194.488    419.10386    17.227149   -443.14998   -425.92283   -7397.4375   -4314.3348   -3799.4566   -14078.521    15.396614    13.333797    27.396393    5624.3516 
  195000      194.988    420.72389     17.29374   -443.19019   -425.89645   -7572.9902   -2898.1985   -1344.9014   -18475.871    15.396616    13.333799    27.396375    5624.3497 
  195500      195.488    416.73937    17.129958   -442.99979   -425.86983   -7691.8365   -5799.5433   -909.73557   -16366.231    15.396619    13.333802    27.396358    5624.3479 
  196000      195.988    407.21478    16.738452   -442.58167   -425.84322   -7071.2523   -4668.2346    342.40156   -16887.924    15.396621    13.333804     27.39634     5624.346 
  196500      196.488    417.84279    17.175314   -442.99243   -425.81712   -7578.6743     -4268.33   -1515.6146   -16952.078    15.396623    13.333806    27.396323    5624.3441 
  197000      196.988    416.15946    17.106121   -442.89669   -425.79057   -7114.0757   -182.39685   -3417.4628   -17742.368    15.396626    13.333808    27.396305    5624.3423 
  197500      197.488    404.84857     16.64119    -442.4043   -425.76311    -7153.232   -660.23611   -2280.2894   -18519.171    15.396628     13.33381    27.396288    5624.3404 
  198000      197.988    418.63792    17.207997   -442.94479   -425.73679   -5915.1619   -1590.5869    2321.5444   -18476.443    15.396631    13.333812     27.39627    5624.3385 
  198500      198.488    398.91165    16.397154   -442.10681   -425.70966   -7512.3957   -6408.4807   -668.78997   -15459.916    15.396633    13.333814    27.396253    5624.3367 
  199000      198.988    394.60628    16.220183   -441.90261   -425.68243   -6335.3505   -6760.4237     511.8076   -12757.436    15.396635    13.333816    27.396235    5624.3348 
  199500      199.488     433.3364    17.812174   -443.46878   -425.65661   -8300.2667   -7325.5608   -2124.2625   -15450.977    15.396638    13.333818    27.396218    5624.3329 
  200000      199.988    382.14108    15.707805   -441.33617   -425.62837   -5668.1587   -2300.7631    1201.7688   -15905.482     15.39664     13.33382      27.3962     5624.331 
  200500      200.488    420.49239    17.284225   -442.88628   -425.60205   -8127.0003   -2656.5001   -2732.5733   -18991.928    15.396642    13.333822    27.396183    5624.3292 
  201000      200.988    406.29555    16.700667   -442.27585   -425.57519   -5555.5877   -565.62905   -3390.6084   -12710.526    15.396645    13.333824    27.396165    5624.3273 
  201500      201.488    424.60909     17.45344   -443.00304    -425.5496   -5404.7256   -2452.5378   -1512.3349   -12249.304    15.396647    13.333826    27.396148    5624.3254 
  202000      201.988    436.62513    17.947356   -443.46999   -425.52264   -7212.0107   -4825.7059   -2569.0714   -14241.255    15.396649    13.333828     27.39613    5624.3236 
  202500      202.488     429.5465    17.656391   -443.15283   -425.49644   -6480.5161   -2210.3107   -2042.0354   -15189.202    15.396652     13.33383    27.396113    5624.3217 
  203000      202.988    435.00852    17.880906    -443.3508    -425.4699   -7775.5247   -3985.5743   -574.12723   -18766.873    15.396654    13.333832    27.396095    5624.3198 
  203500      203.488    405.04791    16.649383   -442.09144   -425.44206   -5869.2574   -1778.1115   -664.23519   -15165.425    15.396656    13.333834    27.396078     5624.318 
  204000      203.988    403.99142    16.605957   -442.02146    -425.4155   -6687.9659   -4977.3779   -607.67807   -14478.842    15.396659    13.333836     27.39606    5624.3161 
  204500      204.488    424.93234    17.466727    -442.8547   -425.38797   -7394.0603   -2998.3813   -3412.3597    -15771.44    15.396661    13.333838    27.396043    5624.3142 
  205000      204.988    399.64949    16.427483   -441.78895   -425.36147    -6121.611   -3993.4386    1329.5706   -15700.965    15.396663     13.33384    27.396025    5624.3123 
  205500      205.488    419.82204     17.25667   -442.59115   -425.33448   -6295.7122   -1050.7984   -397.71539   -17438.623    15.396666    13.333843    27.396008    5624.3105 
  206000      205.988    426.71872    17.540156   -442.84756    -425.3074   -7456.9853   -3976.7096   -965.75208   -17428.494    15.396668    13.333845     27.39599    5624.3086 
  206500      206.488    403.87839    16.601311   -441.88086   -425.27955   -6755.3792    -1308.181   -3746.6334   -15211.323     15.39667    13.333847    27.395973    5624.3067 
  207000      206.988    403.39765     16.58155   -441.83455     -425.253   -5586.7635   -826.16227   -931.18572   -15002.942    15.396673    13.333849    27.395955    5624.3049 
  207500      207.488     441.1207    18.132145   -443.35805   -425.22591   -7595.6816   -2478.9767   -3932.5089   -16375.559    15.396675    13.333851    27.395938     5624.303 
  208000      207.988    416.77866    17.131573   -442.32989   -425.19832    -8334.205    -3098.797   -2856.1337   -19047.684    15.396678    13.333853     27.39592    5624.3011 
  208500      208.488    416.26027    17.110264   -442.28153   -425.17127   -7402.3001   -5058.3054   -2039.3519   -15109.243     15.39668    13.333855    27.395903    5624.2993 
  209000      208.988    415.54679    17.080937   -442.22495   -425.14401   -6217.8058   -1294.0276   -1669.9283   -15689.461    15.396682    13.333857    27.395885    5624.2974 
  209500      209.488    421.17169    17.312147   -442.42952   -425.11737   -6873.6446    -4541.872   -1680.0862   -14398.976    15.396685    13.333859    27.395868    5624.2955 
  210000      209.988    424.63245      17.4544   -442.54434   -425.08993   -7239.3794    -4574.986   -200.86942   -16942.283    15.396687    13.333861     27.39585    5624.2937 
  210500      210.488    424.38627    17.444282   -442.50769   -425.06341   -6512.2932   -1576.2366   -4460.8971   -13499.746    15.396689    13.333863    27.395833    5624.2918 
  211000      210.988    420.06985    17.266856   -442.30297   -425.03612   -6352.3801   -1839.1384   -2071.5362   -15146.466    15.396692    13.333865    27.395815    5624.2899 
  211500      211.488     417.2417    17.150606   -442.15951    -425.0089   -7507.2627   -5980.5552    71.678059   -16612.911    15.396694    13.333867    27.395798     5624.288 
  212000      211.988    416.66643     17.12696   -442.10967   -424.98271   -5558.0604   -1241.7015   -1206.3942   -14226.086    15.396696    13.333869     27.39578    5624.2862 
[...]
  948500      948.488      590.678    24.279657   -437.97455   -413.69489   -1639.5423   -1183.2481    2875.6269   -6611.0058    15.400158    13.336889    27.370003    5621.5302 
  949000      948.988    558.77854    22.968439   -436.65928   -413.69084   -231.60108    1870.8971    5358.8003   -7924.5006     15.40016    13.336891    27.369985    5621.5283 
  949500      949.488    587.51705    24.149727   -437.83648   -413.68676   -3032.1299    3043.5394    3052.8991   -15192.828    15.400163    13.336893    27.369968    5621.5264 
  950000      949.988     606.5127    24.930539   -438.61383   -413.68329   -1550.8573    805.58355    2857.1552   -8315.3105    15.400165    13.336895     27.36995    5621.5246 
  950500      950.488    569.04523    23.390448   -437.06895    -413.6785   -1363.7505    478.27923    3137.9461   -7707.4768    15.400167    13.336897    27.369933    5621.5227 
  951000      950.988    554.00951    22.772409   -436.44742   -413.67501   -1926.4406   -1135.3996    4286.2964   -8930.2185     15.40017    13.336899    27.369915    5621.5208 
  951500      951.488    598.18006    24.588028    -438.2597   -413.67168    -1591.768   -2560.1702      4126.47   -6341.6039    15.400172    13.336901    27.369898     5621.519 
  952000      951.988    576.93038    23.714565   -437.38118   -413.66662   -1639.6944    93.593368    5453.7845   -10466.461    15.400174    13.336903     27.36988    5621.5171 
  952500      952.488    569.70078    23.417394   -437.07925   -413.66186   -1930.8368    131.76901    3478.1588   -9402.4382    15.400177    13.336905    27.369863    5621.5152 
  953000      952.988    557.63111    22.921274   -436.57938    -413.6581   -556.08218   -581.29149    5582.7435   -6669.6985    15.400179    13.336907    27.369845    5621.5133 
  953500      953.488    589.14284    24.216555   -437.87269   -413.65614    -1619.323    2614.3138   -133.93566    -7338.347    15.400181    13.336909    27.369828    5621.5115 
  954000      953.988    559.82898    23.011617    -436.6632   -413.65158   -1244.0318    2382.3281    2072.8755   -8187.2991    15.400184    13.336911     27.36981    5621.5096 
  954500      954.488    555.65536    22.840062   -436.48597   -413.64591   -1967.0296   -537.52102    1358.5738   -6722.1415    15.400186    13.336913    27.369793    5621.5077 
  955000      954.988    555.32199    22.826358     -436.468   -413.64164   -814.29376    2205.0277    1493.9615   -6141.8705    15.400188    13.336915    27.369775    5621.5058 
  955500      955.488    583.59997    23.988717   -437.62684   -413.63812   -2922.0796    -2164.415    3854.2695   -10456.093    15.400191    13.336918    27.369758     5621.504 
  956000      955.988    602.77353    24.776841   -438.41075   -413.63391   -2257.3322    889.95134    1614.0056   -9275.9536    15.400193     13.33692     27.36974    5621.5021 
  956500      956.488    556.79427    22.886876   -436.51607    -413.6292   -581.59524    3075.6245    4630.8245   -9451.2347    15.400195    13.336922    27.369723    5621.5002 
  957000      956.988    567.24663    23.316517   -436.94143   -413.62491   -1230.7221   -692.95743    6953.4387   -9952.6474    15.400198    13.336924    27.369705    5621.4984 
  957500      957.488    566.36635    23.280334    -436.9009   -413.62056   -1386.4451   -243.82693    2205.4488    -6120.957      15.4002    13.336926    27.369688    5621.4965 
  958000      957.988     567.3181    23.319455   -436.93477   -413.61532    530.58171    550.79605    6539.6108   -5498.6617    15.400203    13.336928     27.36967    5621.4946 
  958500      958.488    558.42634    22.953962   -436.56602   -413.61206    -1061.978    1529.4073    2281.8812   -6997.2227    15.400205     13.33693    27.369653    5621.4927 
  959000      958.988    576.28826    23.688171   -437.29518   -413.60701   -1705.7519   -1569.4093    3964.5708   -7512.4172    15.400207    13.336932    27.369635    5621.4909 
  959500      959.488    580.42394    23.858167   -437.46119   -413.60302   -1510.0468    -605.8979    2324.5297   -6248.7723     15.40021    13.336934    27.369618     5621.489 
  960000      959.988    548.20445    22.533794   -436.13148   -413.59768    803.36127    1928.5377    5252.1446   -4770.5985    15.400212    13.336936      27.3696    5621.4871 
  960500      960.488    582.14528    23.928922   -437.52169   -413.59277   -1945.5022   -1172.3118    4621.2382   -9285.4329    15.400214    13.336938    27.369583    5621.4853 
  961000      960.988    559.98403     23.01799   -436.60531   -413.58732   -2041.4009   -228.70998    1873.1999   -7768.6927    15.400217     13.33694    27.369565    5621.4834 
  961500      961.488    567.66329    23.333644    -436.9148   -413.58116   -1045.1412    1933.4694    5808.1461   -10877.039    15.400219    13.336942    27.369548    5621.4815 
  962000      961.988    568.79142    23.380015   -436.95662    -413.5766   -1646.9639    96.998137    1321.1308   -6359.0206    15.400221    13.336944     27.36953    5621.4796 
  962500      962.488    567.03159    23.307678   -436.87924   -413.57156   -1607.3049    662.43311    1702.5729   -7186.9206    15.400224    13.336946    27.369513    5621.4778 
  963000      962.988    558.30409    22.948937   -436.51581   -413.56687   -553.08863    2759.8296     6140.441   -10559.536    15.400226    13.336948    27.369495    5621.4759 
  963500      963.488    569.97899     23.42883    -436.9898   -413.56097   -1677.1649     1077.215    4746.1857   -10854.895    15.400228     13.33695    27.369478     5621.474 
  964000      963.988    584.81545    24.038679   -437.59398    -413.5553   -1117.0685   -1567.2987    3807.6833     -5591.59    15.400231    13.336952     27.36946    5621.4721 
  964500      964.488    587.96015    24.167941   -437.71904    -413.5511   -2811.2169   -758.92088    2341.7901    -10016.52    15.400233    13.336954    27.369443    5621.4703 
  965000      964.988    573.61863    23.578437   -437.12517   -413.54674    -1878.706   -786.70343    4948.2161   -9797.6306    15.400235    13.336956    27.369425    5621.4684 
  965500      965.488    557.24575    22.905434   -436.44444     -413.539   -1504.9246    260.46469    5285.8725   -10061.111    15.400238    13.336959    27.369408    5621.4665 
  966000      965.988    588.77972    24.201629   -437.73796   -413.53633   -340.95212    939.49845    4825.6936   -6788.0484     15.40024    13.336961     27.36939    5621.4647 
  966500      966.488    588.13472    24.175116   -437.70647   -413.53135   -1022.5301    2748.0094    2741.9291   -8557.5286    15.400242    13.336963    27.369373    5621.4628 
  967000      966.988    600.10392    24.667107   -438.19262   -413.52551   -1492.8514    784.05214    4937.4121   -10200.018    15.400245    13.336965    27.369355    5621.4609 
  967500      967.488    519.46283    21.352377   -434.86995   -413.51758    519.64072    975.46291    5763.7284   -5180.2691    15.400247    13.336967    27.369338     5621.459 
  968000      967.988    554.82439    22.805904   -436.31922   -413.51332   -1052.4666    1431.1707    4592.5156   -9181.0861     15.40025    13.336969     27.36932    5621.4572 
  968500      968.488    542.34452    22.292923   -435.79893   -413.50601   -2927.2366   -1593.3365    2611.2261   -9799.5993    15.400252    13.336971    27.369303    5621.4553 
  969000      968.988    595.96081    24.496806    -437.9971   -413.50029   -2164.7972    -966.3155     4066.632   -9594.7082    15.400254    13.336973    27.369285    5621.4534 
  969500      969.488    567.21094     23.31505   -436.80916   -413.49411   -1072.7222   -45.565352    4619.0992   -7791.7004    15.400257    13.336975    27.369268    5621.4515 
  970000      969.988    548.81542    22.558907   -436.04578   -413.48687   -1493.4583    1192.7647    1417.6397   -7090.7795    15.400259    13.336977     27.36925    5621.4497 
  970500      970.488     556.4757    22.873781   -436.35553   -413.48175   -347.64321   -2189.3168    5216.3017   -4069.9146    15.400261    13.336979    27.369233    5621.4478 
  971000      970.988    560.27145    23.029805   -436.50583   -413.47603   -3752.4233   -1319.0138   -2615.6396   -7322.6165    15.400264    13.336981    27.369215    5621.4459 
  971500      971.488    607.89923    24.987531   -438.45833   -413.47079    -2577.479    271.34372    1793.3114   -9797.0921    15.400266    13.336983    27.369198    5621.4441 
  972000      971.988    562.00862    23.101211     -436.565   -413.46379   -895.05835    -1573.084    4915.9238   -6028.0149    15.400268    13.336985     27.36918    5621.4422 
  972500      972.488     595.7805    24.489394   -437.94696   -413.45756   -977.83757    1124.5032    4453.5453   -8511.5611    15.400271    13.336987    27.369163    5621.4403 
  973000      972.988    617.03323    25.362982   -438.81479    -413.4518   -3640.3741   -2020.5834    2106.5812    -11007.12    15.400273    13.336989    27.369145    5621.4384 
  973500      973.488    548.84189    22.559996   -436.00386   -413.44386    106.28534    1349.8159    6527.9356   -7558.8954    15.400275    13.336991    27.369128    5621.4366 
  974000      973.988    615.82387    25.313271   -438.75177    -413.4385   -2599.5056   -887.78146   -20.400233   -6890.3351    15.400278    13.336993     27.36911    5621.4347 
  974500      974.488     577.7472     23.74814   -437.17993   -413.43179   -3075.0665   -75.767098   -638.25589   -8511.1766     15.40028    13.336995    27.369093    5621.4328 
  975000      974.988    555.05005     22.81518   -436.23985   -413.42467   -994.46462    1154.5159    3791.1682    -7929.078    15.400282    13.336997    27.369075     5621.431 
  975500      975.488    544.89487    22.397754   -435.81655    -413.4188   -802.09276    262.69755    5485.1971   -8154.1729    15.400285       13.337    27.369058    5621.4291 
  976000      975.988    595.47098    24.476671    -437.8891   -413.41243   -1144.9181   -2065.4562     3825.265   -5194.5631    15.400287    13.337002     27.36904    5621.4272 
  976500      976.488    568.51238    23.368545   -436.77298   -413.40444    -2015.293    -2241.162     6434.121   -10238.838    15.400289    13.337004    27.369023    5621.4253 
  977000      976.988    581.23712    23.891593   -437.29039   -413.39879   -1946.9147   -1290.7771     3443.796   -7993.7629    15.400292    13.337006    27.369005    5621.4235 
  977500      977.488    565.97315    23.264171   -436.65591   -413.39174   -563.21784   -479.69384    6895.6688   -8105.6285    15.400294    13.337008    27.368988    5621.4216 
  978000      977.988    565.03066     23.22543   -436.60955   -413.38412   -1067.8684    1997.1662    3580.1003   -8780.8716    15.400297     13.33701     27.36897    5621.4197 
  978500      978.488    551.27472    22.659996   -436.03735   -413.37735   -685.70978    296.40648    4160.8517   -6514.3876    15.400299    13.337012    27.368953    5621.4178 
  979000      978.988    564.70602    23.212086    -436.5833   -413.37122   -830.85214   -403.57867    4606.6655   -6695.6433    15.400301    13.337014    27.368935     5621.416 
  979500      979.488    553.04023    22.732567   -436.09593   -413.36337    -965.1212    1826.9052    5981.2742   -10703.543    15.400304    13.337016    27.368918    5621.4141 
  980000      979.988    582.27414    23.934219   -437.29069   -413.35647   -642.16854    1853.9236   -982.79612    -2797.633    15.400306    13.337018      27.3689    5621.4122 
  980500      980.488     594.4979    24.436673   -437.78731   -413.35063   -1847.9108    1234.1127    5041.0516   -11818.897    15.400308     13.33702    27.368883    5621.4104 
  981000      980.988    570.11764     23.43453   -436.77548   -413.34095   -1499.1895     1239.142     3413.388   -9150.0985    15.400311    13.337022    27.368865    5621.4085 
  981500      981.488    596.78911    24.530853   -437.86542   -413.33457   -315.07741    3335.8856    4596.3061   -8877.4239    15.400313    13.337024    27.368848    5621.4066 
  982000      981.988    594.92501     24.45423   -437.78016   -413.32593   -3298.4762   -2721.6252    2985.1097   -10158.913    15.400315    13.337026     27.36883    5621.4047 
  982500      982.488    546.09246    22.446981    -435.7665   -413.31952   -256.18675    1876.5019    5115.8515   -7760.9137    15.400318    13.337028    27.368813    5621.4029 
  983000      982.988    524.21916    21.547885   -434.85796   -413.31007    -2260.079     1819.178    512.80425   -9112.2192     15.40032     13.33703    27.368795     5621.401 
  983500      983.488    560.77464    23.050488   -436.35376   -413.30327   -1580.7188    563.00995    4146.0775   -9451.2439    15.400322    13.337032    27.368778    5621.3991 
  984000      983.988    556.78822    22.886627   -436.18018   -413.29355   -942.41137    -1685.113    2768.5167   -3910.6377    15.400325    13.337034     27.36876    5621.3972 
  984500      984.488    567.14048    23.312154   -436.59841   -413.28626   -1951.6341   -3397.2194    3625.9724   -6083.6554    15.400327    13.337036    27.368743    5621.3954 
  985000      984.988    562.51363    23.121969   -436.39793   -413.27596   -808.11459    2657.7826    2016.5441   -7098.6705    15.400329    13.337038    27.368725    5621.3935 
  985500      985.488    562.76626    23.132353   -436.40124   -413.26889    988.14068    1804.3417    5404.7447   -4244.6644    15.400332    13.337041    27.368708    5621.3916 
  986000      985.988    550.50032    22.628165    -435.8877   -413.25954   -372.22568    2900.0538    3424.3506   -7441.0814    15.400334    13.337043     27.36869    5621.3898 
  986500      986.488    572.61474    23.537172   -436.78987    -413.2527   -1171.7273    3371.0522   -469.84043   -6416.3937    15.400336    13.337045    27.368673    5621.3879 
  987000      986.988     566.2204    23.274334   -436.51795   -413.24362   -448.04657    1370.1699    2406.9265   -5121.2361    15.400339    13.337047    27.368655     5621.386 
  987500      987.488    617.31388    25.374518   -438.61175   -413.23723   -4607.1835   -4595.2035    1606.1778   -10832.525    15.400341    13.337049    27.368638    5621.3841 
  988000      987.988    568.02322    23.348439   -436.57523   -413.22679   -138.04916   -218.02943    9319.6442   -9515.7623    15.400344    13.337051     27.36862    5621.3823 
  988500      988.488    561.36731     23.07485   -436.29265    -413.2178   -588.78379    303.29447    4485.2574   -6554.9032    15.400346    13.337053    27.368603    5621.3804 
  989000      988.988    576.02102    23.677186   -436.88593   -413.20874   -1460.9256    2008.4665    4304.6905   -10695.934    15.400348    13.337055    27.368585    5621.3785 
  989500      989.488    595.45123     24.47586   -437.67766    -413.2018   -1771.5071    774.64972    428.50402   -6517.6749    15.400351    13.337057    27.368568    5621.3766 
  990000      989.988     568.5544    23.370273   -436.56335   -413.19308   -1565.2864    -710.9798    4464.1172   -8448.9966    15.400353    13.337059     27.36855    5621.3748 
  990500      990.488    576.10411    23.680602   -436.86553   -413.18493   -1414.7123    2015.8568    3104.8174   -9364.8111    15.400355    13.337061    27.368533    5621.3729 
  991000      990.988    568.21496     23.35632   -436.53271   -413.17639    491.70093    1078.5623    5568.3317   -5171.7912    15.400358    13.337063    27.368515     5621.371 
  991500      991.488     564.1007    23.187205   -436.35443   -413.16722   -1988.2349    1552.3253    1596.4141   -9113.4443     15.40036    13.337065    27.368498    5621.3692 
  992000      991.988    531.73393    21.856778    -435.0155   -413.15873    404.63258    3348.0786    5524.2583   -7658.4392    15.400362    13.337067     27.36848    5621.3673 
  992500      992.488    573.14235     23.55886   -436.70985   -413.15099   -1596.3022    2089.2173    5078.1672   -11956.291    15.400365    13.337069    27.368463    5621.3654 
  993000      992.988    602.28764    24.756869   -437.89928   -413.14241   -24.932469    1914.0396    2812.2716   -4801.1086    15.400367    13.337071    27.368445    5621.3635 
  993500      993.488    574.23711    23.603859   -436.73824   -413.13438    211.09852    2537.4889    3192.0265   -5096.2198    15.400369    13.337073    27.368428    5621.3617 
  994000      993.988    585.65717    24.073278   -437.19763   -413.12436   -2859.6648   -589.80756    3513.1126     -11502.3    15.400372    13.337075     27.36841    5621.3598 
  994500      994.488    606.74353    24.940027   -438.05598   -413.11595   -1942.9245    460.50867    6339.2154   -12628.498    15.400374    13.337077    27.368393    5621.3579 
  995000      994.988    563.26243    23.152748   -436.25888   -413.10614   -147.45734    1233.0301     3576.167   -5251.5691    15.400376    13.337079    27.368375     5621.356 
  995500      995.488    607.19932    24.958762   -438.05619   -413.09743   -1087.0043    3813.0838    4495.4914   -11569.588    15.400379    13.337082    27.368358    5621.3542 
  996000      995.988     564.9732    23.223069   -436.31213   -413.08907   -1420.9331     389.0445    1842.2032   -6494.0471    15.400381    13.337084     27.36834    5621.3523 
  996500      996.488    549.85648      22.6017   -435.68042   -413.07872   -1413.6183   -3910.1441    5632.7353   -5963.4462    15.400383    13.337086    27.368323    5621.3504 
  997000      996.988    574.75403    23.625107   -436.69561    -413.0705   -699.38695    2157.5348    3231.6252   -7487.3209    15.400386    13.337088    27.368305    5621.3486 
  997500      997.488    564.71121    23.212299   -436.27329   -413.06099   -1645.5973    488.76217    4001.4393   -9426.9935    15.400388     13.33709    27.368288    5621.3467 
  998000      997.988    580.49352    23.861027    -436.9122   -413.05117   -1287.5396    2834.5667   -1690.2497   -5006.9357    15.400391    13.337092     27.36827    5621.3448 
  998500      998.488    592.71254    24.363287   -437.40603   -413.04274   -221.71713     3644.359    1259.3228   -5568.8332    15.400393    13.337094    27.368253    5621.3429 
  999000      998.988    551.29635    22.660886   -435.69359    -413.0327   -711.06007   -337.62941    6239.7205   -8035.2713    15.400395    13.337096    27.368235    5621.3411 
  999500      999.488    582.30226    23.935375   -436.95885   -413.02348   -1055.2175   -1388.7472     5283.791   -7060.6963    15.400398    13.337098    27.368218    5621.3392 
 1000000      999.988    588.48302    24.189433   -437.20251   -413.01308   -1255.5342    1780.2453    6028.0537   -11574.902      15.4004      13.3371      27.3682    5621.3373 
 1000012         1000    613.60591    25.222103   -438.23558   -413.01348   -1557.2126    2230.1551    2479.6489   -9381.4419      15.4004      13.3371      27.3682    5621.3373 
Loop time of 905.09 on 28 procs for 1000000 steps with 319 atoms

Performance: 95.460 ns/day, 0.251 hours/ns, 1104.862 timesteps/s
87.3% CPU use with 28 MPI tasks x no OpenMP threads

MPI task timing breakdown:
Section |  min time  |  avg time  |  max time  |%varavg| %total
---------------------------------------------------------------
Pair    | 744.91     | 785.79     | 817.65     |  66.0 | 86.82
Neigh   | 0.019102   | 0.028505   | 0.037677   |   2.9 |  0.00
Comm    | 77.224     | 106.62     | 146.5      | 171.4 | 11.78
Output  | 0.10062    | 0.103      | 0.12359    |   1.3 |  0.01
Modify  | 4.9176     | 7.4101     | 12.901     |  84.8 |  0.82
Other   |            | 5.137      |            |       |  0.57

Nlocal:    11.3929 ave 15 max 6 min
Histogram: 1 3 1 2 4 2 4 2 5 4
Nghost:    638.214 ave 675 max 587 min
Histogram: 5 3 0 0 0 5 3 0 4 8
Neighs:    704.929 ave 974 max 355 min
Histogram: 4 0 1 3 3 4 2 4 4 3
FullNghs:  1409.86 ave 1887 max 725 min
Histogram: 1 3 1 2 4 2 4 2 4 5

Total # of neighbors = 39476
Ave neighs/atom = 123.749
Neighbor list builds = 427
Dangerous builds = 0

write_restart   POSCAR_1x1x1.rest

#unfix    1
#undump   1
Total wall time: 0:15:05
