LAMMPS (7 Dec 2015)
#----------- Initialize Simulation ------------ restart01
#processors	2 2 2
units		metal
boundary	p p p     ## periodic boundary condition  on x y z axis ##
atom_style atomic
#atom_modify map array sort 0 0.0

read_data	POSCAR_1x1x1.lammps
  triclinic box = (0 0 0) to (15.5336 13.4525 26.3886) with tilt (-7.7667 0 0)
  2 by 2 by 7 MPI processor grid
  reading atoms ...
  319 atoms

#----------- Define Potential -----------------
pair_style meam
pair_coeff * * MgAlZn.library.meam Mg Al Zn MgAlZn.parameter.meam Mg Al Zn 	#1=Mg 2=Al 3=Zn	#atoms/mass

#----------- Neighbor List --------------------
neighbor 2.0 bin
neigh_modify delay 10 check yes

#--------------  Run a simulation (minimization) ---------------------------------------
minimize       1.0e-4   1.0e-6   100   1000          #結構優化的條件
WARNING: Resetting reneighboring criteria during minimization (../min.cpp:168)
Neighbor list info ...
  2 neighbor list requests
  update every 1 steps, delay 0 steps, check yes
  max neighbors/atom: 2000, page size: 100000
  master list distance cutoff = 8
  ghost atom cutoff = 8
  binsize = 4 -> bins = 6 4 7
Memory usage per processor = 8.65408 Mbytes
Step Temp E_pair E_mol TotEng Press 
       0            0   -437.31359            0   -437.31359    3060.6563 
      13            0   -459.86001            0   -459.86001   -13395.152 
Loop time of 0.0218181 on 28 procs for 13 steps with 319 atoms

87.4% CPU use with 28 MPI tasks x no OpenMP threads

Minimization stats:
  Stopping criterion = energy tolerance
  Energy initial, next-to-last, final = 
        -437.313592686     -459.826820643     -459.860009967
  Force two-norm initial, final = 21.7942 0.706237
  Force max component initial, final = 3.67325 0.159384
  Final line search alpha, max atom move = 0.561025 0.0894181
  Iterations, force evaluations = 13 22

MPI task timing breakdown:
Section |  min time  |  avg time  |  max time  |%varavg| %total
---------------------------------------------------------------
Pair    | 0.017168   | 0.018607   | 0.0197     |   0.4 | 85.28
Neigh   | 0          | 0          | 0          |   0.0 |  0.00
Comm    | 0.0012497  | 0.002313   | 0.0037213  |   1.2 | 10.60
Output  | 0          | 0          | 0          |   0.0 |  0.00
Modify  | 0          | 0          | 0          |   0.0 |  0.00
Other   |            | 0.0008983  |            |       |  4.12

Nlocal:    11.3929 ave 17 max 6 min
Histogram: 3 4 0 2 4 5 3 3 2 2
Nghost:    651.643 ave 673 max 622 min
Histogram: 1 3 1 2 0 5 5 6 3 2
Neighs:    720.607 ave 1096 max 369 min
Histogram: 2 4 1 1 6 5 3 2 3 1
FullNghs:  1441.21 ave 2169 max 746 min
Histogram: 3 4 0 2 4 5 3 3 2 2

Total # of neighbors = 40354
Ave neighs/atom = 126.502
Neighbor list builds = 0
Dangerous builds = 0
velocity all  create 600.0 4928459 #rot yes dist gaussian

#--------------  Run a simulation (Relaxation)  ----------------------------------------
fix  1  all  nvt   temp  600.0  600.0  100				#damping constant
#fix  2  all  npt   temp  393.0  393.0  50 iso 0.0 0.0 1000.0
fix  2  all deform 1 x final 0 15.5384 y final 0 13.4566 z final 0 26.3536 xy final -7.7691 units lattice
#fix  3  all  npt   temp  393.0  393.0  50 z 0.0 0.0 1000.0

#variable b equal 1
#fix 2 all efield  0.0  0.0  v_b
#compute pot all pe/atom


#----------- Output --------------------------
thermo	 500
timestep  0.001		#1.0 fs
thermo_style	custom step time temp ke pe etotal press pxx pyy pzz lx ly lz vol

dump 1 all custom 10000 dump.eq id type x y z
dump_modify 1 sort  id

run        1000000	#1000 ps
Neighbor list info ...
  2 neighbor list requests
  update every 1 steps, delay 10 steps, check yes
  max neighbors/atom: 2000, page size: 100000
  master list distance cutoff = 8
  ghost atom cutoff = 8
  binsize = 4 -> bins = 6 4 7
Memory usage per processor = 7.56103 Mbytes
Step Time Temp KinEng PotEng TotEng Press Pxx Pyy Pzz Lx Ly Lz Volume 
      13            0          600    24.662836   -459.86001   -435.19717   -8617.9831   -15148.062   -9639.3897   -1066.4978      15.5336      13.4525      26.3886    5514.3137 
     500        0.487    305.36621    12.551994   -447.74502   -435.19302   -1104.3449   -12093.451   -3352.0646    12132.481    15.533602    13.452502    26.388583    5514.3118 
    1000        0.987    298.03123    12.250492   -447.44258   -435.19209   -1170.8252   -10175.347    -1983.803    8646.6741    15.533605    13.452504    26.388565    5514.3098 
    1500        1.487    310.76433    12.773883   -447.96584   -435.19196   -2231.0173   -10537.709   -2095.0243     5939.681    15.533607    13.452506    26.388548    5514.3079 
    2000        1.987    305.07495    12.540022   -447.73059   -435.19057   -1861.4578   -12135.856   -1742.6442     8294.127     15.53361    13.452508     26.38853    5514.3059 
    2500        2.487    315.18741    12.955692   -448.14497   -435.18928   -2500.2109   -13119.037   -2351.6265    7970.0303    15.533612     13.45251    26.388513    5514.3039 
    3000        2.987    302.58453    12.437654    -447.6252   -435.18754   -2149.2135   -9920.9908   -4927.5446    8400.8949    15.533614    13.452512    26.388495     5514.302 
    3500        3.487    311.95503    12.822826   -448.00821   -435.18538   -2419.8631   -12237.665   -1676.4512    6654.5263    15.533617    13.452514    26.388478       5514.3 
    4000        3.987     317.1758    13.037425   -448.22026   -435.18284   -3491.6577   -12444.079   -3438.1911     5407.297    15.533619    13.452516     26.38846     5514.298 
    4500        4.487    316.51919    13.010434   -448.19087   -435.18044   -1752.2932   -9319.5715   -6812.5887    10875.281    15.533622    13.452518    26.388443    5514.2961 
    5000        4.987    303.01416    12.455314   -447.63291    -435.1776   -2106.5857   -8931.0281   -4764.2639    7375.5347    15.533624     13.45252    26.388425    5514.2941 
    5500        5.487    299.19978    12.298525    -447.4727   -435.17417   -1745.7957   -11682.596   -4825.0171    11270.226    15.533626    13.452522    26.388408    5514.2921 
    6000        5.987    306.27488    12.589345   -447.76023   -435.17089   -2505.8489   -12249.428   -5677.0804    10408.961    15.533629    13.452525     26.38839    5514.2902 
    6500        6.487    312.09678    12.828653   -447.99572   -435.16707   -2994.6152   -10910.686   -4859.7195    6786.5595    15.533631    13.452527    26.388373    5514.2882 
    7000        6.987    312.34375    12.838804   -448.00208   -435.16327   -2053.9892   -9896.1003   -2934.2568    6668.3896    15.533634    13.452529    26.388355    5514.2862 
    7500        7.487    323.15345    13.283134   -448.44189   -435.15875   -2064.5213   -12045.182    -6975.385    12827.003    15.533636    13.452531    26.388338    5514.2843 
    8000        7.987    314.12866    12.912172   -448.06587   -435.15369   -2955.3802    -12892.75   -3666.9705    7693.5803    15.533638    13.452533     26.38832    5514.2823 
    8500        8.487    312.54124    12.846922   -447.99459   -435.14767   -2663.7594   -13181.849   -3499.2194    8689.7897    15.533641    13.452535    26.388303    5514.2803 
    9000        8.987    324.55371    13.340691   -448.48347   -435.14278   -2661.0193   -9282.7804   -6156.3874    7456.1097    15.533643    13.452537    26.388285    5514.2784 
    9500        9.487    348.05676    14.306778   -449.44396   -435.13719   -4313.4049   -12349.382   -5697.7853    5106.9525    15.533646    13.452539    26.388268    5514.2764 
   10000        9.987    303.46205    12.473725     -447.604   -435.13027   -1709.7771   -10431.705   -5503.0702    10805.444    15.533648    13.452541     26.38825    5514.2745 
   10500       10.487    293.64086    12.070027   -447.19424   -435.12421    -2338.565   -10137.533    -5810.062    8931.8997     15.53365    13.452543    26.388233    5514.2725 
   11000       10.987    326.69463    13.428693   -448.54667   -435.11797   -2300.8741   -11770.305   -4567.2783    9434.9611    15.533653    13.452545    26.388215    5514.2705 
   11500       11.487    293.62588    12.069411   -447.17978   -435.11037   -1102.8231   -8227.6979   -4656.7002    9575.9287    15.533655    13.452547    26.388198    5514.2686 
   12000       11.987    320.22946    13.162944   -448.26596   -435.10302   -2722.6858   -10448.228   -6604.5325    8884.7029    15.533658    13.452549     26.38818    5514.2666 
   12500       12.487    319.57232    13.135933   -448.23165   -435.09572   -2246.9245    -8783.673   -7572.0521    9614.9516     15.53366    13.452551    26.388163    5514.2646 
   13000       12.987    309.39678     12.71767   -447.80543   -435.08776    -1791.035   -9347.6283   -6136.1505    10110.674    15.533662    13.452553    26.388145    5514.2627 
   13500       13.487    316.81441     13.02257   -448.10231   -435.07975   -1973.6604   -11600.584   -3133.4033    8813.0065    15.533665    13.452555    26.388128    5514.2607 
   14000       13.987    301.46531    12.391649    -447.4622   -435.07055   -2089.1559   -12710.564   -1535.5998    7978.6964    15.533667    13.452557     26.38811    5514.2587 
   14500       14.487    296.05753    12.169364   -447.23099   -435.06162   -1750.3399   -12093.372   -3889.2439    10731.596     15.53367    13.452559    26.388093    5514.2568 
   15000       14.987    300.09156    12.335182   -447.38756   -435.05238   -2302.8783    -12968.76   -2995.2566    9055.3821    15.533672    13.452561    26.388075    5514.2548 
   15500       15.487    316.41945    13.006335    -448.0496   -435.04327   -2066.6969   -9845.3427   -4187.3693    7832.6213    15.533674    13.452563    26.388058    5514.2528 
   16000       15.987    320.23081       13.163   -448.19655   -435.03355   -2532.1125   -11945.709   -7612.7649    11962.137    15.533677    13.452566     26.38804    5514.2509 
   16500       16.487    297.80017    12.240994   -447.26397   -435.02297    -1836.771   -12135.494   -4822.3571    11447.538    15.533679    13.452568    26.388023    5514.2489 
   17000       16.987    305.56306    12.560086    -447.5724   -435.01231   -2863.1915   -10485.565   -4099.9941    5995.9842    15.533682     13.45257    26.388005    5514.2469 
   17500       17.487    295.41657    12.143017    -447.1449   -435.00188    -1724.135   -10882.053   -3495.6351    9205.2837    15.533684    13.452572    26.387988     5514.245 
   18000       17.987    306.75806    12.609206   -447.60039   -434.99119   -1489.8362    -10424.65   -3702.0174    9657.1587    15.533686    13.452574     26.38797     5514.243 
   18500       18.487    315.47999    12.967718    -447.9472   -434.97948   -2662.3895   -9688.5008   -5911.2166     7612.549    15.533689    13.452576    26.387953    5514.2411 
   19000       18.987    310.67938    12.770391   -447.73839     -434.968   -2656.5822   -11057.033   -3585.6242    6672.9102    15.533691    13.452578    26.387935    5514.2391 
   19500       19.487    296.85399    12.202102   -447.15798   -434.95588   -1660.4156   -8636.1983   -3268.2173    6923.1688    15.533694     13.45258    26.387918    5514.2371 
   20000       19.987    316.10029    12.993216   -447.93704   -434.94383   -2642.3775   -8773.0816   -6462.1576    7308.1067    15.533696    13.452582      26.3879    5514.2352 
   20500       20.487    318.06192    13.073848    -448.0057   -434.93185   -3071.6957    -12736.26   -3266.4033    6787.5757    15.533698    13.452584    26.387883    5514.2332 
   21000       20.987    318.75324    13.102265   -448.02146   -434.91919   -3017.2471    -11151.04   -3723.7684    5823.0669    15.533701    13.452586    26.387865    5514.2312 
   21500       21.487    325.02705    13.360148   -448.26604   -434.90589   -3133.0602   -11770.704   -5754.2669    8125.7906    15.533703    13.452588    26.387848    5514.2293 
   22000       21.987    323.60865    13.301845   -448.19442   -434.89258   -2481.3614   -9937.9379   -6406.1921    8900.0459    15.533706     13.45259     26.38783    5514.2273 
   22500       22.487    311.01196    12.784061   -447.66271   -434.87864   -1274.4608   -10849.522   -4551.2223    11577.362    15.533708    13.452592    26.387813    5514.2253 
   23000       22.987    313.37626    12.881246    -447.7463   -434.86506    111.95215   -8338.6263    -3285.964    11960.447     15.53371    13.452594    26.387795    5514.2234 
   23500       23.487    314.09859    12.910936   -447.76202   -434.85108    -1697.208   -10137.483   -5130.5547    10176.414    15.533713    13.452596    26.387778    5514.2214 
   24000       23.987    314.76838    12.938468   -447.77501   -434.83654   -2356.0295   -10652.314   -7577.6602    11161.885    15.533715    13.452598     26.38776    5514.2194 
   24500       24.487    315.92746    12.986112   -447.80834   -434.82223   -2104.0922   -13450.227   -3990.1775    11128.128    15.533718      13.4526    26.387743    5514.2175 
   25000       24.987    299.23366    12.299918   -447.10715   -434.80723   -1293.1294   -9904.0152   -2673.1062    8697.7331     15.53372    13.452602    26.387725    5514.2155 
   25500       25.487    332.17201     13.65384   -448.44544    -434.7916    -2234.977   -10151.409   -3249.6429    6696.1203    15.533722    13.452604    26.387708    5514.2135 
   26000       25.987    313.10445    12.870073   -447.64618   -434.77611   -1818.0502   -11048.089   -2634.7228    8228.6616    15.533725    13.452607     26.38769    5514.2116 
   26500       26.487    309.36962    12.716554   -447.47681   -434.76026   -2924.0287   -9603.0943   -6126.7726    6957.7808    15.533727    13.452609    26.387673    5514.2096 
   27000       26.987    327.80493    13.474332    -448.2195   -434.74517   -2560.8442   -10651.823   -4201.9894    7171.2793     15.53373    13.452611    26.387655    5514.2077 
   27500       27.487    309.20782    12.709903   -447.43836   -434.72846   -2500.9782   -11575.799   -6326.4977    10399.362    15.533732    13.452613    26.387638    5514.2057 
   28000       27.987    310.59954    12.767109   -447.47944   -434.71233   -2274.7477   -11872.095   -7030.6102    12078.462    15.533734    13.452615     26.38762    5514.2037 
   28500       28.487    305.99752    12.577944   -447.27411   -434.69617   -578.36627   -7199.7507   -4169.6381    9634.2899    15.533737    13.452617    26.387603    5514.2018 
   29000       28.987    320.68966    13.181861   -447.86149   -434.67963   -1411.8841   -8757.2157   -5373.2285     9894.792    15.533739    13.452619    26.387585    5514.1998 
   29500       29.487    322.26396    13.246572   -447.90921   -434.66264   -1790.9483   -7939.7428   -7305.9698    9872.8676    15.533742    13.452621    26.387568    5514.1978 
   30000       29.987    330.21161    13.573258    -448.2187   -434.64544   -2170.0105   -10290.148   -5877.0668     9657.183    15.533744    13.452623     26.38755    5514.1959 
   30500       30.487    312.00906    12.825047   -447.45326   -434.62821   -1898.9935   -10329.163   -2808.8486     7441.031    15.533746    13.452625    26.387533    5514.1939 
   31000       30.987    323.17533    13.284033   -447.89489   -434.61085   -2202.8748   -10666.063   -3692.5994     7750.038    15.533749    13.452627    26.387515    5514.1919 
   31500       31.487    326.91322    13.437678   -448.03063   -434.59295   -1509.4252   -10695.766   -3924.1316    10091.622    15.533751    13.452629    26.387498      5514.19 
   32000       31.987    319.23688    13.122144   -447.69748   -434.57534   -853.45367    -9072.946   -2784.1101    9296.6951    15.533754    13.452631     26.38748     5514.188 
   32500       32.487    334.94396     13.76778   -448.32554   -434.55776   -2819.6993   -13130.917   -3455.3256    8127.1442    15.533756    13.452633    26.387463     5514.186 
   33000       32.987    304.99835    12.536874   -447.07597   -434.53909   -1607.8883   -11482.084   -2061.2818    8719.7006    15.533758    13.452635    26.387445    5514.1841 
   33500       33.487     327.5343    13.463208   -447.98448   -434.52127   -2612.7757    -11459.17   -4217.1568    7837.9996    15.533761    13.452637    26.387428    5514.1821 
   34000       33.987    292.48774    12.022628   -446.52505   -434.50242   -816.45592   -8010.1859   -2566.9046    8127.7227    15.533763    13.452639     26.38741    5514.1801 
   34500       34.487    315.81159    12.981349   -447.46496   -434.48361    -1742.043   -12561.325   -2691.1555    10026.351    15.533766    13.452641    26.387393    5514.1782 
   35000       34.987    319.05325    13.114596    -447.5796     -434.465   -2075.8543   -9601.3069   -7481.3008    10855.045    15.533768    13.452643    26.387375    5514.1762 
   35500       35.487    311.61409    12.808812    -447.2556   -434.44679   -1644.1025    -10652.22    -5730.596    11450.508     15.53377    13.452645    26.387358    5514.1743 
   36000       35.987    301.28226    12.384125   -446.81221   -434.42809   -1761.7195   -8571.3274   -4236.8691    7523.0381    15.533773    13.452648     26.38734    5514.1723 
   36500       36.487    317.02222    13.031111   -447.44071    -434.4096   -3147.3407    -11303.14   -5721.9087    7583.0266    15.533775     13.45265    26.387323    5514.1703 
   37000       36.987     316.6163    13.014426   -447.40501   -434.39059   -2383.7682   -7198.5865   -5924.6623    5971.9444    15.533778    13.452652    26.387305    5514.1684 
   37500       37.487    313.27267    12.876987   -447.24888   -434.37189   -2179.5993   -10889.956   -5464.4868    9815.6452     15.53378    13.452654    26.387288    5514.1664 
   38000       37.987    329.88652    13.559895   -447.91278   -434.35288   -1786.6979   -11263.002   -4257.9997    10160.908    15.533782    13.452656     26.38727    5514.1644 
   38500       38.487    319.97991    13.152687   -447.48617   -434.33348   -1713.4345   -7590.1975   -4497.1702    6947.0641    15.533785    13.452658    26.387253    5514.1625 
   39000       38.987    324.51641    13.339158   -447.65368   -434.31453   -2400.5182   -8991.0951   -5836.3544    7625.8949    15.533787     13.45266    26.387235    5514.1605 
   39500       39.487    304.94979    12.534878   -446.83042   -434.29554   -1110.6394   -10034.905   -3965.6224     10668.61     15.53379    13.452662    26.387218    5514.1585 
   40000       39.987    318.70732    13.100377    -447.3769   -434.27652   -1944.7556   -11566.576   -4124.0357    9856.3449    15.533792    13.452664      26.3872    5514.1566 
   40500       40.487     328.5512    13.505007    -447.7626   -434.25759   -1936.6777   -12687.275   -5580.5895    12457.832    15.533794    13.452666    26.387183    5514.1546 
   41000       40.987    304.41602    12.512937   -446.75097   -434.23803   -1725.4359   -11512.839   -3978.6243    10315.155    15.533797    13.452668    26.387165    5514.1526 
   41500       41.487    342.63131    14.083766   -448.30306    -434.2193   -1736.8915   -9369.4707   -3892.8594    8051.6554    15.533799     13.45267    26.387148    5514.1507 
   42000       41.987    337.91273     13.88981   -448.09019   -434.20038   -2606.1684   -9333.6597   -4534.1806     6049.335    15.533802    13.452672     26.38713    5514.1487 
   42500       42.487    310.35989    12.757258    -446.9384   -434.18114   -1228.8625   -8866.3919    -2430.744    7610.5483    15.533804    13.452674    26.387113    5514.1467 
   43000       42.987    327.37149    13.456516   -447.61885   -434.16233   -2071.1406   -9297.2406   -6520.0898    9603.9085    15.533806    13.452676    26.387095    5514.1448 
   43500       43.487     335.4427     13.78828   -447.93174   -434.14346   -1183.7306   -7922.8596   -6740.3081    11111.976    15.533809    13.452678    26.387078    5514.1428 
   44000       43.987    318.77839    13.103298   -447.22769   -434.12439   -1485.0845   -11157.322      -2939.1    9641.1682    15.533811     13.45268     26.38706    5514.1409 
   44500       44.487    336.93632    13.849675   -447.95535   -434.10568   -2291.8126   -12810.616    -4511.545    10446.723    15.533814    13.452682    26.387043    5514.1389 
   45000       44.987    351.37067    14.442995    -448.5304    -434.0874    -2365.226   -11805.605   -5263.2696    9973.1962    15.533816    13.452684    26.387025    5514.1369 
   45500       45.487    330.65737    13.591581    -447.6595   -434.06792   -1961.6323   -10328.625   -3652.0952     8095.823    15.533818    13.452686    26.387008     5514.135 
   46000       45.987    320.29971    13.165832   -447.21531   -434.04948   -2006.1418   -9535.8594   -5163.8978    8681.3319    15.533821    13.452689     26.38699     5514.133 
   46500       46.487    338.33519    13.907175   -447.93879   -434.03162   -2425.5319   -9962.8304   -4284.0208    6970.2554    15.533823    13.452691    26.386973     5514.131 
   47000       46.987    321.43404    13.212458   -447.22487   -434.01241   -193.26676   -9770.0052   -4364.6631    13554.868    15.533826    13.452693    26.386955    5514.1291 
   47500       47.487    326.32611    13.413546   -447.40824    -433.9947   -1566.3199   -11478.803    -3128.296    9908.1397    15.533828    13.452695    26.386938    5514.1271 
   48000       47.987    323.56284    13.299962   -447.27624   -433.97628   -1734.5162   -10066.776   -4702.6247    9565.8516     15.53383    13.452697     26.38692    5514.1251 
   48500       48.487    317.82618    13.064158   -447.02205   -433.95789   -863.45717   -8739.6718   -5277.9163    11427.217    15.533833    13.452699    26.386903    5514.1232 
   49000       48.987     325.5529    13.381763   -447.32188   -433.94011   -701.39973   -8785.7882   -1191.9395    7873.5285    15.533835    13.452701    26.386885    5514.1212 
   49500       49.487    333.91024    13.725289   -447.64754   -433.92225   -1533.2478   -11269.572   -4163.4804    10833.309    15.533838    13.452703    26.386868    5514.1192 
   50000       49.987    343.41342    14.115915   -448.02028   -433.90436   -1066.5752   -10591.685   -4374.2336    11766.193     15.53384    13.452705     26.38685    5514.1173 
   50500       50.487    328.58542    13.506414   -447.39248   -433.88607   -1634.9583   -12456.718   -3446.5258    10998.369    15.533842    13.452707    26.386833    5514.1153 
   51000       50.987    341.44472    14.034992    -447.9037   -433.86871   -833.49912   -9686.7278   -4937.0577    12123.288    15.533845    13.452709    26.386815    5514.1133 
   51500       51.487    320.11506    13.158242   -447.00874    -433.8505   -400.58491   -9747.5589    -2818.548    11364.352    15.533847    13.452711    26.386798    5514.1114 
   52000       51.987    326.80558    13.433254   -447.26572   -433.83247   -2274.3296   -13151.562   -3919.6683    10248.242     15.53385    13.452713     26.38678    5514.1094 
   52500       52.487    302.40959    12.430463   -446.24545   -433.81498   -1933.0799   -8015.7747   -4432.8529    6649.3878    15.533852    13.452715    26.386763    5514.1075 
   53000       52.987    329.12266    13.528497   -447.32619   -433.79769     -1769.66   -11222.842   -4076.0899    9989.9514    15.533854    13.452717    26.386745    5514.1055 
   53500       53.487     323.0986     13.28088   -447.06142   -433.78054    -1173.617   -11261.918   -3291.3762    11032.443    15.533857    13.452719    26.386728    5514.1035 
   54000       53.987    319.71055    13.141615    -446.9052   -433.76358   -934.45909   -9615.4881   -3332.4029    10144.514    15.533859    13.452721     26.38671    5514.1016 
   54500       54.487    326.92664     13.43823   -447.18536   -433.74713   -1819.0609   -10548.639   -3701.2613     8792.717    15.533862    13.452723    26.386693    5514.0996 
   55000       54.987    322.35635     13.25037   -446.98022   -433.72985   -108.91484   -7339.8378   -4562.8742    11575.967    15.533864    13.452725    26.386675    5514.0976 
   55500       55.487    332.80737    13.679956     -447.393   -433.71305   -1411.3142   -11090.864   -531.07918     7388.001    15.533866    13.452727    26.386658    5514.0957 
   56000       55.987    316.15217    12.995348   -446.69135   -433.69601   -1055.0506   -10690.452   -2430.0658    9955.3656    15.533869     13.45273     26.38664    5514.0937 
   56500       56.487    337.30114    13.864671   -447.54432   -433.67965   -1707.4534   -9472.7257   -4542.1861    8892.5516    15.533871    13.452732    26.386623    5514.0917 
   57000       56.987    320.78989    13.185981   -446.84856   -433.66258   -2096.2189   -15222.336   -733.24747    9666.9265    15.533874    13.452734    26.386605    5514.0898 
   57500       57.487    316.73047    13.019119    -446.6652   -433.64608    -1442.184   -8254.4977    -4117.334    8045.2796    15.533876    13.452736    26.386588    5514.0878 
   58000       57.987    330.23028    13.574025   -447.20409   -433.63007   -1402.8891   -10729.542   -1346.4447    7867.3192    15.533878    13.452738     26.38657    5514.0858 
   58500       58.487     325.4095    13.375868   -446.98939   -433.61352   -1931.4536   -8840.6267   -6761.6171    9807.8829    15.533881     13.45274    26.386553    5514.0839 
   59000       58.987    329.61721    13.548825   -447.14558   -433.59675    -1296.093   -11183.629   -5469.8304    12765.181    15.533883    13.452742    26.386535    5514.0819 
   59500       59.487    309.41298    12.718336   -446.29867   -433.58033    -491.1815   -10783.198   -3863.6797    13173.333    15.533886    13.452744    26.386518    5514.0799 
   60000       59.987    329.18416    13.531025   -447.09574   -433.56472   -1774.4679   -9136.6661   -3598.2763    7411.5388    15.533888    13.452746      26.3865     5514.078 
   60500       60.487    325.39955    13.375459   -446.92397   -433.54851   -689.57356    -10180.92   -863.05187    8975.2513     15.53389    13.452748    26.386483     5514.076 
   61000       60.987    323.41437    13.293859   -446.82672   -433.53286    -1182.802   -10585.179   -3186.7833    10223.557    15.533893     13.45275    26.386465    5514.0741 
   61500       61.487    330.75049    13.595408   -447.11198   -433.51658   -1857.7825   -11532.504   -3295.2598    9254.4166    15.533895    13.452752    26.386448    5514.0721 
   62000       61.987     326.0762    13.403273    -446.9042   -433.50093   -1104.3873   -10775.812   -3030.1928    10492.843    15.533898    13.452754     26.38643    5514.0701 
   62500       62.487    322.82951    13.269819   -446.75462    -433.4848   -1671.2683   -11219.322   -3591.4153    9796.9319      15.5339    13.452756    26.386413    5514.0682 
   63000       62.987    334.10492    13.733291   -447.20179    -433.4685    -1130.929   -8198.6866    -4425.836    9231.7356    15.533902    13.452758    26.386395    5514.0662 
   63500       63.487    337.79671    13.885041   -447.33903   -433.45399   -2066.7554   -10557.152   -6253.2296    10610.115    15.533905     13.45276    26.386378    5514.0642 
   64000       63.987    343.70386    14.127853   -447.56571   -433.43786   -2652.8448   -11177.527   -3516.6233    6735.6162    15.533907    13.452762     26.38636    5514.0623 
   64500       64.487    316.30613    13.001677   -446.42317   -433.42149    -664.3846   -11428.052    -2490.355    11925.253     15.53391    13.452764    26.386343    5514.0603 
   65000       64.987    354.03426    14.552481   -447.95858    -433.4061   -2429.1123   -10785.594   -2970.5963    6468.8531    15.533912    13.452766    26.386325    5514.0583 
   65500       65.487     347.7299    14.293342   -447.68381   -433.39046   -1411.1449   -9718.2871   -3770.4771    9255.3295    15.533914    13.452768    26.386308    5514.0564 
   66000       65.987    338.36274    13.908308   -447.28295   -433.37464   -1470.7804   -12464.403   -2720.9791    10773.041    15.533917    13.452771     26.38629    5514.0544 
   66500       66.487    317.57772    13.053945   -446.41209   -433.35815   -2259.7998   -13714.103   -874.45856     7809.162    15.533919    13.452773    26.386273    5514.0524 
   67000       66.987    340.63986    14.001908   -447.34512   -433.34321   -1324.3894   -8504.2052   -6230.4334     10761.47    15.533922    13.452775    26.386255    5514.0505 
   67500       67.487    325.61272    13.384222   -446.71065   -433.32643   -794.91202   -10344.783   -3025.9842    10986.032    15.533924    13.452777    26.386238    5514.0485 
   68000       67.987    337.20485    13.860713   -447.17185   -433.31114    -1062.822   -10412.053    -2990.286    10213.873    15.533926    13.452779     26.38622    5514.0465 
   68500       68.487    317.87553    13.066187   -446.36106   -433.29487    -848.8366   -7893.8176   -6556.2958    11903.604    15.533929    13.452781    26.386203    5514.0446 
   69000       68.987    333.17136    13.694917    -446.9748   -433.27988   -1097.8638   -8971.1252    -1921.908    7599.4418    15.533931    13.452783    26.386185    5514.0426 
   69500       69.487    352.79686    14.501618   -447.76656   -433.26494   -2373.6227   -10590.178   -4341.6787    7810.9883    15.533934    13.452785    26.386168    5514.0406 
   70000       69.987    321.64197    13.221005   -446.46909   -433.24808   -857.11955   -9605.7357   -3575.1755    10609.553    15.533936    13.452787     26.38615    5514.0387 
   70500       70.487     315.4416    12.966141   -446.19795   -433.23181   -1636.1832   -12580.401   -6274.3089     13946.16    15.533938    13.452789    26.386133    5514.0367 
   71000       70.987    348.40872    14.321245   -447.53866   -433.21742   -1305.1097   -11121.473   -3033.7173    10239.861    15.533941    13.452791    26.386115    5514.0348 
   71500       71.487    332.13595    13.652357   -446.85354   -433.20118   -1171.6308   -11202.292   -1701.5346    9388.9336    15.533943    13.452793    26.386098    5514.0328 
   72000       71.987    332.35275    13.661269   -446.84649   -433.18523   -1798.8036   -11730.949   -5836.6548    12171.193    15.533946    13.452795     26.38608    5514.0308 
   72500       72.487    336.96517    13.850861   -447.02003   -433.16917   -641.24634   -10003.675   -3289.3094    11369.246    15.533948    13.452797    26.386063    5514.0289 
   73000       72.987    343.97923    14.139172    -447.2925   -433.15333   -1987.6515   -11015.376   -3701.8039    8754.2253     15.53395    13.452799    26.386045    5514.0269 
   73500       73.487    342.25857    14.068445   -447.20541   -433.13696   -1694.6075   -8932.9382   -4587.8862     8437.002    15.533953    13.452801    26.386028    5514.0249 
   74000       73.987     360.6671    14.825122   -447.94614   -433.12102   -2554.4364   -10232.239   -5095.3288    7664.2582    15.533955    13.452803     26.38601     5514.023 
   74500       74.487    349.97815    14.385756   -447.49063   -433.10487   -2407.8788   -11156.565   -5993.5105    9926.4392    15.533958    13.452805    26.385993     5514.021 
   75000       74.987    336.58494    13.835232   -446.92347   -433.08824    -1070.961   -10065.948   -4503.8064    11356.871     15.53396    13.452807    26.385975     5514.019 
   75500       75.487    338.85075    13.928367   -447.00019   -433.07182   -2130.7979   -12119.098   -5158.9756    10885.681    15.533962    13.452809    26.385958    5514.0171 
   76000       75.987    341.84386    14.051398   -447.10686   -433.05546   -2209.9131   -11069.181   -3943.2069    8382.6489    15.533965    13.452812     26.38594    5514.0151 
   76500       76.487    336.75314    13.842146   -446.88067   -433.03852   -2279.6272   -10357.514   -2246.6983    5765.3306    15.533967    13.452814    26.385923    5514.0131 
   77000       76.987    353.19693    14.518063   -447.54079   -433.02273   -1843.7941   -9961.9281   -4104.0521    8534.5979     15.53397    13.452816    26.385905    5514.0112 
   77500       77.487    338.35246    13.907885   -446.91502   -433.00714   -2381.5712   -10570.862    -5870.636    9296.7844    15.533972    13.452818    26.385888    5514.0092 
   78000       77.987    329.51955    13.544811     -446.535   -432.99019   -1622.9147    -8912.927   -5620.2239    9664.4068    15.533974     13.45282     26.38587    5514.0072 
   78500       78.487    328.59479    13.506799   -446.48087   -432.97407   -2128.2114   -10307.402   -4604.1222    8526.8897    15.533977    13.452822    26.385853    5514.0053 
   79000       78.987     330.7135    13.593888   -446.55092   -432.95703   -71.402759   -8305.3397   -2028.0832    10119.215    15.533979    13.452824    26.385835    5514.0033 
   79500       79.487    347.93981     14.30197   -447.24274   -432.94077   -2759.3737   -9678.2079   -6318.3413    7718.4281    15.533982    13.452826    26.385818    5514.0014 
   80000       79.987    320.96896    13.193341   -446.11679   -432.92344   -695.53353   -9070.2911   -2966.5427    9950.2332    15.533984    13.452828      26.3858    5513.9994 
   80500       80.487    340.35732    13.990294   -446.89711   -432.90682   -1366.9361   -10924.787   -4500.4615     11324.44    15.533986     13.45283    26.385783    5513.9974 
   81000       80.987    326.73768    13.430463    -446.3205   -432.89003   -1359.3806    -8942.535   -6344.0395    11208.433    15.533989    13.452832    26.385765    5513.9955 
   81500       81.487    345.38571    14.196985   -447.07025   -432.87326   -920.29882   -9352.0757   -4015.6458    10606.825    15.533991    13.452834    26.385748    5513.9935 
   82000       81.987    357.30848    14.687067   -447.54367   -432.85661   -1342.8577   -8021.9267   -6140.8724    10134.226    15.533994    13.452836     26.38573    5513.9915 
   82500       82.487    344.19571     14.14807   -446.98748   -432.83941   -1448.2407   -9780.8566    -6136.298    11572.432    15.533996    13.452838    26.385713    5513.9896 
   83000       82.987    350.20173    14.394946   -447.21746   -432.82252   -1352.7496   -9620.9575   -6741.0347    12303.743    15.533998     13.45284    26.385695    5513.9876 
   83500       83.487     337.4701    13.871616   -446.67591   -432.80429   -1328.9191   -10837.697   -5953.5262    12804.466    15.534001    13.452842    26.385678    5513.9856 
   84000       83.987    330.89741    13.601447   -446.38922   -432.78778    -520.1164   -9429.7362   -5797.8871    13667.274    15.534003    13.452844     26.38566    5513.9837 
   84500       84.487    346.22108    14.231323    -447.0016   -432.77028   -2086.5687   -12168.691   -6290.0044    12198.989    15.534006    13.452846    26.385643    5513.9817 
   85000       84.987    350.54338     14.40899   -447.16097   -432.75198   -2260.1142   -12801.094   -5037.8781    11058.629    15.534008    13.452848    26.385625    5513.9797 
   85500       85.487    344.07983    14.143307   -446.87773   -432.73443   -2058.3555   -10571.256    -5400.673    9796.8626     15.53401     13.45285    26.385608    5513.9778 
   86000       85.987    346.65811    14.249287   -446.96598   -432.71669      -1914.1   -9008.5129   -5631.4881    8897.7012    15.534013    13.452853     26.38559    5513.9758 
   86500       86.487    351.50698    14.448598   -447.14725   -432.69865   -1945.4339   -9454.8008   -3326.5585    6945.0575    15.534015    13.452855    26.385573    5513.9738 
   87000       86.987    338.07857    13.896627     -446.577   -432.68037   -689.03826   -10434.451   -3074.0977    11441.434    15.534018    13.452857    26.385555    5513.9719 
   87500       87.487    328.48479    13.502277   -446.16434   -432.66206   -1843.6948   -9820.2545   -6352.7544    10641.924     15.53402    13.452859    26.385538    5513.9699 
   88000       87.987    339.80473    13.967581   -446.61142   -432.64384   -1304.8945   -10255.145   -3941.7448    10282.207    15.534022    13.452861     26.38552    5513.9679 
   88500       88.487    342.83619    14.092188   -446.71826   -432.62607   -1692.0351   -11709.329    -6545.362    13178.585    15.534025    13.452863    26.385503     5513.966 
   89000       88.987    334.01719    13.729685    -446.3375   -432.60781   -1549.3823   -7599.2873   -8854.4485    11805.589    15.534027    13.452865    26.385485     5513.964 
   89500       89.487    349.52543    14.367147   -446.95697   -432.58982     -1815.11   -9046.8423   -3685.2025    7286.7147     15.53403    13.452867    26.385468    5513.9621 
   90000       89.987    347.56089    14.286395   -446.85766   -432.57126   -1480.0621    -10104.06   -3887.2348    9551.1082    15.534032    13.452869     26.38545    5513.9601 
   90500       90.487    336.01938    13.811984   -446.36463   -432.55264   -1588.8271   -9628.2534    -6152.977    11014.749    15.534034    13.452871    26.385433    5513.9581 
   91000       90.987    371.68178    15.277878   -447.81302   -432.53515   -528.10941   -8101.3524   -2814.7609     9331.785    15.534037    13.452873    26.385415    5513.9562 
   91500       91.487    330.59719    13.589107   -446.10421   -432.51511   -824.55853   -9492.2121   -7229.7851    14248.322    15.534039    13.452875    26.385398    5513.9542 
   92000       91.987    364.36345     14.97706   -447.47372   -432.49666   -1774.0292   -10175.987     -5068.36    9922.2591    15.534042    13.452877     26.38538    5513.9522 
   92500       92.487    357.42084    14.691686    -447.1696   -432.47791     -1384.38    -10555.94   -3924.7925    10327.592    15.534044    13.452879    26.385363    5513.9503 
   93000       92.987    361.19121    14.846666   -447.30554   -432.45887    -2182.059   -12581.445   -2965.9927    9001.2608    15.534046    13.452881    26.385345    5513.9483 
   93500       93.487    359.00607    14.756846   -447.19633   -432.43948   -1257.3253   -10075.541   -4523.2151    10826.781    15.534049    13.452883    26.385328    5513.9463 
   94000       93.987    350.58788    14.410819   -446.83088   -432.42007   -1642.0114   -8907.6547   -6255.2677    10236.888    15.534051    13.452885     26.38531    5513.9444 
   94500       94.487     330.8933    13.601278   -446.00176   -432.40048   -1222.2339    -10422.18   -3526.0962    10281.575    15.534054    13.452887    26.385293    5513.9424 
   95000       94.987    335.86596    13.805678   -446.18681   -432.38114    -1825.247   -11226.389   -5630.6722    11381.321    15.534056    13.452889    26.385275    5513.9404 
   95500       95.487    355.24125    14.602094   -446.96461   -432.36251   -1888.9244   -9175.9801   -5941.4323    9450.6393    15.534058    13.452891    26.385258    5513.9385 
   96000       95.987    337.98316    13.892705   -446.23557   -432.34287   -2649.3697   -10644.233   -9140.9749    11837.099    15.534061    13.452894     26.38524    5513.9365 
   96500       96.487    354.30556    14.563633   -446.88664   -432.32301   -1505.9973   -8518.3188   -4517.6341     8517.961    15.534063    13.452896    26.385223    5513.9345 
   97000       96.987    355.98179    14.632534   -446.93557   -432.30304   -1964.1217    -11789.94    -6044.053    11941.627    15.534066    13.452898    26.385205    5513.9326 
   97500       97.487    319.03093    13.113679   -445.39563   -432.28195    488.32831   -6715.7891   -7400.7772    15581.551    15.534068      13.4529    26.385188    5513.9306 
   98000       97.987     338.5167    13.914636   -446.17783   -432.26319   -724.89422   -8736.1979   -4922.9487    11484.464     15.53407    13.452902     26.38517    5513.9286 
   98500       98.487    360.11699     14.80251   -447.04624   -432.24373   -1430.9868   -8068.7867   -7404.8381    11180.665    15.534073    13.452904    26.385153    5513.9267 
   99000       98.987    348.86268    14.339905   -446.56306   -432.22316    -1314.177   -9937.3161   -6721.0502    12715.835    15.534075    13.452906    26.385135    5513.9247 
   99500       99.487    340.86765    14.011272   -446.21389   -432.20262   -1092.6516   -8757.1388   -4364.5733    9843.7573    15.534078    13.452908    26.385118    5513.9228 
  100000       99.987    359.20158    14.764883   -446.94793   -432.18305   -182.05106    -11229.42   -5751.8692    16435.136     15.53408     13.45291      26.3851    5513.9208 
  100500      100.487    344.66426     14.16733   -446.32982   -432.16249   -1810.1634   -10920.732   -5869.3177     11359.56    15.534082    13.452912    26.385083    5513.9188 
  101000      100.987     361.1927    14.846727   -446.98942   -432.14269   -1974.2134   -13154.665   -3315.8953     10547.92    15.534085    13.452914    26.385065    5513.9169 
  101500      101.487    365.20366    15.011596   -447.13417   -432.12258   -553.08742   -8714.2973   -4442.4357    11497.471    15.534087    13.452916    26.385048    5513.9149 
  102000      101.987    339.40825    13.951283   -446.05302   -432.10174   -39.271168   -7012.3725    -5085.426    11979.985     15.53409    13.452918     26.38503    5513.9129 
  102500      102.487    347.20948    14.271951   -446.35356   -432.08161   -347.23638   -9634.7784   -5650.8956    14243.965    15.534092     13.45292    26.385013     5513.911 
  103000      102.987    337.20924    13.860893   -445.92113   -432.06024   -198.93531   -11242.107    -442.4994    11087.801    15.534094    13.452922    26.384995     5513.909 
  103500      103.487    341.66789    14.044165   -446.08303   -432.03887   -691.71907   -8605.1206   -5803.5852    12333.549    15.534097    13.452924    26.384978     5513.907 
  104000      103.987     353.4059    14.526653   -446.54548   -432.01882   -2033.9704   -8451.3397   -5703.9346    8053.3631    15.534099    13.452926     26.38496    5513.9051 
  104500      104.487    343.36048    14.113739   -446.11139   -431.99766   -1184.7028   -11078.867   -4384.6141    11909.372    15.534102    13.452928    26.384943    5513.9031 
  105000      104.987    344.18302    14.147549   -446.12379   -431.97624   -1121.8332   -11089.424   -2403.7809    10127.705    15.534104     13.45293    26.384925    5513.9011 
  105500      105.487    344.26108    14.150758   -446.10599   -431.95523   -496.34866   -8035.1148    -3217.984    9764.0528    15.534106    13.452932    26.384908    5513.8992 
  106000      105.987    329.46587    13.542604   -445.47583   -431.93323    1059.8278   -7075.1693   -1023.8648    11278.517    15.534109    13.452935     26.38489    5513.8972 
  106500      106.487    349.82329     14.37939   -446.29154   -431.91215    97.165213   -7514.7603   -3981.2416    11787.498    15.534111    13.452937    26.384873    5513.8952 
  107000      106.987    336.26848    13.822224   -445.71327   -431.89104    -438.2367   -8212.5846   -5920.4517    12818.326    15.534114    13.452939    26.384855    5513.8933 
  107500      107.487    354.73305    14.581205   -446.45069   -431.86949   -591.18114   -8413.4986   -4404.7768    11044.732    15.534116    13.452941    26.384838    5513.8913 
  108000      107.987    344.94099    14.178705   -446.02687   -431.84816   -133.34518   -8576.6734   -4553.4303    12730.068    15.534118    13.452943     26.38482    5513.8893 
  108500      108.487    359.48342    14.776468   -446.60321   -431.82674   -1639.4264   -8084.1468   -8686.9451    11852.813    15.534121    13.452945    26.384803    5513.8874 
  109000      108.987    355.15997    14.598753   -446.40392   -431.80517   -653.75597   -9281.7859   -3924.2303    11244.748    15.534123    13.452947    26.384785    5513.8854 
  109500      109.487    345.54631    14.203587   -445.98693   -431.78335   -856.57059   -6776.4006   -4117.1177    8323.8066    15.534126    13.452949    26.384768    5513.8835 
  110000      109.987    338.77293    13.925169   -445.68712   -431.76195    -911.9654   -9134.4275   -9628.3511    16026.882    15.534128    13.452951     26.38475    5513.8815 
  110500      110.487     352.7455    14.499507   -446.23954   -431.74003   -664.33296   -6299.7518   -6571.8459    10878.599     15.53413    13.452953    26.384733    5513.8795 
  111000      110.987    335.81998    13.803788   -445.52168    -431.7179   -493.01719   -10364.061   -6300.1756    15185.185    15.534133    13.452955    26.384715    5513.8776 
  111500      111.487     350.5501    14.409266   -446.10579   -431.69653   -237.27066   -10552.111    -3558.008    13398.307    15.534135    13.452957    26.384698    5513.8756 
  112000      111.987    350.96974    14.426515   -446.10125   -431.67474   -984.18744    -8744.141   -4497.8904    10289.469    15.534138    13.452959     26.38468    5513.8736 
  112500      112.487    358.41396    14.732508   -446.38544   -431.65293   -1330.6375   -9289.6038   -4219.8132    9517.5046     15.53414    13.452961    26.384663    5513.8717 
  113000      112.987     349.5927    14.369912   -446.00072   -431.63081   -1654.0572   -11280.578   -735.43218    7053.8389    15.534142    13.452963    26.384645    5513.8697 
  113500      113.487    353.73883    14.540338   -446.14892   -431.60858   -853.72191   -7676.0988   -6677.6137    11792.547    15.534145    13.452965    26.384628    5513.8677 
  114000      113.987    358.50636    14.736306   -446.32364   -431.58733   -456.98394   -7792.7505   -4106.6982    10528.497    15.534147    13.452967     26.38461    5513.8658 
  114500      114.487    345.94831    14.220111   -445.78463   -431.56452   -1023.7809    -10578.94   -2651.1781    10158.775     15.53415    13.452969    26.384593    5513.8638 
  115000      114.987    373.17876    15.339411    -446.8821   -431.54269   -604.33283     -8002.46   -4874.8803    11064.342    15.534152    13.452971    26.384575    5513.8618 
  115500      115.487    345.45144    14.199687   -445.72001   -431.52032   -450.84649   -7612.7025   -5452.1011    11712.264    15.534154    13.452973    26.384558    5513.8599 
  116000      115.987    386.52057    15.887822   -447.38623   -431.49841   -965.64827   -12122.975   -2215.9078    11441.938    15.534157    13.452976     26.38454    5513.8579 
  116500      116.487    334.83216    13.763184    -445.2383   -431.47512    567.97202   -8271.3406   -1240.6266    11215.883    15.534159    13.452978    26.384523    5513.8559 
  117000      116.987    372.99828    15.331992   -446.78572   -431.45373   -815.50963   -8070.9931   -6819.8804    12444.345    15.534162     13.45298    26.384505     5513.854 
  117500      117.487     351.7327    14.457876    -445.8895   -431.43162    440.54474    -8512.203   -3633.3006    13467.138    15.534164    13.452982    26.384488     5513.852 
  118000      117.987    362.69805    14.908604     -446.318    -431.4094    -354.4091   -8576.4168   -3877.5945    11390.784    15.534166    13.452984     26.38447      5513.85 
  118500      118.487    360.72996    14.827706   -446.21435   -431.38664   -635.51248   -7994.0619   -4065.4691    10152.994    15.534169    13.452986    26.384453    5513.8481 
  119000      118.987     354.3152    14.564029    -445.9279   -431.36387   -589.84896   -7962.9381    -4661.578    10854.969    15.534171    13.452988    26.384435    5513.8461 
  119500      119.487    365.70134    15.032053   -446.37411   -431.34205   -125.32453   -8350.9331   -3533.9402      11508.9    15.534174     13.45299    26.384418    5513.8442 
  120000      119.987     336.4111    13.828086   -445.14675   -431.31867   -415.18426    -9978.533   -4223.9183    12956.898    15.534176    13.452992      26.3844    5513.8422 
  120500      120.487    373.63013    15.357964   -446.65355   -431.29558   -1270.3319   -8465.9563   -4800.7887    9455.7493    15.534178    13.452994    26.384383    5513.8402 
  121000      120.987    369.52204    15.189102   -446.46246   -431.27336   -1414.6498   -9406.6385   -5846.6663    11009.355    15.534181    13.452996    26.384365    5513.8383 
  121500      121.487    355.02239    14.593098   -445.84403   -431.25094   -150.90983   -8807.1667   -4850.7695    13205.207    15.534183    13.452998    26.384348    5513.8363 
  122000      121.987    357.55808    14.697327   -445.92499   -431.22767    182.93472   -6865.1827    -5598.772    13012.759    15.534186       13.453     26.38433    5513.8343 
  122500      122.487    358.63022    14.741397   -445.94675   -431.20535   -1649.8886   -7038.4801   -8073.5734    10162.388    15.534188    13.453002    26.384313    5513.8324 
  123000      122.987    363.53843    14.943147    -446.1259   -431.18275   -1897.1976   -7495.6446   -5841.5603    7645.6123     15.53419    13.453004    26.384295    5513.8304 
  123500      123.487    358.64897    14.742168   -445.90227    -431.1601   -1020.7266   -10338.821    -4021.779    11298.421    15.534193    13.453006    26.384278    5513.8284 
  124000      123.987    359.09332    14.760433   -445.89797   -431.13754    30.501677   -9329.0075   -4646.1939    14066.706    15.534195    13.453008     26.38426    5513.8265 
  124500      124.487     375.8194    15.447954   -446.56301   -431.11506   -783.72604   -7443.8795   -5106.0166    10198.718    15.534198     13.45301    26.384243    5513.8245 
  125000      124.987    360.85965    14.833037   -445.92468   -431.09165   -1023.1387   -8704.6009   -7613.1119    13248.297      15.5342    13.453012    26.384225    5513.8225 
  125500      125.487    353.67051     14.53753   -445.60636   -431.06884    460.79724   -10023.077   -4900.7547    16306.223    15.534202    13.453014    26.384208    5513.8206 
  126000      125.987     369.8399    15.202168    -446.2478   -431.04563   -471.01473   -9418.1842   -1922.7095    9927.8495    15.534205    13.453017     26.38419    5513.8186 
  126500      126.487    352.94467    14.507694    -445.5306    -431.0229    172.41889   -10185.544   -2257.3631    12960.164    15.534207    13.453019    26.384173    5513.8166 
  127000      126.987    370.55224    15.231448   -446.23088   -430.99944   -203.90592    -8341.194   -6701.5608    14431.037     15.53421    13.453021    26.384155    5513.8147 
  127500      127.487    355.63676    14.618351   -445.59391   -430.97556   -256.40252    -9555.859   -5236.8408    14023.492    15.534212    13.453023    26.384138    5513.8127 
  128000      127.987    365.98236    15.043605    -445.9965    -430.9529   -1163.4085   -8824.5875   -6471.2913    11805.653    15.534214    13.453025     26.38412    5513.8107 
  128500      128.487    370.75681    15.239857   -446.16977   -430.92991   -1340.8397   -10826.786   -5489.1732     12293.44    15.534217    13.453027    26.384103    5513.8088 
  129000      128.987    374.82388    15.407033   -446.31364    -430.9066   -280.87084    -8106.558   -4682.2123    11946.158    15.534219    13.453029    26.384085    5513.8068 
  129500      129.487    372.46639    15.310129   -446.19371   -430.88358    112.99713   -8128.9686   -1033.2712    9501.2312    15.534222    13.453031    26.384068    5513.8048 
  130000      129.987    369.35493    15.182233   -446.04198   -430.85975   -791.06521   -6803.5608    -3819.827    8250.1922    15.534224    13.453033     26.38405    5513.8029 
  130500      130.487    345.53229     14.20301   -445.03904   -430.83603   -621.21655   -9907.7704   -2303.1683    10347.289    15.534226    13.453035    26.384033    5513.8009 
  131000      130.987    372.76888    15.322563   -446.13552   -430.81296    598.38477   -6587.9509   -4383.3662    12766.471    15.534229    13.453037    26.384015     5513.799 
  131500      131.487    364.62282    14.987721   -445.77715   -430.78943   -562.21542   -6017.4339   -7906.4008    12237.188    15.534231    13.453039    26.383998     5513.797 
  132000      131.987    345.88425    14.217477   -444.98342   -430.76594    -526.8894    -9892.113   -5535.0333    13846.478    15.534234    13.453041     26.38398     5513.795 
  132500      132.487    348.54705    14.326931   -445.07011   -430.74318   -422.15618    -8956.495   -5078.0779    12768.104    15.534236    13.453043    26.383963    5513.7931 
  133000      132.987    354.07524    14.554166   -445.27319   -430.71902    147.84531   -9781.8654   -2165.9756    12391.377    15.534238    13.453045    26.383945    5513.7911 
  133500      133.487    378.39994    15.554026   -446.24965   -430.69562    -1084.486   -9469.8803   -5557.1482    11773.571    15.534241    13.453047    26.383928    5513.7891 
  134000      133.987    391.08336    16.075375   -446.74762   -430.67225   -909.58219   -5634.8117   -8219.9822    11126.047    15.534243    13.453049     26.38391    5513.7872 
  134500      134.487     348.2057      14.3129   -444.96102   -430.64812     -886.692     -10068.2   -3274.2802    10682.404    15.534246    13.453051    26.383893    5513.7852 
  135000      134.987    392.50686    16.133887   -446.75898   -430.62509    -161.5346   -7020.0663   -3564.3915    10099.854    15.534248    13.453053    26.383875    5513.7832 
  135500      135.487    376.60785    15.480362   -446.08106    -430.6007   -817.90878   -10954.166   -2131.2208     10631.66     15.53425    13.453055    26.383858    5513.7813 
  136000      135.987    398.73611    16.389938   -446.96733   -430.57739   -819.39831   -7087.7599   -5166.7546    9796.3196    15.534253    13.453058     26.38384    5513.7793 
  136500      136.487    374.98868    15.413807   -445.96746   -430.55365    67.324561   -9295.8838   -3715.6355    13213.493    15.534255     13.45306    26.383823    5513.7773 
  137000      136.987    406.52239    16.709991   -447.24025   -430.53026   -1288.8179   -9244.2023   -6931.3795    12309.128    15.534258    13.453062    26.383805    5513.7754 
  137500      137.487    379.57047     15.60214   -446.10773   -430.50559   -402.00113   -8474.8846   -4924.6851    12193.566     15.53426    13.453064    26.383788    5513.7734 
  138000      137.987    369.03432    15.169055   -445.65069   -430.48164   -1187.2134   -7209.2718   -4725.8196    8373.4513    15.534262    13.453066     26.38377    5513.7714 
  138500      138.487    383.59603     15.76761    -446.2261   -430.45849    -876.3601   -8650.6491   -4396.0721    10417.641    15.534265    13.453068    26.383753    5513.7695 
  139000      138.987    348.85105    14.339427   -444.77293   -430.43351    1363.0862   -7738.6192   -989.38201     12817.26    15.534267     13.45307    26.383735    5513.7675 
  139500      139.487    372.39675    15.307266   -445.71716    -430.4099    623.27205   -6462.3326    -2547.497    10879.646     15.53427    13.453072    26.383718    5513.7655 
  140000      139.987    381.09763    15.664914   -446.05286   -430.38794   -206.38059   -7491.9388    -5783.452    12656.249    15.534272    13.453074      26.3837    5513.7636 
  140500      140.487    373.89963    15.369042   -445.73272   -430.36368   -522.17327   -10911.344   -3409.2097    12754.034    15.534274    13.453076    26.383683    5513.7616 
  141000      140.987    383.51921    15.764452   -446.10329   -430.33884    -20.31804    -7438.598   -2785.9381    10163.582    15.534277    13.453078    26.383665    5513.7597 
  141500      141.487    380.82188    15.653579   -445.96799   -430.31441    390.90693    -7418.832   -2268.9641    10860.517    15.534279     13.45308    26.383648    5513.7577 
  142000      141.987    374.22274    15.382323   -445.67287   -430.29055   -127.53448   -8918.7859   -5000.0587    13536.241    15.534282    13.453082     26.38363    5513.7557 
  142500      142.487    376.19785     15.46351   -445.72984   -430.26634   -830.41642    -8695.555   -3960.1407    10164.446    15.534284    13.453084    26.383613    5513.7538 
  143000      142.987     380.9849     15.66028   -445.90321   -430.24292    172.85715   -9715.1949   -571.91353     10805.68    15.534286    13.453086    26.383595    5513.7518 
  143500      143.487    375.31618    15.427269   -445.64625   -430.21898    852.75377   -7361.0455   -4935.8361    14855.143    15.534289    13.453088    26.383578    5513.7498 
  144000      143.987    380.03989    15.621436   -445.81583    -430.1944    924.78737    -8515.542   -1215.4237    12505.328    15.534291     13.45309     26.38356    5513.7479 
  144500      144.487    357.68048    14.702358   -444.87223   -430.16987    1314.6692   -7760.9956   -365.15658     12070.16    15.534294    13.453092    26.383543    5513.7459 
  145000      144.987    363.74206    14.951518   -445.09707   -430.14556    -389.8115   -11309.867   -4846.4687    14986.901    15.534296    13.453094    26.383525    5513.7439 
  145500      145.487    374.32476    15.386517   -445.50786   -430.12135     -128.301   -9322.4836   -2723.6342    11661.215    15.534298    13.453096    26.383508     5513.742 
  146000      145.987    361.30213    14.851225   -444.94872    -430.0975   -449.29125   -11259.762   -2811.4555    12723.344    15.534301    13.453099     26.38349      5513.74 
  146500      146.487    372.96544    15.330642   -445.40423   -430.07358    275.75651   -7085.3511   -4797.5267    12710.147    15.534303    13.453101    26.383473     5513.738 
  147000      146.987    390.02451    16.031851   -446.08074   -430.04889     -302.543   -9514.4531   -1901.4914    10508.315    15.534306    13.453103    26.383455    5513.7361 
  147500      147.487    358.66356    14.742767   -444.76758   -430.02481    981.38307   -7506.4635    -1776.495    12227.108    15.534308    13.453105    26.383438    5513.7341 
  148000      147.987    369.91472    15.205243    -445.2055   -430.00026    1451.0148    -5281.888   -3632.8097    13267.742     15.53431    13.453107     26.38342    5513.7321 
  148500      148.487     394.9956    16.236186   -446.21284   -429.97665   -118.37797   -10131.794   -5489.2485    15265.909    15.534313    13.453109    26.383403    5513.7302 
  149000      148.987    380.34945     15.63416   -445.58597   -429.95181     1275.962   -9043.5233   -2252.5008     15123.91    15.534315    13.453111    26.383385    5513.7282 
  149500      149.487    382.84283    15.736649   -445.66392   -429.92727   -527.74379   -7902.7791   -4781.8852    11101.433    15.534318    13.453113    26.383368    5513.7262 
  150000      149.987    389.62005    16.015225   -445.91821   -429.90299   -511.04924   -8608.3279   -2763.2396    9838.4198     15.53432    13.453115     26.38335    5513.7243 
  150500      150.487    380.79085    15.652303   -445.53102   -429.87871    950.72998   -5335.7853   -5856.2168    14044.192    15.534322    13.453117    26.383333    5513.7223 
  151000      150.987    365.72204    15.032904   -444.88731   -429.85441    -980.9618   -9275.9066    -2625.144    8958.1651    15.534325    13.453119    26.383315    5513.7203 
  151500      151.487    371.43871    15.267886   -445.09749    -429.8296   -957.32096   -9494.7878   -1392.9179    8015.7428    15.534327    13.453121    26.383298    5513.7184 
  152000      151.987    389.10215    15.993937   -445.79945   -429.80551    156.38409   -8233.9303   -2860.9583    11564.041     15.53433    13.453123     26.38328    5513.7164 
  152500      152.487    355.01042    14.592606   -444.37324   -429.78063    563.89598   -8318.0386   -2600.6859    12610.412    15.534332    13.453125    26.383263    5513.7145 
  153000      152.987    369.40734    15.184387   -444.94043   -429.75604     761.9853   -7631.4556   -3518.0411    13435.453    15.534334    13.453127    26.383245    5513.7125 
  153500      153.487    391.44458    16.090222   -445.82181   -429.73158    466.58546   -4962.7487   -841.20901    7203.7141    15.534337    13.453129    26.383228    5513.7105 
  154000      153.987    372.88827     15.32747   -445.03468   -429.70721   -1580.6388   -11632.586   -1530.0754    8420.7454    15.534339    13.453131     26.38321    5513.7086 
  154500      154.487    378.61935    15.563045    -445.2462   -429.68316   -8.8843254   -7359.4454   -2366.3521    9699.1446    15.534342    13.453133    26.383193    5513.7066 
  155000      154.987    404.83368    16.640577   -446.29943   -429.65885   -813.60287   -8660.6593   -4718.1301    10937.981    15.534344    13.453135    26.383175    5513.7046 
  155500      155.487    386.19123    15.874285   -445.50676   -429.63247    406.88813    -8441.904   -3039.7639    12702.332    15.534346    13.453137    26.383158    5513.7027 
  156000      155.987    399.51903     16.42212   -446.03019   -429.60807   -538.77089   -8743.9634   -5112.5282    12240.179    15.534349     13.45314     26.38314    5513.7007 
  156500      156.487    384.48316    15.804075   -445.38666   -429.58259    539.66657   -6830.7023   -5374.4369    13824.139    15.534351    13.453142    26.383123    5513.6987 
  157000      156.987    383.62696    15.768881    -445.3266   -429.55771    838.78961   -7519.4529   -2285.4236    12321.245    15.534354    13.453144    26.383105    5513.6968 
  157500      157.487    380.90352    15.656935   -445.18919   -429.53225   -56.271181   -8630.7036   -805.13242    9267.0225    15.534356    13.453146    26.383088    5513.6948 
  158000      157.987     404.5951    16.630771   -446.13884   -429.50807   -1184.7318   -10924.216   -5736.9742    13106.995    15.534358    13.453148     26.38307    5513.6928 
  158500      158.487    393.63297    16.180175   -445.66259   -429.48241   -595.62831   -9874.5668    -4021.376    12109.058    15.534361     13.45315    26.383053    5513.6909 
  159000      158.987    379.29978    15.591013   -445.04921   -429.45819   -1257.8796   -6911.4885   -2918.6245    6056.4743    15.534363    13.453152    26.383035    5513.6889 
  159500      159.487    370.71816    15.238268   -444.67157    -429.4333    97.085044   -8201.5657    -2530.044    11022.865    15.534366    13.453154    26.383018    5513.6869 
  160000      159.987     388.4185    15.965836   -445.37483     -429.409    9.6211422   -11729.552   -2151.9408    13910.356    15.534368    13.453156       26.383     5513.685 
  160500      160.487    379.17327    15.585814   -444.96963   -429.38382    443.95624   -7466.0722   -5552.8322    14350.773     15.53437    13.453158    26.382983     5513.683 
  161000      160.987    399.13369    16.406281   -445.76548    -429.3592    233.08403   -9414.8864   -2169.4948    12283.633    15.534373     13.45316    26.382965     5513.681 
  161500      161.487    387.04067    15.909201   -445.24315   -429.33395      633.112    -7576.555   -5649.9615    15125.853    15.534375    13.453162    26.382948    5513.6791 
  162000      161.987    404.99916     16.64738   -445.95604   -429.30866    763.32906    -7437.631   -3180.2021     12907.82    15.534378    13.453164     26.38293    5513.6771 
  162500      162.487    385.32022    15.838482   -445.12196   -429.28348    1429.4055   -4238.1665   -5190.1822    13716.565     15.53438    13.453166    26.382913    5513.6751 
  163000      162.987     379.6677    15.606137   -444.86433    -429.2582    191.63341    -8364.264   -2713.0941    11652.258    15.534382    13.453168    26.382895    5513.6732 
  163500      163.487    378.05634    15.539902   -444.77312   -429.23321   -400.73836   -6582.9623   -3506.9605    8887.7077    15.534385     13.45317    26.382878    5513.6712 
  164000      163.987    389.80242    16.022722   -445.23053   -429.20781    22.389991   -7043.5879   -3462.2177    10572.976    15.534387    13.453172     26.38286    5513.6693 
  164500      164.487    404.26904    16.617368    -445.7995   -429.18213   -193.06627   -8042.9101   -3957.0745    11420.786     15.53439    13.453174    26.382843    5513.6673 
  165000      164.987    390.70397     16.05978   -445.21711   -429.15733    81.603546   -9083.6722   -1680.5046    11008.987    15.534392    13.453176    26.382825    5513.6653 
  165500      165.487     376.7475    15.486103   -444.61805   -429.13195    1226.2668   -5611.2887   -2900.1432    12190.232    15.534394    13.453178    26.382808    5513.6634 
  166000      165.987    394.30952    16.207985   -445.31533   -429.10734    107.07324    -7920.982   -4605.6479     12847.85    15.534397    13.453181     26.38279    5513.6614 
  166500      166.487    375.65036    15.441005   -444.52336   -429.08236    208.34822   -7319.8699   -6032.6672    13977.582    15.534399    13.453183    26.382773    5513.6594 
  167000      166.987    389.60043    16.014419   -445.07158   -429.05716    173.05525   -5923.8753   -3469.1069     9912.148    15.534402    13.453185    26.382755    5513.6575 
  167500      167.487    390.25094    16.041158   -445.07358   -429.03242    -505.5973   -9875.4923   -2912.8027    11271.503    15.534404    13.453187    26.382738    5513.6555 
  168000      167.987    398.80422    16.392738   -445.39904    -429.0063   -2109.9284     -10120.9   -3479.9082    7271.0231    15.534406    13.453189     26.38272    5513.6535 
  168500      168.487    397.80802     16.35179   -445.33201   -428.98022    614.48934   -7838.2578   -2927.0475    12608.773    15.534409    13.453191    26.382703    5513.6516 
  169000      168.987     391.0516    16.074069   -445.02888   -428.95482    696.01712   -6598.3087   -5484.1572    14170.517    15.534411    13.453193    26.382685    5513.6496 
  169500      169.487    379.54908    15.601261   -444.53084   -428.92958    1828.5925   -8403.6879   -808.97767    14698.443    15.534414    13.453195    26.382668    5513.6476 
  170000      169.987     378.9175      15.5753   -444.47887   -428.90357    479.38962   -6924.9885   -5674.0659    14037.223    15.534416    13.453197     26.38265    5513.6457 
  170500      170.487    422.09435    17.350073   -446.22841   -428.87834   -301.14326   -9618.2088   -2151.7226    10866.502    15.534418    13.453199    26.382633    5513.6437 
  171000      170.987    404.68632     16.63452   -445.48769   -428.85317    540.44441   -8586.0597   -2289.1757    12496.569    15.534421    13.453201    26.382615    5513.6417 
  171500      171.487    403.51324    16.586301   -445.41368   -428.82738   -496.72454   -8916.6748   -2074.6987    9501.1999    15.534423    13.453203    26.382598    5513.6398 
  172000      171.987    388.01898    15.949414   -444.75106   -428.80165    418.48121   -5772.5909   -2260.1718    9288.2063    15.534426    13.453205     26.38258    5513.6378 
  172500      172.487    404.82192    16.640094   -445.41627   -428.77618    32.926571   -6805.5469   -2506.7798    9411.1065    15.534428    13.453207    26.382563    5513.6358 
  173000      172.987    389.30083    16.002104   -444.75261   -428.75051    10.785872   -6987.9375     -2250.68    9270.9751     15.53443    13.453209    26.382545    5513.6339 
  173500      173.487    377.92471    15.534491   -444.25958   -428.72508   -150.88316   -10735.797    310.48582    9972.6614    15.534433    13.453211    26.382528    5513.6319 
  174000      173.987     398.5315    16.381528   -445.08126   -428.69973    1160.6721   -7154.6287   -1780.3611    12417.006    15.534435    13.453213     26.38251    5513.6299 
  174500      174.487    413.82015    17.009964   -445.68502   -428.67506   -685.63284   -11716.441   -5105.6452    14765.188    15.534438    13.453215    26.382493     5513.628 
  175000      174.987    407.54996     16.75223   -445.39949   -428.64727    523.86595   -7821.0869   -3301.3558    12694.041     15.53444    13.453217    26.382475     5513.626 
  175500      175.487    404.45193    16.624886   -445.24686   -428.62198    835.19797   -5989.7715   -5020.8465    13516.212    15.534442    13.453219    26.382458     5513.624 
  176000      175.987    409.43257    16.829613   -445.42541    -428.5958    1371.7595    -5176.698   -1173.4097    10465.386    15.534445    13.453222     26.38244    5513.6221 
  176500      176.487    373.69629    15.360684   -443.93088   -428.57019   -457.38539   -8865.1953   -3448.7273    10941.766    15.534447    13.453224    26.382423    5513.6201 
  177000      176.987    387.75437    15.938537   -444.48275   -428.54421    1040.5795   -7757.2797    46.389833    10832.629     15.53445    13.453226    26.382405    5513.6182 
  177500      177.487    399.78846    16.433195   -444.95159    -428.5184   -13.966329   -7548.4767    -2786.601    10293.179    15.534452    13.453228    26.382388    5513.6162 
  178000      177.987    425.60201    17.494254   -445.98709   -428.49284   -751.63458   -9134.2322    -4584.045    11463.373    15.534454     13.45323     26.38237    5513.6142 
  178500      178.487    433.50496    17.819102   -446.28618   -428.46708   -182.12692    -9031.623   -2792.1833    11277.426    15.534457    13.453232    26.382353    5513.6123 
  179000      178.987    370.11338    15.213409   -443.65312   -428.43971    818.75376   -7523.8651   -1941.8245    11921.951    15.534459    13.453234    26.382335    5513.6103 
  179500      179.487    393.93921    16.192763   -444.60735   -428.41459    433.79782   -8619.9556   -1987.1787    11908.528    15.534462    13.453236    26.382318    5513.6083 
  180000      179.987    404.80944    16.639581   -445.02816   -428.38858   -148.53692   -9030.3256   -4362.8924    12947.607    15.534464    13.453238      26.3823    5513.6064 
  180500      180.487    379.76683    15.610212    -443.9717   -428.36149    1161.4562   -7634.5374   -3500.2723    14619.178    15.534466     13.45324    26.382283    5513.6044 
  181000      180.987    391.92366    16.109915   -444.44515   -428.33523    1722.9744   -6519.1514   -625.88709    12313.962    15.534469    13.453242    26.382265    5513.6024 
  181500      181.487    407.06655    16.732359   -445.04219   -428.30983    1279.7308   -7860.5789   -3147.1299    14846.901    15.534471    13.453244    26.382248    5513.6005 
  182000      181.987    388.58373    15.972628   -444.25617   -428.28354    1508.8107   -8360.4507    -2205.811    15092.694    15.534474    13.453246     26.38223    5513.5985 
  182500      182.487    399.78284    16.432964   -444.69015   -428.25719     1319.033   -8260.6688   -2604.9131    14822.681    15.534476    13.453248    26.382213    5513.5965 
  183000      182.987    415.94987    17.097505   -445.32908   -428.23158    1031.4473   -6790.4452   -2739.7773    12624.565    15.534478     13.45325    26.382195    5513.5946 
  183500      183.487    397.37733    16.334086   -444.53913   -428.20505    174.25979   -4625.6343   -2751.8135    7900.2272    15.534481    13.453252    26.382178    5513.5926 
  184000      183.987    381.82555    15.694834   -443.87382   -428.17899    153.44692   -9550.6004   -5190.3311    15201.272    15.534483    13.453254     26.38216    5513.5906 
  184500      184.487    382.16297    15.708704   -443.86175   -428.15305    1696.7025   -7724.7643   -1604.5491    14419.421    15.534486    13.453256    26.382143    5513.5887 
  185000      184.987    385.91308    15.862851   -443.98861   -428.12576    1440.1493   -6354.1276   -4320.0174    14994.593    15.534488    13.453258    26.382125    5513.5867 
  185500      185.487     419.3479    17.237181    -445.3374   -428.10022    1184.9617   -7064.1667   -2840.0705    13459.122     15.53449     13.45326    26.382108    5513.5847 
  186000      185.987    400.38105    16.457553   -444.53128   -428.07372    329.40311    -8084.425   -2066.4623    11139.097    15.534493    13.453263     26.38209    5513.5828 
  186500      186.487    397.08587    16.322106   -444.36971   -428.04761    2043.5026    -6925.761   -853.24271    13909.511    15.534495    13.453265    26.382073    5513.5808 
  187000      186.987    407.09498    16.733528   -444.75535   -428.02182    764.80784   -9475.6522   -1518.9915    13289.067    15.534498    13.453267    26.382055    5513.5788 
  187500      187.487    396.21492    16.286306   -444.28214   -427.99583    2461.3612   -5452.8468   -4450.8144    17287.745      15.5345    13.453269    26.382038    5513.5769 
  188000      187.987    385.94162    15.864025   -443.83352   -427.96949    682.33529   -8800.0544   -4011.0969    14858.157    15.534502    13.453271     26.38202    5513.5749 
  188500      188.487    415.88212    17.094721   -445.03786   -427.94314     1075.863   -8185.6207   -832.10232    12245.312    15.534505    13.453273    26.382003     5513.573 
  189000      188.987    413.35009    16.990642   -444.90726   -427.91661    1725.5763   -7281.1734   -3600.6835    16058.586    15.534507    13.453275    26.381985     5513.571 
  189500      189.487    402.34183    16.538151   -444.42786   -427.88971    1118.0702   -7433.4618   -3988.2981    14775.971     15.53451    13.453277    26.381968     5513.569 
  190000      189.987    420.37244    17.279294   -445.14337   -427.86408    1206.4165   -7902.7748   -2484.4998    14006.524    15.534512    13.453279     26.38195    5513.5671 
  190500      190.487    405.12576    16.652583   -444.48965   -427.83706    976.34793   -8772.8614   -937.74966    12639.655    15.534514    13.453281    26.381933    5513.5651 
  191000      190.987    366.77242     15.07608   -442.88705   -427.81097    1143.7175   -7375.1098   -4430.6012    15236.863    15.534517    13.453283    26.381915    5513.5631 
  191500      191.487    405.27396    16.658675   -444.44329   -427.78461    1670.9113   -5737.4107   -2409.8684    13160.013    15.534519    13.453285    26.381898    5513.5612 
  192000      191.987    416.99459    17.140449   -444.89937   -427.75892    905.79404   -9370.9099   -972.07184    13060.364    15.534522    13.453287     26.38188    5513.5592 
  192500      192.487    389.05145    15.991853   -443.72428   -427.73243    1565.1571   -6670.2351   -3008.0531    14373.759    15.534524    13.453289    26.381863    5513.5572 
  193000      192.987    424.48016    17.448141   -445.15458   -427.70644   -662.15031   -11293.602     740.8601    8566.2911    15.534526    13.453291    26.381845    5513.5553 
  193500      193.487    403.07133    16.568136   -444.24793    -427.6798    401.71561   -7663.4943   -2995.1869    11863.828    15.534529    13.453293    26.381828    5513.5533 
  194000      193.987    431.59104    17.740432   -445.39384    -427.6534   -1066.2208   -8730.9254   -4151.8836    9684.1465    15.534531    13.453295     26.38181    5513.5513 
  194500      194.487    390.37637    16.046314   -443.67257   -427.62626    175.18449   -10584.779   -329.79313    11440.126    15.534534    13.453297    26.381793    5513.5494 
  195000      194.987    401.59185    16.507323   -444.10777   -427.60044     934.8527   -9290.2558    219.75556    11875.058    15.534536    13.453299    26.381775    5513.5474 
  195500      195.487    410.33855    16.866854   -444.44022   -427.57337   -219.48087    -10573.83   -3060.8488    12976.236    15.534538    13.453301    26.381758    5513.5454 
  196000      195.987    396.26669    16.288434   -443.83459   -427.54616    1664.4016   -9573.6267     -4334.78    18901.612    15.534541    13.453304     26.38174    5513.5435 
  196500      196.487    411.54779    16.916559   -444.43634   -427.51979      1093.07   -6221.7526   -1894.2591    11395.222    15.534543    13.453306    26.381723    5513.5415 
  197000      196.987    390.90848    16.068186   -443.56047   -427.49229     1345.015   -11842.546   -1706.5061    17584.097    15.534546    13.453308    26.381705    5513.5395 
  197500      197.487    407.64227    16.756024   -444.22227   -427.46624    489.85825   -9763.9123   -1438.9725    12672.459    15.534548     13.45331    26.381688    5513.5376 
  198000      197.987    394.65009    16.221984   -443.66108    -427.4391    2491.0012   -7270.6656   -466.55276    15210.222     15.53455    13.453312     26.38167    5513.5356 
  198500      198.487    410.31713    16.865973   -444.27907   -427.41309    1203.7177   -8521.6809   -1438.7439    13571.578    15.534553    13.453314    26.381653    5513.5336 
  199000      198.987    403.98568    16.605721   -443.99092    -427.3852    1190.8322   -7117.3179   -5302.3387    15992.153    15.534555    13.453316    26.381635    5513.5317 
  199500      199.487    403.10419    16.569487   -443.92761   -427.35812    49.721116   -7364.8216   -4391.9721    11905.957    15.534558    13.453318    26.381618    5513.5297 
  200000      199.987    395.39633    16.252658   -443.58417   -427.33151     2174.741   -7968.5407    -2277.576     16770.34     15.53456     13.45332      26.3816    5513.5277 
  200500      200.487    427.30677    17.564328   -444.86939   -427.30506    1061.2448   -7741.2928   -5177.5866    16102.614    15.534562    13.453322    26.381583    5513.5258 
  201000      200.987    404.94902    16.645318    -443.9244   -427.27908    966.33614   -8777.7587     843.6573     10833.11    15.534565    13.453324    26.381565    5513.5238 
  201500      201.487    400.08853    16.445529   -443.69842   -427.25289    749.92939    -8504.762   -3285.0892    14039.639    15.534567    13.453326    26.381548    5513.5219 
  202000      201.987    424.27453    17.439688    -444.6661   -427.22641    546.43546    -8779.262   -3002.4794    13421.048     15.53457    13.453328     26.38153    5513.5199 
  202500      202.487    413.46507    16.995368   -444.19431   -427.19894    1595.3655   -5821.1134   -6001.9797     16609.19    15.534572     13.45333    26.381513    5513.5179 
  203000      202.987    427.31668    17.564735   -444.73771   -427.17297    221.16311   -8752.3973    -4629.105    14044.992    15.534574    13.453332    26.381495     5513.516 
  203500      203.487    399.82881    16.434854   -443.57986     -427.145    661.98954   -8698.5371    82.223362    10602.282    15.534577    13.453334    26.381478     5513.514 
  204000      203.987    409.85955    16.847164   -443.96577   -427.11861    2586.4378    -3030.717   -3985.6036    14775.634    15.534579    13.453336     26.38146     5513.512 
  204500      204.487    412.11217    16.939758     -444.031   -427.09124    1699.8461   -6418.3984   -3296.6346    14814.571    15.534582    13.453338    26.381443    5513.5101 
  205000      204.987    401.78612    16.515308    -443.5799   -427.06459    1246.4908   -4968.5047   -6192.5135     14900.49    15.534584     13.45334    26.381425    5513.5081 
  205500      205.487    424.19369    17.436366   -444.47478   -427.03842    1850.7144    -10733.16   -54.516421     16339.82    15.534586    13.453342    26.381408    5513.5061 
  206000      205.987     413.0778     16.97945   -443.98999   -427.01054    1161.3249   -6813.7056   -2292.9798     12590.66    15.534589    13.453345     26.38139    5513.5042 
  206500      206.487    402.33814    16.537999    -443.5207    -426.9827    589.69467   -10644.383   -251.78965    12665.257    15.534591    13.453347    26.381373    5513.5022 
  207000      206.987    431.83365    17.750404   -444.70697   -426.95657    1828.2015   -5497.5215   -3526.2055    14508.332    15.534594    13.453349    26.381355    5513.5002 
  207500      207.487    411.78565    16.926336   -443.85486   -426.92853    1710.8715   -7273.6538   -2200.9538    14607.222    15.534596    13.453351    26.381338    5513.4983 
  208000      207.987    420.70196    17.292839   -444.19497   -426.90213    842.94306   -8936.6651   -1064.3499    12529.844    15.534598    13.453353     26.38132    5513.4963 
  208500      208.487    427.50159    17.572336   -444.44686   -426.87453    1364.1556   -5884.0137    -1826.124    11802.604    15.534601    13.453355    26.381303    5513.4943 
  209000      208.987    404.51794    16.627599   -443.47451   -426.84691    649.03506   -9070.3822   -416.72905    11434.216    15.534603    13.453357    26.381285    5513.4924 
  209500      209.487     422.8111    17.379534   -444.19852   -426.81899     1299.028   -9345.6641    -923.6691    14166.417    15.534606    13.453359    26.381268    5513.4904 
  210000      209.987     419.3211    17.236079    -444.0272   -426.79112    1634.5355   -5971.1239   -1438.7475    12313.478    15.534608    13.453361     26.38125    5513.4884 
  210500      210.487    403.55445    16.587995   -443.35217   -426.76418    3032.5333   -2767.3382   -2208.7669    14073.705     15.53461    13.453363    26.381233    5513.4865 
  211000      210.987    411.21945    16.903063    -443.6406   -426.73754    1430.9697   -8302.0742   -5263.2515    17858.235    15.534613    13.453365    26.381215    5513.4845 
  211500      211.487     435.1095    17.885057   -444.59596   -426.71091    651.83003   -9747.4678   -4275.2703    15978.228    15.534615    13.453367    26.381198    5513.4825 
  212000      211.987    414.05224    17.019504   -443.70261   -426.68311    2144.4335   -6932.0322   -1997.3422    15362.675    15.534618    13.453369     26.38118    5513.4806 
[...]
  948500      948.487    594.48568    24.436171   -439.18124   -414.74507    6821.6035   -4969.2179    6642.8182     18791.21    15.538153    13.456389    26.355403    5510.5833 
  949000      948.987    577.01156    23.717902   -438.46079   -414.74289    6993.7177    -6516.315    5199.7587    22297.709    15.538155    13.456391    26.355385    5510.5814 
  949500      949.487    570.13029     23.43505   -438.17663   -414.74158    7419.4144   -3954.2902     3838.089    22374.445    15.538158    13.456393    26.355368    5510.5794 
  950000      949.987    562.39884     23.11725   -437.85753   -414.74028    6862.8236    -4812.618    4258.0081    21143.081     15.53816    13.456395     26.35535    5510.5774 
  950500      950.487     566.6658    23.292643   -438.03054    -414.7379    8461.1994   -3131.1884      3112.76    25402.027    15.538162    13.456397    26.355333    5510.5754 
  951000      950.987    572.49569    23.532278   -438.26913   -414.73686    5788.0701    -6548.683    1398.9293    22513.964    15.538165    13.456399    26.355315    5510.5735 
  951500      951.487    542.44093    22.296886    -437.0331   -414.73622    7872.5353   -2729.6692    6461.4818    19885.793    15.538167    13.456401    26.355298    5510.5715 
  952000      951.987    564.82744    23.217077   -437.95155   -414.73447    6343.2722    -628.7274   -1568.7912    21227.335     15.53817    13.456403     26.35528    5510.5695 
  952500      952.487    590.57314    24.275347   -439.01036   -414.73501    5810.2712   -1234.7103   -3013.1168    21678.641    15.538172    13.456405    26.355263    5510.5676 
  953000      952.987    594.76835     24.44779    -439.1814   -414.73361    7235.7193   -3552.9267    1519.9218    23740.163    15.538174    13.456407    26.355245    5510.5656 
  953500      953.487    567.36339    23.321317   -438.05104   -414.72972    5752.9807   -1417.0353    1498.4141    17177.563    15.538177    13.456409    26.355228    5510.5636 
  954000      953.987    560.07595    23.021769   -437.75004   -414.72827    8204.8238   -2644.2471    1865.3385     25393.38    15.538179    13.456411     26.35521    5510.5617 
  954500      954.487    596.90739    24.535715   -439.26453   -414.72881    6670.1962   -7155.1308    5580.1956    21585.524    15.538182    13.456413    26.355193    5510.5597 
  955000      954.987    544.44655    22.379326   -437.10457   -414.72525    6905.8967   -4561.5226    4021.1996    21258.013    15.538184    13.456415    26.355175    5510.5577 
  955500      955.487    596.80833    24.531643   -439.25598   -414.72434    5611.4765   -3725.3093     2716.943    17842.796    15.538186    13.456417    26.355158    5510.5558 
  956000      955.987    556.43971    22.872302   -437.59316   -414.72085    6840.8389   -4665.2489    6174.2073    19013.558    15.538189     13.45642     26.35514    5510.5538 
  956500      956.487    555.23056      22.8226   -437.54248   -414.71988    5723.1187   -2425.6543    1582.7749    18012.235    15.538191    13.456422    26.355123    5510.5518 
  957000      956.987    567.23423    23.316008   -438.03329   -414.71728    6967.1646   -3465.8537    8016.9374     16350.41    15.538194    13.456424    26.355105    5510.5499 
  957500      957.487    559.53254    22.999432   -437.71398   -414.71455     4929.113   -7660.9202    3086.8493     19361.41    15.538196    13.456426    26.355088    5510.5479 
  958000      957.987    559.82935    23.011632   -437.72576   -414.71413    7172.4018   -619.58191    6384.3124    15752.475    15.538198    13.456428     26.35507    5510.5459 
  958500      958.487    556.74492    22.884847   -437.59595    -414.7111    6904.2324   -3666.3079    3050.2686    21328.737    15.538201     13.45643    26.355053     5510.544 
  959000      958.987    564.11434    23.187765   -437.89659   -414.70882    7685.8277   -4125.5506    2614.5085    24568.525    15.538203    13.456432    26.355035     5510.542 
  959500      959.487    578.35106    23.772962   -438.48078   -414.70782    6721.0565   -4709.0789    3798.1341    21074.114    15.538206    13.456434    26.355018      5510.54 
  960000      959.987    583.44154    23.982205   -438.68692   -414.70471    6771.1473   -2230.2264    1202.1501    21341.518    15.538208    13.456436       26.355    5510.5381 
  960500      960.487    555.51828    22.834427   -437.53589   -414.70146    7514.5459   -8870.5051    7629.4461    23784.697     15.53821    13.456438    26.354983    5510.5361 
  961000      960.987    564.88185    23.219314   -437.91986   -414.70055    7617.8538   -2685.8278    4122.2121    21417.177    15.538213     13.45644    26.354965    5510.5341 
  961500      961.487    549.24031    22.576372   -437.27416   -414.69778    7041.4014   -555.40999   -134.82156    21814.436    15.538215    13.456442    26.354948    5510.5321 
  962000      961.987    557.93495    22.933763   -437.62947   -414.69571    6682.1898   -2037.2868    98.199232    21985.657    15.538218    13.456444     26.35493    5510.5302 
  962500      962.487    589.34558    24.224889   -438.91779   -414.69291    6561.3712   -78.471259   -996.97957    20759.564     15.53822    13.456446    26.354913    5510.5282 
  963000      962.987    541.62041    22.263158   -436.95313   -414.68998     6341.014   -7235.5239    4078.7704    22179.796    15.538222    13.456448    26.354895    5510.5262 
  963500      963.487    557.23775    22.905105   -437.59149   -414.68639    7408.7191    -6835.109    5783.1864     23278.08    15.538225     13.45645    26.354878    5510.5243 
  964000      963.987    572.72022    23.541508    -438.2243   -414.68279    7303.3991     -6514.89    700.22426    27724.863    15.538227    13.456452     26.35486    5510.5223 
  964500      964.487     573.2862    23.564772   -438.24478   -414.68001     6955.029   -3158.0412    4928.3575    19094.771     15.53823    13.456454    26.354843    5510.5203 
  965000      964.987    557.23172    22.904857   -437.58127   -414.67641     7544.985   -968.15964    -371.8258     23974.94    15.538232    13.456456    26.354825    5510.5184 
  965500      965.487    596.86775    24.534086   -439.20817   -414.67408    6566.1552   -3479.5143    1577.9641    21600.016    15.538234    13.456458    26.354808    5510.5164 
  966000      965.987    554.37055    22.787249   -437.45819   -414.67094    8257.9501   -1108.5977    5215.5105    20666.938    15.538237    13.456461     26.35479    5510.5144 
  966500      966.487     573.2547    23.563478   -438.23191   -414.66843    6594.0379   -6769.4941    4884.3514    21667.256    15.538239    13.456463    26.354773    5510.5125 
  967000      966.987    571.68909    23.499123   -438.16395   -414.66482    6898.6305   -2894.5259     2452.987     21137.43    15.538242    13.456465    26.354755    5510.5105 
  967500      967.487    564.03976      23.1847    -437.8467     -414.662    8365.7931   -3554.1202    5951.3696     22700.13    15.538244    13.456467    26.354738    5510.5085 
  968000      967.987    562.95021    23.139914     -437.799   -414.65908    6769.7953   -5977.4249    4031.9811     22254.83    15.538246    13.456469     26.35472    5510.5066 
  968500      968.487    520.89515    21.411252   -436.06703   -414.65578    7998.9589   -6828.3195    4135.3934    26689.803    15.538249    13.456471    26.354703    5510.5046 
  969000      968.987    591.19207    24.300788   -438.95495   -414.65416    6220.4191   -6755.0889    1765.8507    23650.496    15.538251    13.456473    26.354685    5510.5026 
  969500      969.487    574.39404     23.61031   -438.26134   -414.65103    9833.5476   -802.88461    4302.5948    26000.932    15.538254    13.456475    26.354668    5510.5007 
  970000      969.987    576.83595    23.710684   -438.35659   -414.64591    8592.4446   -3182.7487    4465.3614    24494.721    15.538256    13.456477     26.35465    5510.4987 
  970500      970.487     560.2072    23.027163   -437.67029   -414.64312    7007.4978   -6446.6522    1091.8396    26377.306    15.538258    13.456479    26.354633    5510.4967 
  971000      970.987    574.83898    23.628599   -438.26773   -414.63913    7336.7468   -3347.9149    4035.9932    21322.162    15.538261    13.456481    26.354615    5510.4947 
  971500      971.487     561.2939    23.071832   -437.70637   -414.63454     9599.535     -836.126    2362.9299    27271.801    15.538263    13.456483    26.354598    5510.4928 
  972000      971.987    556.35074    22.868645   -437.50063   -414.63199    8575.8248   -4573.0353    4640.2616    25660.248    15.538266    13.456485     26.35458    5510.4908 
  972500      972.487    528.03914    21.704904   -436.33312   -414.62821    8363.9515   -7711.9406    1185.6033    31618.192    15.538268    13.456487    26.354563    5510.4888 
  973000      972.987    549.34932    22.580853   -437.20456   -414.62371    7360.5401   -5201.5979    2863.5507    24419.667     15.53827    13.456489    26.354545    5510.4869 
  973500      973.487     588.4031    24.186148   -438.80648   -414.62033    6655.9632   -1760.9904   -2484.4717    24213.352    15.538273    13.456491    26.354528    5510.4849 
  974000      973.987     531.9411    21.865293   -436.48105   -414.61576      7812.31   -637.22278    5408.3134    18665.839    15.538275    13.456493     26.35451    5510.4829 
  974500      974.487    577.48231    23.737252   -438.35036   -414.61311    7798.1209     -1646.55    414.13496    24626.778    15.538278    13.456495    26.354493     5510.481 
  975000      974.987    587.19166    24.136352   -438.74673   -414.61037    5204.4117   -2897.9219    1487.7438    17023.413     15.53828    13.456497    26.354475     5510.479 
  975500      975.487    571.43973    23.488874    -438.0932   -414.60433    7808.2512   -2963.5846    3197.8267    23190.512    15.538282    13.456499    26.354458     5510.477 
  976000      975.987    581.29317    23.893897   -438.49362   -414.59972    7498.2324   -1265.7559    3612.5037    20147.949    15.538285    13.456502     26.35444    5510.4751 
  976500      976.487    542.40196    22.295284   -436.88979   -414.59451    7086.5565   -4127.8772    2916.6716    22470.875    15.538287    13.456504    26.354423    5510.4731 
  977000      976.987    587.81875    24.162129   -438.75215   -414.59002     6825.331   -2708.2622   -87.089283    23271.345     15.53829    13.456506    26.354405    5510.4711 
  977500      977.487    556.65024    22.880956   -437.46824   -414.58729    6700.5015   -6216.0121    2081.0948    24236.422    15.538292    13.456508    26.354388    5510.4692 
  978000      977.987    559.88449    23.013899   -437.59823   -414.58433    8592.3623    1323.3088     4093.874    20359.904    15.538294     13.45651     26.35437    5510.4672 
  978500      978.487    590.94952    24.290818   -438.87286   -414.58204    6380.3359   -926.98926    5045.0466     15022.95    15.538297    13.456512    26.354353    5510.4652 
  979000      978.987    567.57234    23.329906   -437.90651    -414.5766    6022.6964   -12.839798   -360.60163    18441.531    15.538299    13.456514    26.354335    5510.4632 
  979500      979.487    569.50121    23.409191   -437.97972   -414.57053    6429.8772   -426.30784    149.48738    19566.452    15.538302    13.456516    26.354318    5510.4613 
  980000      979.987     522.6283    21.482493   -436.04709   -414.56459    6076.7573   -6419.3161    6753.4813    17896.107    15.538304    13.456518      26.3543    5510.4593 
  980500      980.487    586.49829    24.107852   -438.66951   -414.56166     6080.144   -5851.6459    3179.7671    20912.311    15.538306     13.45652    26.354283    5510.4573 
  981000      980.987    570.53217    23.451568   -438.00776    -414.5562    6557.6468   -909.11721    3047.7616    17534.296    15.538309    13.456522    26.354265    5510.4554 
  981500      981.487    563.95525    23.181226    -437.7337   -414.55248    7332.1203   -3780.8357    4466.2244    21310.972    15.538311    13.456524    26.354248    5510.4534 
  982000      981.987    546.20377    22.451556   -436.99848   -414.54692    6772.2675   -2943.6831    1699.5001    21560.986    15.538314    13.456526     26.35423    5510.4514 
  982500      982.487    575.03463    23.636641   -438.17986   -414.54322    7696.4662   -5156.2707    3660.9854    24584.684    15.538316    13.456528    26.354213    5510.4495 
  983000      982.987    563.18121    23.149409   -437.68732   -414.53791    6206.9945   -6370.8142    1971.3049    23020.493    15.538318     13.45653    26.354195    5510.4475 
  983500      983.487    594.12255    24.421245   -438.95556   -414.53432    7343.4181   -6806.2121    6643.8952    22192.571    15.538321    13.456532    26.354178    5510.4455 
  984000      983.987    552.32976    22.703363   -437.23354   -414.53018    8488.2344   -1969.2551    5571.2756    21862.683    15.538323    13.456534     26.35416    5510.4436 
  984500      984.487    589.03403    24.212083   -438.73698    -414.5249    7715.3991   -2221.3421    657.89066    24709.649    15.538326    13.456536    26.354143    5510.4416 
  985000      984.987    537.96683    22.112979   -436.63155   -414.51857    7260.0402   -6226.5201    4515.4352    23491.205    15.538328    13.456538    26.354125    5510.4396 
  985500      985.487    586.90115    24.124411   -438.63997   -414.51556    6260.9409   -3153.0581    4513.3225    17422.558     15.53833     13.45654    26.354108    5510.4377 
  986000      985.987    541.47974    22.257377   -436.76575   -414.50837    7969.4842    521.93917    2660.9764    20725.537    15.538333    13.456543     26.35409    5510.4357 
  986500      986.487    603.40122    24.802642   -439.30645   -414.50381    6619.0537   -3079.2764    1537.6532    21398.784    15.538335    13.456545    26.354073    5510.4337 
  987000      986.987     563.8328    23.176193   -437.67486   -414.49867    7258.8404    -5770.867    1349.4912    26197.897    15.538338    13.456547    26.354055    5510.4318 
  987500      987.487    531.87992    21.862778    -436.3522   -414.48942    8121.8018   -6356.4219    4710.1323    26011.695     15.53834    13.456549    26.354038    5510.4298 
  988000      987.987     586.4287    24.104991   -438.58823   -414.48324    8273.4287   -835.42575   -1079.0412    26734.753    15.538342    13.456551     26.35402    5510.4278 
  988500      988.487    588.33058    24.183167   -438.66051   -414.47735    7122.7345   -3770.6613    3148.0645      21990.8    15.538345    13.456553    26.354003    5510.4258 
  989000      988.987     551.1066    22.653086   -437.12191   -414.46882    8387.0985   -2965.0825    1870.9805    26255.398    15.538347    13.456555    26.353985    5510.4239 
  989500      989.487     560.0183    23.019399   -437.48104   -414.46164    7645.3832   -4043.0704    3118.7581    23860.462     15.53835    13.456557    26.353968    5510.4219 
  990000      989.987    559.75301    23.008494   -437.46441   -414.45592    5630.9514   -7228.8994   -562.66024    24684.414    15.538352    13.456559     26.35395    5510.4199 
  990500      990.487    570.01777    23.430424    -437.8816   -414.45118    7217.5686   -2565.5137    5969.8008    18248.419    15.538354    13.456561    26.353933     5510.418 
  991000      990.987     573.2508    23.563317   -438.00729   -414.44397    7357.6122   -2859.8893    2369.7756     22562.95    15.538357    13.456563    26.353915     5510.416 
  991500      991.487    567.16366    23.313107   -437.75256   -414.43946    7785.7458   -4285.2545    1336.7619     26305.73    15.538359    13.456565    26.353898     5510.414 
  992000      991.987    603.25065    24.796453   -439.23128   -414.43483    6424.2431   -3837.0317    1812.1941    21297.567    15.538362    13.456567     26.35388    5510.4121 
  992500      992.487    569.75961    23.419813   -437.84722   -414.42741     7868.337   -529.27767    3571.5748    20562.714    15.538364    13.456569    26.353863    5510.4101 
  993000      992.987    572.45067    23.530428   -437.95277   -414.42235     7294.719   -5690.3957    6047.8239    21526.729    15.538366    13.456571    26.353845    5510.4081 
  993500      993.487    550.02722    22.608718   -437.02356   -414.41484    7032.2108   -1926.2892   -1511.0285     24533.95    15.538369    13.456573    26.353828    5510.4062 
  994000      993.987    588.00007    24.169582   -438.57999   -414.41041    7090.6729   -3033.3245   -656.80742    24962.151    15.538371    13.456575     26.35381    5510.4042 
  994500      994.487    571.80901    23.504053   -437.90762   -414.40357    7268.9576   -2433.3459    1864.8822    22375.336    15.538374    13.456577    26.353793    5510.4022 
  995000      994.987    572.44561     23.53022   -437.92711   -414.39689    7740.5242   -495.47445   -900.78497    24617.832    15.538376    13.456579    26.353775    5510.4003 
  995500      995.487    568.16333    23.354198   -437.74489   -414.39069    6876.3122   -5025.7461    4416.4709    21238.212    15.538378    13.456581    26.353758    5510.3983 
  996000      995.987    566.21123    23.273958   -437.65631   -414.38236    8680.1622   -3021.1833    2233.1382    26828.532    15.538381    13.456584     26.35374    5510.3963 
  996500      996.487    613.80338     25.23022   -439.60564   -414.37542    6051.8394   -5540.0237    1072.4816     22623.06    15.538383    13.456586    26.353723    5510.3944 
  997000      996.987    588.71309     24.19889   -438.56881   -414.36992    6115.3733   -4892.1359    103.48015    23134.776    15.538386    13.456588    26.353705    5510.3924 
  997500      997.487    589.24013    24.220554    -438.5833   -414.36275    6484.0019   -5841.3474     5023.864    20269.489    15.538388     13.45659    26.353688    5510.3904 
  998000      997.987    599.45682    24.640509   -438.99642   -414.35591    6886.4671   -4621.9911    4899.1991    20382.193     15.53839    13.456592     26.35367    5510.3884 
  998500      998.487    540.47739    22.216175   -436.56497   -414.34879    9126.4042    2302.0182     675.0915    24402.103    15.538393    13.456594    26.353653    5510.3865 
  999000      998.987    574.67562    23.621884   -437.96556   -414.34368    7999.4856    -3078.594    4356.1769    22720.874    15.538395    13.456596    26.353635    5510.3845 
  999500      999.487    575.06521    23.637898   -437.97702   -414.33912     6203.481   -3772.9627    854.53575     21528.87    15.538398    13.456598    26.353618    5510.3825 
 1000000      999.987    582.67676    23.950769   -438.28336   -414.33259    6601.4772    -3361.963    1739.3853    21427.009      15.5384      13.4566      26.3536    5510.3806 
 1000013         1000    585.86759    24.081927     -438.414   -414.33207     6736.675   -818.23648   -670.13239    21698.394      15.5384      13.4566      26.3536    5510.3805 
Loop time of 943.795 on 28 procs for 1000000 steps with 319 atoms

Performance: 91.545 ns/day, 0.262 hours/ns, 1059.553 timesteps/s
87.6% CPU use with 28 MPI tasks x no OpenMP threads

MPI task timing breakdown:
Section |  min time  |  avg time  |  max time  |%varavg| %total
---------------------------------------------------------------
Pair    | 752.86     | 812.12     | 861.26     |  85.3 | 86.05
Neigh   | 0.024627   | 0.04018    | 0.05197    |   3.9 |  0.00
Comm    | 72.452     | 119.9      | 177.75     | 214.9 | 12.70
Output  | 0.10167    | 0.10373    | 0.12574    |   1.3 |  0.01
Modify  | 4.5642     | 6.5388     | 8.548      |  43.6 |  0.69
Other   |            | 5.086      |            |       |  0.54

Nlocal:    11.3929 ave 16 max 6 min
Histogram: 2 2 3 1 1 4 3 3 5 4
Nghost:    659.143 ave 677 max 635 min
Histogram: 1 0 1 4 6 3 4 5 2 2
Neighs:    721.857 ave 1010 max 374 min
Histogram: 2 5 0 1 4 4 0 5 5 2
FullNghs:  1443.71 ave 2040 max 745 min
Histogram: 2 3 2 2 1 5 2 5 2 4

Total # of neighbors = 40424
Ave neighs/atom = 126.721
Neighbor list builds = 589
Dangerous builds = 0

write_restart   POSCAR_1x1x1.rest

#unfix    1
#undump   1
Total wall time: 0:15:43
