LAMMPS (7 Dec 2015)
#----------- Initialize Simulation ------------ restart01
#processors	2 2 2
units		metal
boundary	p p p     ## periodic boundary condition  on x y z axis ##
atom_style atomic
#atom_modify map array sort 0 0.0

read_data	POSCAR_1x1x1.lammps
  triclinic box = (0 0 0) to (15.6668 13.5678 25.4089) with tilt (-7.8333 0 0)
  2 by 2 by 7 MPI processor grid
  reading atoms ...
  319 atoms

#----------- Define Potential -----------------
pair_style meam
pair_coeff * * MgAlZn.library.meam Mg Al Zn MgAlZn.parameter.meam Mg Al Zn 	#1=Mg 2=Al 3=Zn	#atoms/mass

#----------- Neighbor List --------------------
neighbor 2.0 bin
neigh_modify delay 10 check yes

#--------------  Run a simulation (minimization) ---------------------------------------
minimize       1.0e-4   1.0e-6   100   1000          #結構優化的條件
WARNING: Resetting reneighboring criteria during minimization (../min.cpp:168)
Neighbor list info ...
  2 neighbor list requests
  update every 1 steps, delay 0 steps, check yes
  max neighbors/atom: 2000, page size: 100000
  master list distance cutoff = 8
  ghost atom cutoff = 8
  binsize = 4 -> bins = 6 4 7
Memory usage per processor = 8.65479 Mbytes
Step Temp E_pair E_mol TotEng Press 
       0            0   -437.34536            0   -437.34536    6349.5208 
      12            0   -460.70026            0   -460.70026   -13053.311 
Loop time of 0.0197286 on 28 procs for 12 steps with 319 atoms

92.1% CPU use with 28 MPI tasks x no OpenMP threads

Minimization stats:
  Stopping criterion = energy tolerance
  Energy initial, next-to-last, final = 
        -437.345360741     -460.658296296     -460.700261251
  Force two-norm initial, final = 22.8494 0.664246
  Force max component initial, final = 6.29977 0.177007
  Final line search alpha, max atom move = 0.618158 0.109418
  Iterations, force evaluations = 12 19

MPI task timing breakdown:
Section |  min time  |  avg time  |  max time  |%varavg| %total
---------------------------------------------------------------
Pair    | 0.01478    | 0.016208   | 0.017825   |   0.5 | 82.15
Neigh   | 0          | 0          | 0          |   0.0 |  0.00
Comm    | 0.0011324  | 0.0027322  | 0.0041181  |   1.1 | 13.85
Output  | 0          | 0          | 0          |   0.0 |  0.00
Modify  | 0          | 0          | 0          |   0.0 |  0.00
Other   |            | 0.0007888  |            |       |  4.00

Nlocal:    11.3929 ave 15 max 5 min
Histogram: 1 1 2 2 2 1 0 10 2 7
Nghost:    689.571 ave 742 max 652 min
Histogram: 2 4 5 5 2 3 1 2 2 2
Neighs:    731.286 ave 997 max 322 min
Histogram: 2 2 2 2 1 0 9 3 1 6
FullNghs:  1462.57 ave 1966 max 629 min
Histogram: 1 3 2 2 1 0 9 3 1 6

Total # of neighbors = 40952
Ave neighs/atom = 128.376
Neighbor list builds = 0
Dangerous builds = 0
velocity all  create 600.0 4928459 #rot yes dist gaussian

#--------------  Run a simulation (Relaxation)  ----------------------------------------
fix  1  all  nvt   temp  600.0  600.0  100				#damping constant
#fix  2  all  npt   temp  393.0  393.0  50 iso 0.0 0.0 1000.0
fix  2  all deform 1 x final 0 15.6715 y final 0 13.572 z final 0 25.3739 xy final -7.83565 units lattice
#fix  3  all  npt   temp  393.0  393.0  50 z 0.0 0.0 1000.0

#variable b equal 1
#fix 2 all efield  0.0  0.0  v_b
#compute pot all pe/atom


#----------- Output --------------------------
thermo	 500
timestep  0.001		#1.0 fs
thermo_style	custom step time temp ke pe etotal press pxx pyy pzz lx ly lz vol

dump 1 all custom 10000 dump.eq id type x y z
dump_modify 1 sort  id

run        1000000	#1000 ps
Neighbor list info ...
  2 neighbor list requests
  update every 1 steps, delay 10 steps, check yes
  max neighbors/atom: 2000, page size: 100000
  master list distance cutoff = 8
  ghost atom cutoff = 8
  binsize = 4 -> bins = 6 4 7
Memory usage per processor = 7.5632 Mbytes
Step Time Temp KinEng PotEng TotEng Press Pxx Pyy Pzz Lx Ly Lz Volume 
      12            0          600    24.662836   -460.70026   -436.03743   -8175.9314   -14440.928   -13521.406    3434.5389      15.6668      13.5678      25.4089    5401.0176 
     500        0.488    316.14686     12.99513   -449.02748   -436.03235    -1304.007   -7722.5251   -9400.3818    13210.886    15.666802    13.567802    25.408883    5401.0156 
    1000        0.988     317.6777    13.058055   -449.09105     -436.033   -1602.8503   -9707.2499   -8783.8271    13682.526    15.666805    13.567804    25.408865    5401.0136 
    1500        1.488     320.1194     13.15842   -449.19118   -436.03276    -940.3305   -8247.0554   -8197.6997    13623.764    15.666807    13.567806    25.408848    5401.0115 
    2000        1.988    326.60211     13.42489   -449.45623   -436.03134   -3160.6427   -8817.0729   -9575.1277    8910.2726    15.666809    13.567808     25.40883    5401.0094 
    2500        2.488    324.97151    13.357865   -449.38755   -436.02969   -2063.0953   -11893.076   -8344.6126    14048.403    15.666812     13.56781    25.408813    5401.0073 
    3000        2.988    327.75564    13.472306   -449.50046   -436.02816   -2063.5847   -13351.997   -9490.1142    16651.357    15.666814    13.567813    25.408795    5401.0053 
    3500        3.488    316.64348    13.015544   -449.04124    -436.0257   -1171.9031   -9182.8809   -9805.7092    15472.881    15.666816    13.567815    25.408778    5401.0032 
    4000        3.988    326.58326    13.424116   -449.44777   -436.02366   -3033.7277   -12772.973   -11418.456    15090.246    15.666819    13.567817     25.40876    5401.0011 
    4500        4.488    323.08447    13.280299   -449.30094   -436.02064   -2789.5335   -10516.399   -10718.827    12866.626    15.666821    13.567819    25.408743     5400.999 
    5000        4.988     324.6132    13.343137    -449.3612   -436.01807   -2029.8118   -13528.284   -7127.3516      14566.2    15.666823    13.567821    25.408725     5400.997 
    5500        5.488    328.95128    13.521452   -449.53554   -436.01409   -1851.8022     -14187.3   -6558.0558    15189.949    15.666826    13.567823    25.408708    5400.9949 
    6000        5.988    309.34844    12.715683   -448.72624   -436.01055   -2043.4338   -13116.546   -10970.777    17957.022    15.666828    13.567825     25.40869    5400.9928 
    6500        6.488    316.83234    13.023306    -449.0305   -436.00719   -2014.5318   -10000.452   -12218.397    16175.254     15.66683    13.567827    25.408673    5400.9907 
    7000        6.988    332.34137    13.660801   -449.66398   -436.00317   -1024.5861   -10879.954   -8100.9878    15907.183    15.666833    13.567829    25.408655    5400.9887 
    7500        7.488    328.95497    13.521604   -449.52015   -435.99855   -3067.0617    -11138.25    -9681.508    11618.573    15.666835    13.567831    25.408638    5400.9866 
    8000        7.988    302.58963    12.437864    -448.4314   -435.99353   -1086.6828   -7373.8577   -12096.261     16210.07    15.666838    13.567834     25.40862    5400.9845 
    8500        8.488    330.46797    13.583795   -449.57263   -435.98884   -1333.4224   -10061.178   -10093.306    16154.217     15.66684    13.567836    25.408603    5400.9824 
    9000        8.988    337.62165    13.877845   -449.86088   -435.98304   -1680.1197   -10468.443   -10326.333    15754.417    15.666842    13.567838    25.408585    5400.9804 
    9500        9.488    329.46095    13.542402   -449.52017   -435.97777   -2001.1724   -9878.8697   -9407.8757    13283.228    15.666845     13.56784    25.408568    5400.9783 
   10000        9.988      327.797    13.474006   -449.44517   -435.97116   -1789.0651    -6931.691   -11031.797    12596.293    15.666847    13.567842     25.40855    5400.9762 
   10500       10.488    335.85934    13.805406   -449.77043   -435.96502   -2592.0255   -10818.799   -9200.0244    12242.747    15.666849    13.567844    25.408533    5400.9741 
   11000       10.988    311.54277     12.80588   -448.76398    -435.9581   -1208.1327   -12238.659    -7207.811    15822.072    15.666852    13.567846    25.408515    5400.9721 
   11500       11.488    325.05233    13.361187   -449.31224   -435.95106   -2072.3504   -10620.598   -10533.221    14936.768    15.666854    13.567848    25.408498      5400.97 
   12000       11.988     325.2969     13.37124   -449.31502   -435.94378   -1123.2505   -7946.3364   -9460.7512    14037.336    15.666856     13.56785     25.40848    5400.9679 
   12500       12.488    321.95307    13.233793   -449.17036   -435.93656   -2513.9126    -10288.16   -11183.383    13929.805    15.666859    13.567852    25.408463    5400.9659 
   13000       12.988    319.35585    13.127035   -449.05479   -435.92775   -2520.5645    -8621.596   -12010.656    13070.558    15.666861    13.567855    25.408445    5400.9638 
   13500       13.488    342.97594    14.097932   -450.01757   -435.91964   -3147.6985   -13841.955    -9811.154    14210.014    15.666863    13.567857    25.408428    5400.9617 
   14000       13.988    330.33081    13.578157   -449.48946    -435.9113   -1182.4412   -11681.673     -6799.46     14933.81    15.666866    13.567859     25.40841    5400.9596 
   14500       14.488    316.14173    12.994919   -448.89691   -435.90199   -1637.5482   -9343.1955   -12161.316    16591.867    15.666868    13.567861    25.408393    5400.9576 
   15000       14.988    315.37226     12.96329   -448.85636   -435.89307   -410.79079   -8514.7433   -8831.3275    16113.698     15.66687    13.567863    25.408375    5400.9555 
   15500       15.488    326.62506    13.425834   -449.30943    -435.8836   -1450.0241   -12607.223   -9031.7962    17288.947    15.666873    13.567865    25.408358    5400.9534 
   16000       15.988    328.53482    13.504334   -449.37788   -435.87355   -2455.2574   -9927.7866   -9648.2272    12210.242    15.666875    13.567867     25.40834    5400.9513 
   16500       16.488    326.00201    13.400223   -449.26412   -435.86389   -2971.9148   -10726.433   -12591.231     14401.92    15.666877    13.567869    25.408323    5400.9493 
   17000       16.988    317.03934    13.031815    -448.8856   -435.85378   -1979.9543   -12531.834   -7194.3287      13786.3     15.66688    13.567871    25.408305    5400.9472 
   17500       17.488    326.92601    13.438204   -449.28172   -435.84352   -2391.7083   -11065.541   -9512.6009    13403.017    15.666882    13.567873    25.408288    5400.9451 
   18000       17.988    322.47018    13.255049   -449.08796   -435.83291   -1305.2309    -8360.756   -12042.831    16487.895    15.666885    13.567876     25.40827     5400.943 
   18500       18.488     312.1845    12.832258   -448.65378   -435.82153   -1532.0053   -10227.009   -9842.3765     15473.37    15.666887    13.567878    25.408253     5400.941 
   19000       18.988    315.77603    12.979887   -448.78916   -435.80928    -1766.513   -11037.539   -8499.9367    14237.936    15.666889     13.56788    25.408235    5400.9389 
   19500       19.488    319.38387    13.128187   -448.92616   -435.79797   -1827.7551   -12256.219   -8408.5321    15181.486    15.666892    13.567882    25.408218    5400.9368 
   20000       19.988    301.87731    12.408584   -448.19349    -435.7849     74.89721   -8719.5522   -8232.4705    17176.714    15.666894    13.567884      25.4082    5400.9347 
   20500       20.488    313.96621    12.905495   -448.67854   -435.77305   -2125.0794   -11666.331   -7926.4437    13217.536    15.666896    13.567886    25.408183    5400.9327 
   21000       20.988     317.7964    13.062934   -448.82311   -435.76018   -1958.7178   -11062.499   -11959.333    17145.679    15.666899    13.567888    25.408165    5400.9306 
   21500       21.488    304.68659    12.524059   -448.27067   -435.74661   -1275.5088   -11412.741   -8311.3809    15897.595    15.666901     13.56789    25.408148    5400.9285 
   22000       21.988    319.94629    13.151305   -448.88478   -435.73347   -429.90464   -8907.0492   -6377.5462    13994.881    15.666903    13.567892     25.40813    5400.9265 
   22500       22.488    327.94528    13.480101    -449.2001      -435.72   -2313.7058   -12547.016   -9087.4783    14693.377    15.666906    13.567894    25.408113    5400.9244 
   23000       22.988     328.5668    13.505648   -449.21283   -435.70718   -733.85301    -8662.329   -9354.9671    15815.737    15.666908    13.567897    25.408095    5400.9223 
   23500       23.488    311.18727    12.791267    -448.4836   -435.69233   -819.51124   -11358.121   -7821.5665    16721.154     15.66691    13.567899    25.408078    5400.9202 
   24000       23.988    332.87515    13.682742   -449.36106   -435.67832   -1727.5549   -7628.9806   -11042.709    13489.025    15.666913    13.567901     25.40806    5400.9182 
   24500       24.488    349.93704    14.384066    -450.0478   -435.66373   -2128.7194   -10405.897   -9844.9187    13864.657    15.666915    13.567903    25.408043    5400.9161 
   25000       24.988    316.20674    12.997592   -448.64572   -435.64812   -1591.9819   -9923.9831    -9655.883    14803.921    15.666917    13.567905    25.408025     5400.914 
   25500       25.488    332.50015    13.667328   -449.30052   -435.63319    -1440.547   -11046.778   -7149.1102    13874.247     15.66692    13.567907    25.408008    5400.9119 
   26000       25.988     337.1036    13.856551   -449.47459   -435.61804   -1486.1344   -10243.385   -10359.739    16144.721    15.666922    13.567909     25.40799    5400.9099 
   26500       26.488    334.44635    13.747325   -449.34906   -435.60173   -1234.8553   -10962.812   -11385.344     18643.59    15.666924    13.567911    25.407973    5400.9078 
   27000       26.988    321.54916     13.21719   -448.80275   -435.58556   -1145.2485   -10272.031    -10034.03    16870.315    15.666927    13.567913    25.407955    5400.9057 
   27500       27.488    313.10041    12.869907   -448.43887   -435.56897   -1051.8504   -9836.9134   -11943.881    18625.243    15.666929    13.567915    25.407938    5400.9036 
   28000       27.988    322.57292    13.259271   -448.81292   -435.55364    139.69596   -7964.1107   -8840.9895    17224.188    15.666932    13.567918     25.40792    5400.9016 
   28500       28.488     338.7784    13.925393   -449.46199    -435.5366   -1595.5184   -9272.2328   -9169.6613    13655.339    15.666934     13.56792    25.407903    5400.8995 
   29000       28.988     330.7811    13.596667   -449.11637   -435.51971    -300.6258   -8722.8475   -7232.3789    15053.349    15.666936    13.567922    25.407885    5400.8974 
   29500       29.488    342.19482    14.065824   -449.56851   -435.50268   -1866.7525   -11992.728   -10914.263    17306.734    15.666939    13.567924    25.407868    5400.8953 
   30000       29.988    321.62486    13.220302   -448.70482   -435.48452   -1768.2865   -9736.4365   -10349.753     14781.33    15.666941    13.567926     25.40785    5400.8933 
   30500       30.488    314.68756    12.935146   -448.40264   -435.46749   -893.47129   -11440.394   -5094.2772    13854.257    15.666943    13.567928    25.407833    5400.8912 
   31000       30.988    327.00823    13.441584   -448.89156   -435.44998   -1139.8664   -13910.056   -7769.0591    18259.515    15.666946     13.56793    25.407815    5400.8891 
   31500       31.488      325.555    13.381849   -448.81411   -435.43226   -2763.0615   -10454.106   -7587.0203    9751.9416    15.666948    13.567932    25.407798     5400.887 
   32000       31.988    327.08135    13.444589   -448.85937   -435.41478     -1202.16   -9170.4442   -8832.0219    14395.986     15.66695    13.567934     25.40778     5400.885 
   32500       32.488    349.77959    14.377594     -449.775   -435.39741   -3574.7372   -11363.636   -9357.3194    9996.7435    15.666953    13.567936    25.407763    5400.8829 
   33000       32.988    326.93558    13.438598   -448.81638   -435.37778   -1924.5333   -8858.7111   -13080.796    16165.907    15.666955    13.567939    25.407745    5400.8808 
   33500       33.488    327.50095    13.461837   -448.82071   -435.35887   -1560.3456   -10658.385   -8662.1732    14639.521    15.666957    13.567941    25.407728    5400.8788 
   34000       33.988    342.66125    14.084997    -449.4262    -435.3412   -2061.0831   -13412.853    -8660.794    15890.398     15.66696    13.567943     25.40771    5400.8767 
   34500       34.488    351.84465    14.462478   -449.78517   -435.32269   -1324.5836     -9737.24   -7560.7148    13324.204    15.666962    13.567945    25.407693    5400.8746 
   35000       34.988    340.56741     13.99893   -449.30199   -435.30306    -143.6097    -12648.33   -7062.7653    19280.266    15.666964    13.567947    25.407675    5400.8725 
   35500       35.488    329.52803    13.545159   -448.83047   -435.28531   -2485.4558   -13542.904   -8985.0242    15071.561    15.666967    13.567949    25.407658    5400.8705 
   36000       35.988    320.65523    13.180445   -448.44644     -435.266   -25.895496   -9880.9735   -7795.5577    17598.845    15.666969    13.567951     25.40764    5400.8684 
   36500       36.488    329.50747    13.544314   -448.79088   -435.24656   -1520.9235   -7723.6088   -11819.202     14980.04    15.666971    13.567953    25.407623    5400.8663 
   37000       36.988    319.27729    13.123806    -448.3513    -435.2275   -1390.8285   -9312.7096   -11802.898    16943.122    15.666974    13.567955    25.407605    5400.8642 
   37500       37.488    329.28886    13.535329   -448.74398   -435.20865    337.78967   -10518.842   -8124.1056    19656.317    15.666976    13.567957    25.407588    5400.8622 
   38000       37.988    320.44636     13.17186   -448.36074   -435.18888     -48.8758     -8622.36   -9162.8771     17638.61    15.666979     13.56796     25.40757    5400.8601 
   38500       38.488    329.02167    13.524346   -448.69409   -435.16974   -444.51326   -11882.484   -5951.5831    16500.528    15.666981    13.567962    25.407553     5400.858 
   39000       38.988    317.08846    13.033834   -448.18437   -435.15053    213.98972   -7411.8522   -9754.4628    17808.284    15.666983    13.567964    25.407535    5400.8559 
   39500       39.488    338.01936    13.894193   -449.02542   -435.13122   -1606.9367   -12672.737   -7791.5151    15643.442    15.666986    13.567966    25.407518    5400.8539 
   40000       39.988    340.39564     13.99187   -449.10316   -435.11129    -2263.033   -13263.663   -7180.9949    13655.559    15.666988    13.567968      25.4075    5400.8518 
   40500       40.488    332.80363    13.679802   -448.77208   -435.09227   -435.05533   -10048.943   -9902.6589    18646.436     15.66699     13.56797    25.407483    5400.8497 
   41000       40.988    332.66905     13.67427   -448.74622   -435.07195   -1574.6611    -10731.86   -10091.645    16099.522    15.666993    13.567972    25.407465    5400.8476 
   41500       41.488    321.13499    13.200166   -448.25333   -435.05316   -728.30394   -7590.1036    -9608.891    15014.083    15.666995    13.567974    25.407448    5400.8456 
   42000       41.988    324.68755    13.346193   -448.37996   -435.03377   -16.987915   -11673.943   -7936.3948    19559.374    15.666997    13.567976     25.40743    5400.8435 
   42500       42.488    327.59654    13.465766   -448.48076     -435.015   -1025.2231   -9255.1688   -7065.7202     13245.22       15.667    13.567978    25.407413    5400.8414 
   43000       42.988    335.83271    13.804312   -448.79977   -434.99546   -1402.8491   -9636.7371   -11453.156    16881.346    15.667002    13.567981    25.407395    5400.8393 
   43500       43.488    339.52045    13.955895   -448.93189   -434.97599   -904.08414   -12394.236   -8226.4318    17908.416    15.667004    13.567983    25.407378    5400.8373 
   44000       43.988    326.24618     13.41026   -448.36707   -434.95681   -1179.4859   -9629.7965   -8327.7935    14419.132    15.667007    13.567985     25.40736    5400.8352 
   44500       44.488    340.57978    13.999439   -448.93765   -434.93821   -950.29735   -8841.1842    -11222.19    17212.482    15.667009    13.567987    25.407343    5400.8331 
   45000       44.988    315.39189    12.964097   -447.88279   -434.91869   -719.87073   -8122.0318   -7542.3008     13504.72    15.667011    13.567989    25.407325    5400.8311 
   45500       45.488     317.9262     13.06827   -447.96826   -434.89999     479.1624   -9373.2413   -5668.3128    16479.041    15.667014    13.567991    25.407308     5400.829 
   46000       45.988    319.48681    13.132418   -448.01359   -434.88117   -1550.6641   -11248.318   -9756.1307    16352.456    15.667016    13.567993     25.40729    5400.8269 
   46500       46.488    344.84776    14.174873     -449.038   -434.86313   -612.85165   -9589.6553   -6964.2443    14715.345    15.667018    13.567995    25.407273    5400.8248 
   47000       46.988    332.62489    13.672455   -448.51592   -434.84347   -283.52505    -10257.94   -8829.4647    18236.829    15.667021    13.567997    25.407255    5400.8228 
   47500       47.488    340.83933    14.010107   -448.83527   -434.82516   -2614.2305   -10419.305   -9701.1539    12277.767    15.667023    13.567999    25.407238    5400.8207 
   48000       47.988    330.56413    13.587748   -448.39495   -434.80721   -2796.2776    -11131.67    -9624.589    12367.426    15.667026    13.568002     25.40722    5400.8186 
   48500       48.488    335.31896    13.783194   -448.57149    -434.7883   -1554.7446   -12452.216   -7447.8532    15235.835    15.667028    13.568004    25.407203    5400.8165 
   49000       48.988    343.85954    14.134252   -448.90363   -434.76937   -516.53493   -12780.364     -5081.26    16312.019     15.66703    13.568006    25.407185    5400.8145 
   49500       49.488    327.76644     13.47275   -448.22363   -434.75088   -1239.0442    -14170.86   -7925.6691    18379.396    15.667033    13.568008    25.407168    5400.8124 
   50000       49.988    330.44852    13.582996   -448.31506   -434.73207   -2390.4534   -11900.873   -8929.0771     13658.59    15.667035     13.56801     25.40715    5400.8103 
   50500       50.488    324.10242    13.322141   -448.03654    -434.7144   -1262.3464   -10536.509    -9776.345    16525.815    15.667037    13.568012    25.407133    5400.8082 
   51000       50.988    326.27157    13.411303   -448.10747   -434.69617   -628.99461   -8486.2433   -8902.7697    15502.029     15.66704    13.568014    25.407115    5400.8062 
   51500       51.488    339.87639    13.970526   -448.64884   -434.67831   -1661.1985   -10885.363   -8813.6775    14715.445    15.667042    13.568016    25.407098    5400.8041 
   52000       51.988     334.8919     13.76564   -448.42603   -434.66039   -512.30231   -10186.624   -6812.7586    15462.475    15.667044    13.568018     25.40708     5400.802 
   52500       52.488    324.89165    13.354582   -447.99709   -434.64251   -1630.5628    -9831.026   -7691.7527     12631.09    15.667047     13.56802    25.407063    5400.7999 
   53000       52.988    323.20389    13.285207   -447.91011    -434.6249   -674.55157   -12859.082   -9259.5727        20095    15.667049    13.568023    25.407045    5400.7979 
   53500       53.488    349.18323    14.353081   -448.96021   -434.60713   -906.36305   -11753.753    -12350.54    21385.203    15.667051    13.568025    25.407028    5400.7958 
   54000       53.988    338.35693    13.908069   -448.49726   -434.58919   -1455.6216   -10246.237    -10951.99    16831.362    15.667054    13.568027     25.40701    5400.7937 
   54500       54.488    340.55316    13.998344   -448.56967   -434.57132   -193.56694   -11580.245   -5721.8674    16721.412    15.667056    13.568029    25.406993    5400.7916 
   55000       54.988    338.46484    13.912505   -448.46666   -434.55415   -2939.6641   -12110.133    -10541.06    13832.201    15.667058    13.568031    25.406975    5400.7896 
   55500       55.488    330.24287    13.574543   -448.11147   -434.53693    -1203.145   -9424.5947    -11365.28     17180.44    15.667061    13.568033    25.406958    5400.7875 
   56000       55.988    328.56013    13.505374   -448.02621   -434.52084   -1549.1009   -9993.2138   -10816.594    16162.505    15.667063    13.568035     25.40694    5400.7854 
   56500       56.488     342.4818    14.077621   -448.58045   -434.50283   -1252.4182   -13681.127   -8671.1585    18595.031    15.667065    13.568037    25.406923    5400.7834 
   57000       56.988    340.51395    13.996732   -448.48286   -434.48613   -1149.0289   -12650.063   -7862.7856    17065.762    15.667068    13.568039    25.406905    5400.7813 
   57500       57.488     335.0181    13.770827   -448.23983   -434.46901   -1702.1916   -13069.847   -8083.2018    16046.474     15.66707    13.568041    25.406888    5400.7792 
   58000       57.988    346.56885    14.245618   -448.69823   -434.45262   -1290.7083   -11588.597   -6825.4382     14541.91    15.667073    13.568044     25.40687    5400.7771 
   58500       58.488    337.08286    13.855699   -448.29131   -434.43561   -770.16039   -11370.735    -8027.635    17087.889    15.667075    13.568046    25.406853    5400.7751 
   59000       58.988    336.38141    13.826866   -448.24584   -434.41897   -1593.3745   -8968.6043   -7471.7426    11660.223    15.667077    13.568048    25.406835     5400.773 
   59500       59.488    340.79981    14.008483    -448.4111   -434.40261   -1609.4505   -8572.0982   -9777.3055    13521.052     15.66708     13.56805    25.406818    5400.7709 
   60000       59.988    336.47762     13.83082   -448.21686   -434.38604   -122.30837   -7576.5819   -11926.534    19136.191    15.667082    13.568052      25.4068    5400.7688 
   60500       60.488    342.57541    14.081468   -448.45128   -434.36981   -598.77774   -9216.5278   -9873.4254     17293.62    15.667084    13.568054    25.406783    5400.7668 
   61000       60.988     335.9066    13.807349    -448.1608   -434.35345   -363.43592   -10505.291   -7393.0849    16808.068    15.667087    13.568056    25.406765    5400.7647 
   61500       61.488    332.15375    13.653089   -447.98945   -434.33636   -1556.7377    -9074.715   -9033.7078     13438.21    15.667089    13.568058    25.406748    5400.7626 
   62000       61.988    337.06971    13.855158   -448.17567   -434.32051   -1361.5553   -9223.9875   -9567.2978    14706.619    15.667091     13.56806     25.40673    5400.7605 
   62500       62.488    363.38185    14.936711   -449.24226   -434.30555   -1607.6058   -10490.016    -9572.462    15239.661    15.667094    13.568062    25.406713    5400.7585 
   63000       62.988    357.18453    14.681972   -448.97133   -434.28936   -1917.6674   -7679.0157   -9897.7123    11823.726    15.667096    13.568065    25.406695    5400.7564 
   63500       63.488    337.71327    13.881611   -448.15371   -434.27209    303.09992   -9434.3858   -8680.2379    19023.923    15.667098    13.568067    25.406678    5400.7543 
   64000       63.988     344.2809    14.151572   -448.40713   -434.25555   -1455.2223   -7453.9618   -8689.3539    11777.649    15.667101    13.568069     25.40666    5400.7522 
   64500       64.488    334.13457     13.73451   -447.97454   -434.24003    234.32246   -8249.8025   -8364.6642    17317.434    15.667103    13.568071    25.406643    5400.7502 
   65000       64.988     340.8523     14.01064   -448.23427   -434.22363   -1542.0084   -9404.3212   -9304.3797    14082.676    15.667105    13.568073    25.406625    5400.7481 
   65500       65.488    346.60642    14.247162   -448.45504   -434.20788   -1557.9851    -10204.12   -9179.3248     14709.49    15.667108    13.568075    25.406608     5400.746 
   66000       65.988    346.13825    14.227918   -448.41989   -434.19197   -363.25895   -10118.567   -7150.3382    16179.128     15.66711    13.568077     25.40659    5400.7439 
   66500       66.488    333.67946    13.715803   -447.89117   -434.17537   -1181.1509   -10690.317   -8593.3015    15740.166    15.667112    13.568079    25.406573    5400.7419 
   67000       66.988    333.52296     13.70937   -447.86927    -434.1599     37.07115   -9694.7005   -8668.0765     18473.99    15.667115    13.568081    25.406555    5400.7398 
   67500       67.488    354.89162    14.587723   -448.73223    -434.1445   -740.33933   -6776.2372    -11610.83    16166.049    15.667117    13.568083    25.406538    5400.7377 
   68000       67.988    348.36241    14.319341   -448.44813   -434.12879   -1697.9328   -10372.837   -10918.062      16197.1     15.66712    13.568086     25.40652    5400.7356 
   68500       68.488    351.52496    14.449337   -448.56247   -434.11314   -851.95959   -11662.274    -7598.943    16705.338    15.667122    13.568088    25.406503    5400.7336 
   69000       68.988    351.38276    14.443492    -448.5409   -434.09741   -1560.8926   -10702.274   -8395.0957    14414.692    15.667124     13.56809    25.406485    5400.7315 
   69500       69.488     334.2141    13.737779   -447.81929   -434.08152   -502.35343    -10516.52   -9602.6553    18612.115    15.667127    13.568092    25.406468    5400.7294 
   70000       69.988    338.41942    13.910638   -447.97675   -434.06612   -1477.5393   -9617.1896   -7327.8151    12512.387    15.667129    13.568094     25.40645    5400.7274 
   70500       70.488    335.46332    13.789128   -447.83955   -434.05042   -1379.6265    -10294.23   -7024.0454    13179.396    15.667131    13.568096    25.406433    5400.7253 
   71000       70.988    366.35566    15.058949   -449.09327   -434.03432     313.6388   -7832.9839   -9403.7817    18177.682    15.667134    13.568098    25.406415    5400.7232 
   71500       71.488    338.48423    13.913301   -447.93155   -434.01825   -696.15472   -11078.523    -8819.274    17809.333    15.667136      13.5681    25.406398    5400.7211 
   72000       71.988    336.26262    13.821983   -447.82444   -434.00245    321.18937   -4459.2388   -12341.952    17764.759    15.667138    13.568102     25.40638    5400.7191 
   72500       72.488    333.90098    13.724908   -447.71165   -433.98674   -1118.1282   -11173.713   -7744.1551    15563.483    15.667141    13.568104    25.406363     5400.717 
   73000       72.988    349.39688    14.361863    -448.3325   -433.97064   -1479.0748   -11131.698    -8610.042    15304.516    15.667143    13.568107    25.406345    5400.7149 
   73500       73.488    336.63431    13.837261   -447.79153   -433.95427   -212.97768     -7589.16   -10779.928    17730.155    15.667145    13.568109    25.406328    5400.7128 
   74000       73.988    349.62164    14.371102    -448.3093    -433.9382   -1597.2178   -10781.737   -11441.142    17431.225    15.667148    13.568111     25.40631    5400.7108 
   74500       74.488    361.79356    14.871425   -448.79425   -433.92282   -644.12924   -7705.3374   -10391.154    16164.104     15.66715    13.568113    25.406293    5400.7087 
   75000       74.988      350.189    14.394423   -448.30024   -433.90582   -423.30059   -6170.2194   -10819.021    15719.339    15.667152    13.568115    25.406275    5400.7066 
   75500       75.488    339.63947    13.960788   -447.84975   -433.88896   -2072.6299   -13781.084   -9275.7203    16838.914    15.667155    13.568117    25.406258    5400.7045 
   76000       75.988    353.07957    14.513239    -448.3872   -433.87396      -2380.6   -13284.341   -8970.7502    15113.291    15.667157    13.568119     25.40624    5400.7025 
   76500       76.488    346.88909    14.258781   -448.11575   -433.85697    910.16927   -10274.169   -7063.8202    20068.497    15.667159    13.568121    25.406223    5400.7004 
   77000       76.988    346.08905    14.225895   -448.06611   -433.84022   -1469.9978   -11719.582   -7965.9483    15275.537    15.667162    13.568123    25.406205    5400.6983 
   77500       77.488    350.32525    14.400024   -448.22443   -433.82441   -954.75048   -12121.897   -8686.6625    17944.308    15.667164    13.568125    25.406188    5400.6962 
   78000       77.988    343.92783    14.137059   -447.94514   -433.80808    -304.6032   -10661.882   -5466.5803    15214.653    15.667167    13.568128     25.40617    5400.6942 
   78500       78.488     342.1353    14.063378   -447.85462   -433.79124   -1103.8954   -14939.116      -6711.1     18338.53    15.667169     13.56813    25.406153    5400.6921 
   79000       78.988    347.24468    14.273398   -448.04811   -433.77471   -850.84713   -10915.374   -8099.6769    16462.509    15.667171    13.568132    25.406135      5400.69 
   79500       79.488    344.48814    14.160091   -447.91796   -433.75787   -703.27936   -12188.204   -9032.6939     19111.06    15.667174    13.568134    25.406118    5400.6879 
   80000       79.988    336.50748    13.832048    -447.5739   -433.74185    1090.6199   -6393.7682   -8334.7818     18000.41    15.667176    13.568136      25.4061    5400.6859 
   80500       80.488    356.48482    14.653211   -448.37827   -433.72506    340.60915   -8352.9858   -9809.9876    19184.801    15.667178    13.568138    25.406083    5400.6838 
   81000       80.988    340.19628    13.983675   -447.69153   -433.70786    822.42508   -7308.5932   -7084.4666    16860.335    15.667181     13.56814    25.406065    5400.6817 
   81500       81.488    344.06295    14.142613   -447.83345   -433.69084    80.415644   -8313.8984   -9815.6614    18370.807    15.667183    13.568142    25.406048    5400.6796 
   82000       81.988    345.85632    14.216329   -447.89129   -433.67496   -1785.1078   -7260.6119   -9472.9362    11378.225    15.667185    13.568144     25.40603    5400.6776 
   82500       82.488    351.36336    14.442695   -448.10043   -433.65774    270.75057   -8458.4272   -9897.4475    19168.126    15.667188    13.568146    25.406013    5400.6755 
   83000       82.988    355.10285    14.596405   -448.23719   -433.64079   -669.48949   -5196.2402   -8372.9535    11560.725     15.66719    13.568149    25.405995    5400.6734 
   83500       83.488    346.00707    14.222526   -447.84607   -433.62355   -530.66801   -8442.8689   -8494.5863    15345.451    15.667192    13.568151    25.405978    5400.6714 
   84000       83.988     342.7675    14.089364   -447.69677   -433.60741   -359.59321   -7119.4336   -7093.3396    13133.993    15.667195    13.568153     25.40596    5400.6693 
   84500       84.488    347.60546    14.288227   -447.87898   -433.59076    272.22594   -9991.4639   -7541.8425    18349.984    15.667197    13.568155    25.405943    5400.6672 
   85000       84.988    355.16287    14.598873   -448.17219   -433.57332   -175.52344   -9898.8992   -8290.8065    17663.135    15.667199    13.568157    25.405925    5400.6651 
   85500       85.488     345.4236    14.198543   -447.75354   -433.55499   -2177.8875   -8621.6499   -10208.843    12296.831    15.667202    13.568159    25.405908    5400.6631 
   86000       85.988    342.27494    14.069118   -447.60704   -433.53792   -1196.8063   -9177.1389   -9050.0183    14636.738    15.667204    13.568161     25.40589     5400.661 
   86500       86.488    368.77873    15.158549    -448.6782   -433.51965   -1612.0685   -10484.664   -9424.1694    15072.628    15.667206    13.568163    25.405873    5400.6589 
   87000       86.988    345.45901    14.199998   -447.70117   -433.50117    723.12654   -8950.9766   -6758.2017    17878.558    15.667209    13.568165    25.405855    5400.6568 
   87500       87.488    335.31316    13.782956   -447.26681   -433.48385   -62.553515   -9628.1502   -8875.0578    18315.548    15.667211    13.568167    25.405838    5400.6548 
   88000       87.988    373.51062    15.353052   -448.81994   -433.46689   -1687.9677   -11062.457    -7048.431    13046.985    15.667214     13.56817     25.40582    5400.6527 
   88500       88.488    359.55488    14.779405   -448.22797   -433.44856   -669.88019   -9515.4657   -7024.1287    14529.954    15.667216    13.568172    25.405803    5400.6506 
   89000       88.988    349.15462    14.351905   -447.78147   -433.42957    -319.0452   -9084.2494    -12077.86    20204.974    15.667218    13.568174    25.405785    5400.6485 
   89500       89.488    336.83306    13.845431   -447.25643     -433.411   -259.87099   -8733.7329   -11697.162    19651.282    15.667221    13.568176    25.405768    5400.6465 
   90000       89.988    365.37283     15.01855   -448.41184   -433.39329   -91.271827   -9897.9944    -10114.41    19738.589    15.667223    13.568178     25.40575    5400.6444 
   90500       90.488    341.46724    14.035917   -447.41049   -433.37458   -209.00363   -9625.8412   -8415.9595     17414.79    15.667225     13.56818    25.405733    5400.6423 
   91000       90.988     347.7174    14.292829    -447.6484   -433.35557   -450.92685   -9186.8707   -7845.2345    15679.325    15.667228    13.568182    25.405715    5400.6402 
   91500       91.488     353.6433    14.536411   -447.87374   -433.33733    527.09356   -8325.7526   -9079.2714    18986.305     15.66723    13.568184    25.405698    5400.6382 
   92000       91.988    369.13381    15.173144   -448.49145   -433.31831    -55.67018    -9461.406    -8259.932    17554.327    15.667232    13.568186     25.40568    5400.6361 
   92500       92.488     363.3795    14.936615   -448.23542    -433.2988    201.45626   -11644.595   -8572.3344    20821.298    15.667235    13.568188    25.405663     5400.634 
   93000       92.988    340.05607    13.977912   -447.25759   -433.27967    1364.2748   -8365.8897   -9299.6946    21758.409    15.667237    13.568191    25.405645    5400.6319 
   93500       93.488    359.54245    14.778894   -448.03988   -433.26099    706.75614    -9176.911   -8230.5766    19527.756    15.667239    13.568193    25.405628    5400.6299 
   94000       93.988    356.93826    14.671849   -447.91302   -433.24117   -782.94426    -6347.699   -10778.031    14776.897    15.667242    13.568195     25.40561    5400.6278 
   94500       94.488    362.51075    14.900905   -448.12372   -433.22282   -527.96744   -8576.8952    -8801.857     15794.85    15.667244    13.568197    25.405593    5400.6257 
   95000       94.988    354.37671    14.566558   -447.76973   -433.20317    -114.7286   -7195.8998   -10048.936     16900.65    15.667246    13.568199    25.405575    5400.6236 
   95500       95.488    360.88059    14.833898   -448.01853   -433.18463    -505.7187   -7969.9584   -8465.2421    14918.044    15.667249    13.568201    25.405558    5400.6216 
   96000       95.988    371.01029    15.250276   -448.41512   -433.16484   -972.44888   -8849.6798   -7825.8114    13758.145    15.667251    13.568203     25.40554    5400.6195 
   96500       96.488    333.83397    13.722154   -446.86616   -433.14401    126.07168    -11650.42   -8268.1891    20296.824    15.667253    13.568205    25.405523    5400.6174 
   97000       96.988    367.43034    15.103124   -448.22847   -433.12534   -679.10576   -7381.3606   -10389.221    15733.264    15.667256    13.568207    25.405505    5400.6154 
   97500       97.488    340.15098    13.981813    -447.0865   -433.10469    352.84071   -7973.1174   -7947.2183    16978.858    15.667258    13.568209    25.405488    5400.6133 
   98000       97.988    361.95045    14.877874   -447.96238   -433.08451     -596.744   -10227.427   -6139.4394    14576.635    15.667261    13.568212     25.40547    5400.6112 
   98500       98.488    376.87273     15.49125   -448.55508   -433.06383   -176.65735   -9347.6793   -7024.7597    15842.467    15.667263    13.568214    25.405453    5400.6091 
   99000       98.988    377.75833    15.527653   -448.57185    -433.0442   -1589.6301   -11379.286   -9633.9126    16244.308    15.667265    13.568216    25.405435    5400.6071 
   99500       99.488    361.08499      14.8423   -447.86629   -433.02399    994.06124   -9915.7533   -7777.6066    20675.544    15.667268    13.568218    25.405418     5400.605 
  100000       99.988    367.58654    15.109544   -448.11391   -433.00437   -21.288315   -10252.095   -10430.649    20618.878     15.66727     13.56822      25.4054    5400.6029 
  100500      100.488    358.72152     14.74515   -447.72872   -432.98357    777.40895   -7373.7709   -7137.1852    16843.183    15.667272    13.568222    25.405383    5400.6008 
  101000      100.988    358.98219    14.755865   -447.71955   -432.96368   -717.67154   -9582.2653   -12514.785    19944.035    15.667275    13.568224    25.405365    5400.5988 
  101500      101.488    372.08398     15.29441    -448.2371   -432.94269    470.47591   -10269.096   -10328.888    22009.412    15.667277    13.568226    25.405348    5400.5967 
  102000      101.988    369.79691    15.200401   -448.12227   -432.92187   -1421.9735   -11793.033   -6494.4663    14021.579    15.667279    13.568228     25.40533    5400.5946 
  102500      102.488    350.25183    14.397006   -447.29716   -432.90015   -1562.6258    -11184.64   -8915.2892    15412.051    15.667282     13.56823    25.405313    5400.5925 
  103000      102.988    367.38651    15.101322   -447.98185   -432.88052   -788.89939   -9448.0119   -5732.2392    12813.553    15.667284    13.568233    25.405295    5400.5905 
  103500      103.488    361.67196    14.866427   -447.72554   -432.85911    608.26932   -10296.238   -8874.3617    20995.408    15.667286    13.568235    25.405278    5400.5884 
  104000      103.988    374.80544    15.406275   -448.24478    -432.8385     5.283603   -9152.0466   -10680.575    19848.472    15.667289    13.568237     25.40526    5400.5863 
  104500      104.488    373.17487    15.339251   -448.15719   -432.81793   -781.05245   -9403.1767   -11138.771     18198.79    15.667291    13.568239    25.405243    5400.5842 
  105000      104.988    354.60114    14.575783   -447.37226   -432.79648    31.680932   -12044.184   -8995.0014    21134.228    15.667293    13.568241    25.405225    5400.5822 
  105500      105.488    364.54144    14.984376   -447.76093   -432.77655   -663.33216   -10902.986   -7628.2575    16541.247    15.667296    13.568243    25.405208    5400.5801 
  106000      105.988    356.66841    14.660757   -447.41585   -432.75509   -980.53578   -7047.3493   -9197.4346    13303.177    15.667298    13.568245     25.40519     5400.578 
  106500      106.488    348.15298    14.310733   -447.04425   -432.73352    47.229012   -10046.258   -7598.5956     17786.54      15.6673    13.568247    25.405173    5400.5759 
  107000      106.988    363.15002    14.927182   -447.64022   -432.71304    311.02386   -7387.3327   -10179.582    18499.986    15.667303    13.568249    25.405155    5400.5739 
  107500      107.488    374.15164    15.379401   -448.07187   -432.69247    465.58452   -9827.1062   -7617.0496    18840.909    15.667305    13.568251    25.405138    5400.5718 
  108000      107.988    370.64955    15.235448   -447.90584   -432.67039   -1312.3018   -10275.457   -9429.7951    15768.347    15.667308    13.568254     25.40512    5400.5697 
  108500      108.488    363.53182    14.942876   -447.59132   -432.64844   -2050.8301   -7631.0307   -10470.083    11948.624     15.66731    13.568256    25.405103    5400.5676 
  109000      108.988     368.1395    15.132273    -447.7599   -432.62763    -1266.244   -12088.912   -8943.7182    17233.898    15.667312    13.568258    25.405085    5400.5656 
  109500      109.488    367.92769    15.123567   -447.73051   -432.60694   -366.87755   -9799.4601   -9445.3552    18144.183    15.667315     13.56826    25.405068    5400.5635 
  110000      109.988    368.93779    15.165087    -447.7507   -432.58561    171.58169    -8726.307    -8471.444    17712.496    15.667317    13.568262     25.40505    5400.5614 
  110500      110.488    380.48186    15.639603   -448.20433   -432.56472   -251.72813   -10621.757   -9288.5099    19155.083    15.667319    13.568264    25.405033    5400.5593 
  111000      110.988    349.14361    14.351452   -446.89379   -432.54234   -121.64481    -11510.73   -8663.8064    19809.601    15.667322    13.568266    25.405015    5400.5573 
  111500      111.488    374.91823    15.410911   -447.93148   -432.52057     -955.787    -11567.17   -7223.2644    15923.073    15.667324    13.568268    25.404998    5400.5552 
  112000      111.988    371.75927    15.281063   -447.77957    -432.4985   -571.06177   -7296.5715   -10083.917    15667.303    15.667326     13.56827     25.40498    5400.5531 
  112500      112.488    354.05441     14.55331    -447.0301   -432.47679    1108.5214   -8670.6477   -5073.0911    17069.303    15.667329    13.568272    25.404963    5400.5511 
  113000      112.988    388.42243    15.965998   -448.42164   -432.45564   -594.93175   -8324.3042   -8093.3067    14632.816    15.667331    13.568275    25.404945     5400.549 
  113500      113.488     365.0486    15.005223   -447.43832    -432.4331     1398.571   -9069.7039   -6726.2702    19991.687    15.667333    13.568277    25.404928    5400.5469 
  114000      113.988    388.06615    15.951353   -448.36271   -432.41136   -202.09112   -10050.396   -6781.2184    16225.341    15.667336    13.568279     25.40491    5400.5448 
  114500      114.488    364.49835    14.982605   -447.37105   -432.38845     -1806.31    -9915.401   -9558.7216    14055.193    15.667338    13.568281    25.404893    5400.5428 
  115000      114.988    377.88575     15.53289   -447.90021   -432.36732   -1912.9227   -9059.0492   -8743.9748    12064.256     15.66734    13.568283    25.404875    5400.5407 
  115500      115.488    367.41548    15.102513   -447.44609   -432.34357   -2001.8262   -8981.2647   -9001.4629    11977.249    15.667343    13.568285    25.404858    5400.5386 
  116000      115.988    367.02658    15.086527   -447.40773    -432.3212   -137.73673   -9127.9494   -6838.7348    15553.474    15.667345    13.568287     25.40484    5400.5365 
  116500      116.488    365.86408    15.038743   -447.33814   -432.29939    1191.2962   -7608.8674   -8819.1016    20001.858    15.667347    13.568289    25.404823    5400.5345 
  117000      116.988    357.23319    14.683972   -446.96052   -432.27654    465.65337    -6727.668   -7310.2432    15434.871     15.66735    13.568291    25.404805    5400.5324 
  117500      117.488    362.49836    14.900396   -447.15478   -432.25439    534.02664   -9642.3378   -5231.5438    16475.961    15.667352    13.568293    25.404788    5400.5303 
  118000      117.988    350.39235    14.402782   -446.63427   -432.23149    1454.6798   -4933.5677   -8286.0596    17583.667    15.667355    13.568296     25.40477    5400.5282 
  118500      118.488    379.43258    15.596472   -447.80606   -432.20958   -1241.2755   -9179.3059   -7491.5241    12947.003    15.667357    13.568298    25.404753    5400.5262 
  119000      118.988    370.60552    15.233639    -447.4207   -432.18706   -690.74462   -10505.497   -10098.774    18532.037    15.667359      13.5683    25.404735    5400.5241 
  119500      119.488    353.94197    14.548688   -446.71281   -432.16412    365.84923   -6467.5844   -9195.2632    16760.395    15.667362    13.568302    25.404718     5400.522 
  120000      119.988    372.22173    15.300072   -447.44174   -432.14167   -2022.5823   -10789.094   -10458.004    15179.351    15.667364    13.568304      25.4047    5400.5199 
  120500      120.488    345.57984    14.204965   -446.32383   -432.11887    777.31439     -9675.45   -8010.9812    20018.374    15.667366    13.568306    25.404683    5400.5179 
  121000      120.988    357.09703    14.678376   -446.77529   -432.09692    485.90771   -7716.5098   -9636.1399    18810.373    15.667369    13.568308    25.404665    5400.5158 
  121500      121.488    364.48429    14.982027   -447.05514   -432.07311    322.72662    -3952.066   -11560.762    16481.007    15.667371     13.56831    25.404648    5400.5137 
  122000      121.988    371.65997    15.276981   -447.32681   -432.04983   -1613.1753   -10881.939   -9292.2807    15334.694    15.667373    13.568312     25.40463    5400.5116 
  122500      122.488    364.63907    14.988389   -447.01566   -432.02727    695.48422   -8071.8664   -7430.3847    17588.704    15.667376    13.568314    25.404613    5400.5096 
  123000      122.988    358.92913    14.753684   -446.75773   -432.00404    650.30958    -7382.624   -9161.5846    18495.137    15.667378    13.568317    25.404595    5400.5075 
  123500      123.488    375.63548    15.440394   -447.42159    -431.9812    145.22852   -10532.714   -6565.8675    17534.267     15.66738    13.568319    25.404578    5400.5054 
  124000      123.988    360.61552    14.823002   -446.78128   -431.95827    774.33154   -7578.9894   -6251.1654    16153.149    15.667383    13.568321     25.40456    5400.5033 
  124500      124.488    371.19001    15.257664   -447.19317   -431.93551   -97.724511   -9442.5066   -7945.6932    17095.026    15.667385    13.568323    25.404543    5400.5013 
  125000      124.988    368.41318    15.143523   -447.05576   -431.91224     988.4939    -10568.98   -7166.0068    20700.468    15.667387    13.568325    25.404525    5400.4992 
  125500      125.488    360.15746    14.804174   -446.69304   -431.88886    272.35466   -9800.4329   -6538.8946    17156.391     15.66739    13.568327    25.404508    5400.4971 
  126000      125.988    369.51425    15.188782   -447.05489   -431.86611    282.57618   -8668.5411   -8184.3765    17700.646    15.667392    13.568329     25.40449     5400.495 
  126500      126.488    384.44644    15.802566   -447.64583   -431.84326    91.662797   -6503.4684   -10106.219    16884.675    15.667394    13.568331    25.404473     5400.493 
  127000      126.988    373.92051      15.3699   -447.18965   -431.81975   -1235.9537   -10047.139   -7954.3748    14293.653    15.667397    13.568333    25.404455    5400.4909 
  127500      127.488    378.76186    15.568902   -447.36478   -431.79588   -206.80779   -10538.071   -5513.8672    15431.514    15.667399    13.568335    25.404438    5400.4888 
  128000      127.988    379.53232    15.600572    -447.3735   -431.77293   -41.072573   -9903.6679   -7402.5735    17183.024    15.667402    13.568338     25.40442    5400.4867 
  128500      128.488    382.74428    15.732599   -447.48227   -431.74967   -845.16724   -12444.123   -7872.6497    17781.271    15.667404     13.56834    25.404403    5400.4847 
  129000      128.988     390.1646    16.037609   -447.76495   -431.72735   -959.51876   -7000.2767   -9734.1942    13855.915    15.667406    13.568342    25.404385    5400.4826 
  129500      129.488    396.02371    16.278446   -447.98207   -431.70363    1503.6913   -6148.7874   -5867.1988     16527.06    15.667409    13.568344    25.404368    5400.4805 
  130000      129.988    356.08918    14.636948   -446.31623   -431.67928    1209.2809    -9846.374   -6193.3619    19667.579    15.667411    13.568346     25.40435    5400.4785 
  130500      130.488    377.60687    15.521427   -447.17738   -431.65596   -191.80794   -11333.703   -5390.5839    16148.864    15.667413    13.568348    25.404333    5400.4764 
  131000      130.988    375.00786    15.414596   -447.04739   -431.63279    105.20978   -11131.122   -6601.0517    18047.803    15.667416     13.56835    25.404315    5400.4743 
  131500      131.488    378.41387    15.554598   -447.16536   -431.61076    1727.2496   -6662.1853   -5439.9533    17283.887    15.667418    13.568352    25.404298    5400.4722 
  132000      131.988    361.52725    14.860479   -446.44678   -431.58631    269.67215   -7800.7373   -10956.657    19566.411     15.66742    13.568354     25.40428    5400.4702 
  132500      132.488    372.00168    15.291027   -446.85444   -431.56342   -200.06526    -4709.911   -10877.787    14987.503    15.667423    13.568356    25.404263    5400.4681 
  133000      132.988    377.52837      15.5182   -447.05722   -431.53902   -195.43069   -10071.969   -8297.6088    17783.286    15.667425    13.568359    25.404245     5400.466 
  133500      133.488     369.4466    15.186001   -446.70128   -431.51528    538.89703   -10360.866   -8331.0912    20308.648    15.667427    13.568361    25.404228    5400.4639 
  134000      133.988    390.27036    16.041956   -447.53386   -431.49191   -611.05748   -9665.9228   -7653.0392     15485.79     15.66743    13.568363     25.40421    5400.4619 
  134500      134.488     362.0211    14.880778   -446.34834   -431.46756   -372.50819   -10058.983   -7393.8597    16335.318    15.667432    13.568365    25.404193    5400.4598 
  135000      134.988    372.39195    15.307069   -446.75048   -431.44341   -374.46262   -7797.8015   -9502.8367     16177.25    15.667434    13.568367    25.404175    5400.4577 
  135500      135.488    364.39512    14.978362   -446.39896    -431.4206    421.62094   -6889.7857   -8987.3546    17142.003    15.667437    13.568369    25.404158    5400.4556 
  136000      135.988    381.24008    15.670769   -447.06659   -431.39582    1946.8724   -7507.6633   -3527.1507    16875.431    15.667439    13.568371     25.40414    5400.4536 
  136500      136.488    403.41555    16.582286   -447.95504   -431.37275   -579.81593   -9282.5103   -9349.4907    16892.553    15.667441    13.568373    25.404123    5400.4515 
  137000      136.988    385.82174    15.859097   -447.20769   -431.34859     510.8982   -12016.322    -4736.296    18285.312    15.667444    13.568375    25.404105    5400.4494 
  137500      137.488     381.8233    15.694742    -447.0199   -431.32515   -233.50782   -8244.3627   -9305.5128    16849.352    15.667446    13.568377    25.404088    5400.4473 
  138000      137.988    370.98287    15.249149   -446.55091   -431.30176    906.68311   -7468.7815   -5468.8082    15657.639    15.667449     13.56838     25.40407    5400.4453 
  138500      138.488    380.07775    15.622992   -446.90045   -431.27745     -436.172   -9845.5042   -8985.4262    17522.414    15.667451    13.568382    25.404053    5400.4432 
  139000      138.988    372.76907     15.32257   -446.57569   -431.25312    1480.8541   -5501.0053   -7521.8522     17465.42    15.667453    13.568384    25.404035    5400.4411 
  139500      139.488    357.80837    14.707615   -445.93651    -431.2289    -174.0854   -8436.7333   -7250.8941    15165.371    15.667456    13.568386    25.404018     5400.439 
  140000      139.988    387.99823    15.948561   -447.15427   -431.20571    354.20856   -10697.784    -5888.502    17648.912    15.667458    13.568388       25.404     5400.437 
  140500      140.488    369.78346    15.199848   -446.38107   -431.18122    252.09457   -7809.3676   -8101.8795    16667.531     15.66746     13.56839    25.403983    5400.4349 
  141000      140.988    388.86909    15.984357    -447.1421   -431.15775    -292.8891   -10702.586   -9646.6828    19470.602    15.667463    13.568392    25.403965    5400.4328 
  141500      141.488    381.45412    15.679567   -446.81265   -431.13308    -845.5649   -10805.041   -9597.6162    17865.963    15.667465    13.568394    25.403948    5400.4307 
  142000      141.988    382.92418    15.739994   -446.85011   -431.11012   -1474.5021   -8438.5976   -6965.6527    10980.744    15.667467    13.568396     25.40393    5400.4287 
  142500      142.488     390.3547    16.045423   -447.13168   -431.08626    133.96826   -9844.3042   -4662.6291    14908.838     15.66747    13.568398    25.403913    5400.4266 
  143000      142.988    384.82823    15.818259   -446.88076    -431.0625    604.26634    -5636.565    -6525.051    13974.415    15.667472    13.568401    25.403895    5400.4245 
  143500      143.488     385.4733    15.844774   -446.88313   -431.03835   -47.959235   -5971.4131   -8807.9698    14635.505    15.667474    13.568403    25.403878    5400.4224 
  144000      143.988    370.90144    15.245802   -446.25925   -431.01345    138.25983   -6035.6355    -8419.711    14870.126    15.667477    13.568405     25.40386    5400.4204 
  144500      144.488     352.0334    14.470236   -445.45871   -430.98848    1932.8867   -7051.2861   -4726.8643     17576.81    15.667479    13.568407    25.403843    5400.4183 
  145000      144.988    362.19422    14.887894   -445.85235   -430.96445    579.61369   -8200.0022   -8567.9034    18506.747    15.667481    13.568409    25.403825    5400.4162 
  145500      145.488    373.34968    15.346436   -446.28687   -430.94043    1312.8227   -8651.5827   -3000.5057    15590.557    15.667484    13.568411    25.403808    5400.4141 
  146000      145.988    380.55065     15.64243   -446.55798   -430.91555    1118.3704   -10917.501   -3552.9059    17825.518    15.667486    13.568413     25.40379    5400.4121 
  146500      146.488    378.17731    15.544875   -446.43622   -430.89135    497.38793   -7800.5025   -7440.3011    16732.967    15.667488    13.568415    25.403773      5400.41 
  147000      146.988    376.81502    15.488878   -446.35611   -430.86723    2420.3808   -5865.0789   -5634.6357    18760.857    15.667491    13.568417    25.403755    5400.4079 
  147500      147.488    388.13355    15.954123   -446.79714   -430.84301    588.81714    -11114.72   -7804.0529    20685.224    15.667493    13.568419    25.403738    5400.4059 
  148000      147.988    359.01364    14.757157   -445.57597   -430.81882    1641.0487   -6639.4196   -7055.5374    18618.103    15.667496    13.568422     25.40372    5400.4038 
  148500      148.488    360.84918    14.832607   -445.62722   -430.79462    1287.0014   -8982.5246   -6109.0433    18952.572    15.667498    13.568424    25.403703    5400.4017 
  149000      148.988    382.37804    15.717545   -446.48826   -430.77071    1289.3082   -5456.2971   -6092.9886     15417.21      15.6675    13.568426    25.403685    5400.3996 
  149500      149.488    392.09515    16.116964   -446.86335   -430.74639   -44.735568   -7755.3261   -8050.3083    15671.428    15.667503    13.568428    25.403668    5400.3976 
  150000      149.988    397.39601    16.334854   -447.05727   -430.72242     64.71741   -9387.2893   -8007.3435    17588.785    15.667505     13.56843     25.40365    5400.3955 
  150500      150.488     386.6311    15.892365   -446.59022   -430.69785    2087.9324   -9387.5683    -5667.837    21319.202    15.667507    13.568432    25.403633    5400.3934 
  151000      150.988    382.18904    15.709776   -446.38345   -430.67367    1457.7333   -7270.9851   -5467.8399    17112.025     15.66751    13.568434    25.403615    5400.3913 
  151500      151.488    377.46397    15.515553   -446.16481   -430.64925    413.44216   -9065.8304   -8873.0622    19179.219    15.667512    13.568436    25.403598    5400.3893 
  152000      151.988    406.27021    16.699626   -447.32435   -430.62472   -148.05132   -8766.2056   -7631.7485      15953.8    15.667514    13.568438     25.40358    5400.3872 
  152500      152.488    391.05496    16.074207   -446.67431    -430.6001    -1213.108   -11101.489   -7250.0133    14712.179    15.667517     13.56844    25.403563    5400.3851 
  153000      152.988    384.68335    15.812304   -446.38727   -430.57496    333.10944   -8225.7677   -6512.7382    15737.834    15.667519    13.568443    25.403545     5400.383 
  153500      153.488    370.08196    15.212118   -445.76282    -430.5507    331.67706   -7488.2854    -7643.586    16126.903    15.667521    13.568445    25.403528     5400.381 
  154000      153.988    378.91526    15.575208    -446.1008   -430.52559    758.46619   -10365.395    -7480.533    20121.327    15.667524    13.568447     25.40351    5400.3789 
  154500      154.488    394.94204    16.233984   -446.73491   -430.50092    1678.2518   -4054.7128   -9783.3678    18872.836    15.667526    13.568449    25.403493    5400.3768 
  155000      154.988    378.58669    15.561702   -446.03915   -430.47745    3390.2204   -4824.6021   -6058.1814    21053.445    15.667528    13.568451    25.403475    5400.3747 
  155500      155.488    386.63251    15.892424   -446.34437   -430.45195    2225.5494   -7118.2718   -8670.8597     22465.78    15.667531    13.568453    25.403458    5400.3727 
  156000      155.988    379.18794    15.586416   -446.01351    -430.4271     2103.122    -3912.388   -11014.992    21236.746    15.667533    13.568455     25.40344    5400.3706 
  156500      156.488    399.61992    16.426267   -446.82896   -430.40269     1522.646   -8079.0403   -9751.5677    22398.546    15.667535    13.568457    25.403423    5400.3685 
  157000      156.988     395.8413    16.270948   -446.64968   -430.37873    1787.9067   -9609.9856   -4973.1642     19946.87    15.667538    13.568459    25.403405    5400.3664 
  157500      157.488    398.68712    16.387925   -446.74139   -430.35346    340.16233   -10841.594    -9028.879     20890.96     15.66754    13.568461    25.403388    5400.3644 
  158000      157.988     395.1105    16.240909   -446.56968   -430.32877    891.34483   -7450.7464    -7796.781    17921.562    15.667543    13.568464     25.40337    5400.3623 
  158500      158.488    387.47982    15.927252   -446.23119   -430.30394    1144.7112   -5237.2229   -7025.3586    15696.715    15.667545    13.568466    25.403353    5400.3602 
  159000      158.988    377.99725    15.537473   -445.81658   -430.27911    2711.2349    -6475.597   -6304.8429    20914.144    15.667547    13.568468    25.403335    5400.3581 
  159500      159.488    399.74382     16.43136    -446.6855   -430.25414    1520.7566   -8131.9876   -7447.3461    20141.603     15.66755     13.56847    25.403318    5400.3561 
  160000      159.988    360.93093    14.835967   -445.06559   -430.22962    574.16128   -10103.773   -8627.9689    20454.226    15.667552    13.568472      25.4033     5400.354 
  160500      160.488     378.6113    15.562714   -445.76746   -430.20475    1094.5055   -10624.948   -5199.5313    19107.996    15.667554    13.568474    25.403283    5400.3519 
  161000      160.988    381.21881    15.669895   -445.85007   -430.18017    1048.2217   -8122.6881    -7477.527     18744.88    15.667557    13.568476    25.403265    5400.3498 
  161500      161.488    398.42224    16.377037   -446.53262   -430.15558    -134.6787    -7775.962   -8149.4658    15521.392    15.667559    13.568478    25.403248    5400.3478 
  162000      161.988    382.61768    15.727395   -445.85772   -430.13032    -263.3985   -10047.483   -7528.5419    16785.829    15.667561     13.56848     25.40323    5400.3457 
  162500      162.488    389.73698    16.020032   -446.12591   -430.10587    133.72101   -9234.6907   -6182.4085    15818.262    15.667564    13.568482    25.403213    5400.3436 
  163000      162.988    376.24601    15.465489   -445.54575   -430.08026    517.46764   -9766.7745   -7739.5956    19058.773    15.667566    13.568485    25.403195    5400.3415 
  163500      163.488    404.87252    16.642174   -446.69953   -430.05736    1040.5389   -7141.8895   -7647.4236     17910.93    15.667568    13.568487    25.403178    5400.3395 
  164000      163.988    394.24052    16.205149   -446.23651   -430.03136    -512.8841   -8857.9421   -6521.4229    13840.713    15.667571    13.568489     25.40316    5400.3374 
  164500      164.488    370.24166    15.218682   -445.22489    -430.0062    2225.5542   -6023.5358   -6089.2838    18789.482    15.667573    13.568491    25.403143    5400.3353 
  165000      164.988    401.64526    16.509518   -446.49156   -429.98205    1070.2198   -6068.0117   -7404.9787     16683.65    15.667575    13.568493    25.403125    5400.3332 
  165500      165.488    424.94435    17.467221   -447.42399   -429.95677    622.59087   -8950.9117   -7793.9932    18612.678    15.667578    13.568495    25.403108    5400.3312 
  166000      165.988    395.19344    16.244318   -446.17683   -429.93251    986.42084     -7925.84   -6854.6755    17739.778     15.66758    13.568497     25.40309    5400.3291 
  166500      166.488    414.88381    17.053686   -446.96163   -429.90794   -143.02958   -8886.5669   -9720.9809    18178.459    15.667582    13.568499    25.403073     5400.327 
  167000      166.988    412.50653    16.955968   -446.83845   -429.88248    2185.7756   -3717.9692   -10702.014     20977.31    15.667585    13.568501    25.403055    5400.3249 
  167500      167.488    389.50595    16.010536   -445.86645   -429.85591    1681.5307   -7221.0412   -6570.8315    18836.465    15.667587    13.568503    25.403038    5400.3229 
  168000      167.988    388.03975    15.950268    -445.7815   -429.83124    1377.6334   -8317.3848   -6117.0501    18567.335     15.66759    13.568506     25.40302    5400.3208 
  168500      168.488      418.505    17.202534   -447.00834   -429.80581    1500.3864     -5842.32   -10309.544    20653.023    15.667592    13.568508    25.403003    5400.3187 
  169000      168.988    371.48229    15.269678   -445.04908   -429.77941    2532.2053   -5597.6139   -11089.416    24283.646    15.667594     13.56851    25.402985    5400.3167 
  169500      169.488    407.13232    16.735062   -446.49105   -429.75599    1949.8837   -9966.3984   -6668.3033    22484.353    15.667597    13.568512    25.402968    5400.3146 
  170000      169.988    404.17495      16.6135   -446.34377   -429.73027    144.04324   -8498.3936   -8312.7919    17243.315    15.667599    13.568514     25.40295    5400.3125 
  170500      170.488    408.30847    16.783408   -446.48819   -429.70479   -82.863476   -8370.6897   -7602.6854    15724.785    15.667601    13.568516    25.402933    5400.3104 
  171000      170.988    384.02484    15.785236   -445.46494    -429.6797    1318.5877   -3142.5676   -7941.7011    15040.032    15.667604    13.568518    25.402915    5400.3084 
  171500      171.488    397.04825     16.32056   -445.97578   -429.65522    3376.7891    -5417.004   -5010.6003    20557.971    15.667606     13.56852    25.402898    5400.3063 
  172000      171.988    381.02151    15.661785   -445.28986   -429.62808    501.59185   -8691.1154   -7519.3454    17715.236    15.667608    13.568522     25.40288    5400.3042 
  172500      172.488    390.22643     16.04015   -445.64306   -429.60291    286.57341   -10114.263     -3340.94    14314.924    15.667611    13.568524    25.402863    5400.3021 
  173000      172.988    407.39117    16.745702   -446.32378   -429.57808   -127.46912   -8190.1351   -10153.721    17961.449    15.667613    13.568527    25.402845    5400.3001 
  173500      173.488    397.55912    16.341559   -445.89272   -429.55117    1371.9593   -7872.7718   -7375.7953    19364.445    15.667615    13.568529    25.402828     5400.298 
  174000      173.988    412.98392    16.975591   -446.50187   -429.52628   -457.97794   -8822.9983   -9951.1805    17400.245    15.667618    13.568531     25.40281    5400.2959 
  174500      174.488    405.09768    16.651429   -446.15192   -429.50049    2015.4876   -5230.0107   -8254.5029    19530.976     15.66762    13.568533    25.402793    5400.2938 
  175000      174.988    409.26198    16.822601   -446.29765   -429.47505    -474.1469   -7838.1082   -9003.7262    15419.394    15.667622    13.568535    25.402775    5400.2918 
  175500      175.488    394.92882    16.233441   -445.68266   -429.44922    -948.6177   -8869.6033   -10295.944    16319.695    15.667625    13.568537    25.402758    5400.2897 
  176000      175.988    426.62603    17.536346   -446.95982   -429.42348    533.32726   -8489.5047   -5645.9344    15735.421    15.667627    13.568539     25.40274    5400.2876 
  176500      176.488    401.37453     16.49839   -445.89567   -429.39728    1276.8071   -6371.7176   -5509.6917    15711.831    15.667629    13.568541    25.402723    5400.2855 
  177000      176.988    412.98462     16.97562   -446.34584   -429.37022    2553.0738   -6651.6798   -6473.0448    20783.946    15.667632    13.568543    25.402705    5400.2835 
  177500      177.488    403.28054    16.576736   -445.92097   -429.34423    1105.0744   -10625.222   -5073.8429    19014.288    15.667634    13.568545    25.402688    5400.2814 
  178000      177.988     413.4167     16.99338    -446.3128   -429.31942    1565.0561   -4309.6183   -7617.7429    16622.529    15.667637    13.568548     25.40267    5400.2793 
  178500      178.488    412.14705    16.941191   -446.23476   -429.29357    864.50327   -7982.1087   -6511.3592    17086.978    15.667639     13.56855    25.402653    5400.2772 
  179000      178.988    386.31328    15.879302    -445.1467    -429.2674    16.274308    -8761.748   -9028.6735    17839.244    15.667641    13.568552    25.402635    5400.2752 
  179500      179.488    396.59222    16.301815   -445.54381     -429.242     115.2483   -5806.2047   -9541.9728    15693.922    15.667644    13.568554    25.402618    5400.2731 
  180000      179.988    406.04976    16.690564   -445.90705   -429.21648    2690.4226   -7490.9445   -2899.3878      18461.6    15.667646    13.568556      25.4026     5400.271 
  180500      180.488    405.50585    16.668207   -445.85855   -429.19034    1507.7925   -8751.6576   -8388.2575    21663.292    15.667648    13.568558    25.402583    5400.2689 
  181000      180.988    410.96024    16.892408   -446.05757   -429.16516    1282.8926   -6647.0276   -9336.3674    19832.073    15.667651     13.56856    25.402565    5400.2669 
  181500      181.488    383.24591    15.753218   -444.89161   -429.13839    2594.8742   -9888.7288   -8456.2335    26129.585    15.667653    13.568562    25.402548    5400.2648 
  182000      181.988    396.96855    16.317284   -445.43026   -429.11297    1368.3728   -6904.8537   -9672.0835    20682.056    15.667655    13.568564     25.40253    5400.2627 
  182500      182.488    399.90451    16.437965   -445.52457   -429.08661    1088.3276    -8734.664   -8654.9393    20654.586    15.667658    13.568566    25.402513    5400.2606 
  183000      182.988    403.66626    16.592591   -445.65294   -429.06035    783.59668   -7598.4556   -5747.4186    15696.664     15.66766    13.568569    25.402495    5400.2586 
  183500      183.488    416.28147    17.111136   -446.14568   -429.03455    1745.0851   -9404.2459   -3613.4492    18252.951    15.667662    13.568571    25.402478    5400.2565 
  184000      183.988    412.12078    16.940112   -445.94884   -429.00873     1071.497   -10408.424   -7441.7471    21064.662    15.667665    13.568573     25.40246    5400.2544 
  184500      184.488     410.5754    16.876589   -445.85907   -428.98248    878.20679   -7944.5972   -7950.7783    18529.996    15.667667    13.568575    25.402443    5400.2523 
  185000      184.988    403.89622    16.602043   -445.55793   -428.95589    1050.1866   -6113.6281   -7454.6518     16718.84    15.667669    13.568577    25.402425    5400.2503 
  185500      185.488    410.56917    16.876333   -445.80583    -428.9295    1860.9518   -2267.5951   -9906.2743    17756.725    15.667672    13.568579    25.402408    5400.2482 
  186000      185.988    399.86705    16.436425   -445.33981   -428.90339    2519.9808   -8451.6729   -5501.7289    21513.344    15.667674    13.568581     25.40239    5400.2461 
  186500      186.488    415.19385     17.06643   -445.94266   -428.87623    1170.8283   -6944.5822   -12750.788    23207.855    15.667676    13.568583    25.402373     5400.244 
  187000      186.988    401.62076    16.508511   -445.35819   -428.84967    2945.1124   -4395.8653   -5785.9651    19017.168    15.667679    13.568585    25.402355     5400.242 
  187500      187.488    411.16346    16.900761   -445.72455   -428.82378    -150.1153   -10990.264   -5961.2477    16501.166    15.667681    13.568587    25.402338    5400.2399 
  188000      187.988    447.73453    18.404005   -447.20241    -428.7984    47.762649    -6544.753   -10877.517    17565.558    15.667684     13.56859     25.40232    5400.2378 
  188500      188.488    421.60826    17.330092   -446.10143   -428.77134    1881.6263   -8983.3329    -6094.276    20722.488    15.667686    13.568592    25.402303    5400.2357 
  189000      188.988    427.19096    17.559567    -446.3048   -428.74523    2021.6227   -8608.1293   -4457.0019    19129.999    15.667688    13.568594    25.402285    5400.2337 
  189500      189.488    421.87981    17.341254   -446.05956    -428.7183    1123.6442    -6586.165   -8501.9658    18459.063    15.667691    13.568596    25.402268    5400.2316 
  190000      189.988    420.99797    17.305006   -445.99722   -428.69221    2535.0286   -10690.376   -6208.0673    24503.529    15.667693    13.568598     25.40225    5400.2295 
  190500      190.488    404.92782    16.644447   -445.31034    -428.6659    3487.4381   -5610.6378   -6004.7238    22077.676    15.667695      13.5686    25.402233    5400.2274 
  191000      190.988    419.41753    17.240043   -445.87955   -428.63951    1712.0901   -11044.409   -5230.6378    21411.318    15.667698    13.568602    25.402215    5400.2254 
  191500      191.488    428.38835    17.608786   -446.22137   -428.61259    1067.9139   -7210.3665    -11630.44    22044.548      15.6677    13.568604    25.402198    5400.2233 
  192000      191.988    428.85314    17.627891   -446.21341   -428.58552    420.63029    -8507.085   -6052.6565    15821.632    15.667702    13.568606     25.40218    5400.2212 
  192500      192.488    440.07012    18.088962   -446.64898   -428.56002    987.88999    -4331.675   -5771.1273    13066.472    15.667705    13.568608    25.402163    5400.2192 
  193000      192.988    404.36717    16.621402   -445.15459   -428.53319    3314.7353   -3907.7318   -6304.7435    20156.681    15.667707    13.568611    25.402145    5400.2171 
  193500      193.488    393.47533    16.173696    -444.6797     -428.506     2644.309    -6239.282   -7534.5381    21706.747    15.667709    13.568613    25.402128     5400.215 
  194000      193.988    419.64741    17.249492   -445.72893   -428.47944    1382.4826    -9068.158   -8097.9603    21313.566    15.667712    13.568615     25.40211    5400.2129 
  194500      194.488     414.4612    17.036314   -445.49016   -428.45384     2436.398   -5870.8107   -5189.5275    18369.532    15.667714    13.568617    25.402093    5400.2109 
  195000      194.988    420.95997    17.303444   -445.73081   -428.42736    2688.6516   -7058.0206   -6709.7046     21833.68    15.667716    13.568619    25.402075    5400.2088 
  195500      195.488    413.14072    16.982036   -445.38176   -428.39972    1021.6787   -10934.182   -6510.9713    20510.189    15.667719    13.568621    25.402058    5400.2067 
  196000      195.988    407.81991    16.763326   -445.13632     -428.373    2577.6802   -10779.899   -5573.4402     24086.38    15.667721    13.568623     25.40204    5400.2046 
  196500      196.488    431.16127    17.722766   -446.07068   -428.34791    1064.6302   -9090.0082   -6410.4195    18694.318    15.667723    13.568625    25.402023    5400.2026 
  197000      196.988     437.7615    17.994067   -446.31423   -428.32017     1250.103   -8363.4419   -9361.9745    21475.725    15.667726    13.568627    25.402005    5400.2005 
  197500      197.488    402.49175    16.544313   -444.83696   -428.29265    1444.5005   -6431.9092   -7777.4877    18542.899    15.667728    13.568629    25.401988    5400.1984 
  198000      197.988    398.72995    16.389685   -444.65519   -428.26551    1481.4092   -4800.1357   -5129.1508    14373.514    15.667731    13.568632     25.40197    5400.1963 
  198500      198.488    425.14381     17.47542   -445.71472    -428.2393    99.912724   -9326.2791   -6809.7863    16435.804    15.667733    13.568634    25.401953    5400.1943 
  199000      198.988    397.11799    16.323426   -444.53502   -428.21159    2230.9566   -7414.5177     -8572.27    22679.657    15.667735    13.568636    25.401935    5400.1922 
  199500      199.488    449.05544    18.458301   -446.64436   -428.18606     1136.806   -9503.6398   -8308.4329    21222.491    15.667738    13.568638    25.401918    5400.1901 
  200000      199.988    414.03325    17.018723   -445.17738   -428.15865    3364.8583   -9426.6154   -4188.2425    23709.433     15.66774     13.56864      25.4019     5400.188 
  200500      200.488    419.44729    17.241266   -445.37352   -428.13225    1554.8525   -8837.7701   -5164.9139    18667.241    15.667742    13.568642    25.401883     5400.186 
  201000      200.988     420.8253    17.297909   -445.40285   -428.10494    1756.6138   -7249.0922   -5545.4844    18064.418    15.667745    13.568644    25.401865    5400.1839 
  201500      201.488    429.30495    17.646463   -445.72462   -428.07816    1086.1786   -11243.337   -5477.8836    19979.756    15.667747    13.568646    25.401848    5400.1818 
  202000      201.988     447.6995    18.402565   -446.45369   -428.05112   -367.21276    -7110.248   -7594.4245    13603.034    15.667749    13.568648     25.40183    5400.1797 
  202500      202.488    414.26222    17.028135   -445.05167   -428.02353    2341.9569   -6861.5289   -5963.9488    19851.348    15.667752     13.56865    25.401813    5400.1777 
  203000      202.988    411.23457    16.903684    -444.9009   -427.99722    1429.4348    -8771.148   -2859.1183    15918.571    15.667754    13.568653    25.401795    5400.1756 
  203500      203.488    415.45455    17.077146   -445.04718   -427.97004    2254.7025   -6512.3373   -8787.6224    22064.067    15.667756    13.568655    25.401778    5400.1735 
  204000      203.988    404.09269    16.610119   -444.55376   -427.94364    736.37507   -4839.8409   -7537.9299    14586.896    15.667759    13.568657     25.40176    5400.1714 
  204500      204.488    432.45785    17.776061   -445.69334   -427.91728    728.85959   -6306.5575   -11788.593    20281.729    15.667761    13.568659    25.401743    5400.1694 
  205000      204.988    426.55229    17.533315   -445.42413   -427.89081    840.09328   -7580.2192   -8211.3898    18311.889    15.667763    13.568661    25.401725    5400.1673 
  205500      205.488     399.0969    16.404769   -444.26753   -427.86276    3791.5721   -7205.0699   -5751.9635     24331.75    15.667766    13.568663    25.401708    5400.1652 
  206000      205.988    429.35166    17.648382   -445.48527   -427.83688     970.4165   -8188.2847   -5075.4506    16174.985    15.667768    13.568665     25.40169    5400.1631 
  206500      206.488    411.92508    16.932067    -444.7413   -427.80923    1070.0376   -10011.732   -5484.7253     18706.57     15.66777    13.568667    25.401673    5400.1611 
  207000      206.988    435.36448    17.895538   -445.67806   -427.78252     2875.751   -6711.9565   -5226.0007     20565.21    15.667773    13.568669    25.401655     5400.159 
  207500      207.488    405.42563     16.66491    -444.4218   -427.75689    2097.9373   -9399.0132   -7466.6302    23159.455    15.667775    13.568671    25.401638    5400.1569 
  208000      207.988    452.99901      18.6204   -446.35005   -427.72965    1842.4852   -7832.5512   -8710.9204    22070.927    15.667778    13.568674     25.40162    5400.1548 
  208500      208.488    433.47973    17.818066   -445.51999   -427.70193     2381.931    -2991.796   -6543.7215     16681.31     15.66778    13.568676    25.401603    5400.1528 
  209000      208.988    414.16132    17.023987   -444.69845   -427.67447    1728.2731    -7241.377   -7855.5125    20281.709    15.667782    13.568678    25.401585    5400.1507 
  209500      209.488    427.93658    17.590216   -445.23794   -427.64772    2108.4696   -3660.3846   -6170.5298    16156.323    15.667785     13.56868    25.401568    5400.1486 
  210000      209.988     438.2498    18.014138   -445.63571   -427.62157    1936.6197   -5288.2228   -7494.9899    18593.072    15.667787    13.568682     25.40155    5400.1465 
  210500      210.488    424.28883    17.440276   -445.03504   -427.59477    3306.9769   -7454.0026   -4163.1336    21538.067    15.667789    13.568684    25.401533    5400.1445 
  211000      210.988     453.4467    18.638803    -446.2072   -427.56839    672.72856   -8797.1823    -5632.077    16447.445    15.667792    13.568686    25.401515    5400.1424 
  211500      211.488    401.70009    16.511772   -444.05252   -427.54075    2837.0129    -9085.758   -5831.2077    23428.004    15.667794    13.568688    25.401498    5400.1403 
  212000      211.988    429.97292    17.673919   -445.18711   -427.51319    1797.4157   -8512.7963   -7011.9615    20917.005    15.667796     13.56869     25.40148    5400.1382 
[...]
  948500      948.488    582.20843    23.931518   -440.17598   -416.24447    8449.1206    2745.7043   -6697.6059    29299.263    15.671258    13.571784    25.375703    5397.0801 
  949000      948.988    556.73263    22.884342   -439.12465   -416.24031    6903.7519    2409.3372   -4178.7746    22480.693     15.67126    13.571786    25.375685    5397.0781 
  949500      949.488    579.24814    23.809836    -440.0466   -416.23676    7815.1649   -338.48811   -2922.5281    26706.511    15.671263    13.571788    25.375668     5397.076 
  950000      949.988    553.99345    22.771749   -439.00512   -416.23337    8416.1705    -2421.173    867.06521    26802.619    15.671265     13.57179     25.37565    5397.0739 
  950500      950.488    578.27194     23.76971   -440.00367   -416.23396    7586.9794    1983.3503   -4538.5342    25316.122    15.671267    13.571792    25.375633    5397.0718 
  951000      950.988    570.73609    23.459951   -439.69157   -416.23162    5813.0358   -714.78558    -2407.003    20560.896     15.67127    13.571794    25.375615    5397.0698 
  951500      951.488    543.73417    22.350044   -438.57781   -416.22777    8273.7988    1668.4255    554.06595    22598.905    15.671272    13.571796    25.375598    5397.0677 
  952000      951.988    553.82923    22.764999   -438.99045   -416.22545    8353.2775    1629.0799    1281.1593    22149.593    15.671274    13.571798     25.37558    5397.0656 
  952500      952.488    564.85235    23.218101   -439.44091   -416.22281    6737.2242   -1498.5486   -2105.4852    23815.706    15.671277      13.5718    25.375563    5397.0635 
  953000      952.988      573.927    23.591112   -439.80821   -416.21709    5919.5989    2650.0381   -2919.7727    18028.531    15.671279    13.571803    25.375545    5397.0614 
  953500      953.488    534.33637     21.96375    -438.1744   -416.21065    7606.1494    -2598.707   -248.54068    25665.696    15.671281    13.571805    25.375528    5397.0594 
  954000      953.988    575.68132    23.663223   -439.87278   -416.20955    7722.1399     4209.151   -1007.7363    19965.005    15.671284    13.571807     25.37551    5397.0573 
  954500      954.488    546.45796    22.462005   -438.66747   -416.20546    6204.3301   -4750.8454   -2765.7976    26129.633    15.671286    13.571809    25.375493    5397.0552 
  955000      954.988    562.65762    23.127888   -439.33072   -416.20284    7678.2653   -616.39008   -1113.1371    24764.323    15.671288    13.571811    25.375475    5397.0531 
  955500      955.488    572.72447    23.541682   -439.74378    -416.2021      7233.14   -2100.8969   -3248.7606    27049.078    15.671291    13.571813    25.375458    5397.0511 
  956000      955.988    550.87742    22.643666   -438.84241   -416.19874    9091.0326    865.81967   -1604.1961    28011.474    15.671293    13.571815     25.37544     5397.049 
  956500      956.488    537.99326    22.114065   -438.30714   -416.19307     6025.662   -2118.1576    198.28804    19996.856    15.671295    13.571817    25.375423    5397.0469 
  957000      956.988    546.38351    22.458945   -438.64895      -416.19    6952.9665   -2155.0234     289.4942    22724.429    15.671298    13.571819    25.375405    5397.0448 
  957500      957.488    561.76727     23.09129    -439.2757   -416.18441    6970.9972     -3867.31   -477.20444    25257.506      15.6713    13.571821    25.375388    5397.0427 
  958000      957.988    549.28163    22.578071   -438.76061   -416.18254      9300.73    992.59849    2047.0452    24862.546    15.671303    13.571824     25.37537    5397.0407 
  958500      958.488    555.30018    22.825462   -439.00423   -416.17876     7468.155    2519.2578   -1959.0759    21844.283    15.671305    13.571826    25.375353    5397.0386 
  959000      958.988    567.99299    23.347196   -439.52475   -416.17756     6376.584    1370.5718    267.69373    17491.486    15.671307    13.571828    25.375335    5397.0365 
  959500      959.488    547.85688    22.519507   -438.69189   -416.17238    5155.8741     1224.208   -5213.2909    19456.705     15.67131     13.57183    25.375318    5397.0344 
  960000      959.988    587.02677    24.129575   -440.29955   -416.16997    7866.7861    -1359.122    1243.6032    23715.877    15.671312    13.571832      25.3753    5397.0324 
  960500      960.488    578.70966    23.787702   -439.95479   -416.16709    8779.3078    4895.3299    93.309353    21349.284    15.671314    13.571834    25.375283    5397.0303 
  961000      960.988    575.77743    23.667174   -439.83037   -416.16319    8307.5315    106.15887    742.74619    24073.689    15.671317    13.571836    25.375265    5397.0282 
  961500      961.488    559.54562    22.999969   -439.15737    -416.1574    7991.6106     1993.908    -2535.656     24516.58    15.671319    13.571838    25.375248    5397.0261 
  962000      961.988    599.72144    24.651385   -440.80543   -416.15405    6287.1834   -2052.9821   -759.02968    21673.562    15.671321     13.57184     25.37523     5397.024 
  962500      962.488    555.12987    22.818461   -438.96764   -416.14918    6205.3646   -5614.5484    2117.4707    22113.172    15.671324    13.571842    25.375213     5397.022 
  963000      962.988     575.4644    23.654306   -439.79835   -416.14404    5813.6508    294.10992   -1414.2481    18561.091    15.671326    13.571845    25.375195    5397.0199 
  963500      963.488    543.29013    22.331792   -438.47236   -416.14057    7885.3529    1794.8912   -1911.5236    23772.691    15.671328    13.571847    25.375178    5397.0178 
  964000      963.988    553.89891    22.767863   -438.90358   -416.13572    8504.9151    5410.3846   -1814.1087    21918.469    15.671331    13.571849     25.37516    5397.0157 
  964500      964.488    551.89346     22.68543   -438.81426   -416.12883    7100.3581   -3421.5814    2126.9924    22595.663    15.671333    13.571851    25.375143    5397.0137 
  965000      964.988    560.41097     23.03554   -439.15946   -416.12392    8723.0352   -2381.2071   -1184.0975     29734.41    15.671335    13.571853    25.375125    5397.0116 
  965500      965.488    558.62311     22.96205   -439.07948   -416.11743    7659.4455    636.93997   -3254.5458    25595.942    15.671338    13.571855    25.375108    5397.0095 
  966000      965.988    553.45965    22.749807   -438.86367   -416.11387    6424.9005    -2227.368    -4300.232    25802.302     15.67134    13.571857     25.37509    5397.0074 
  966500      966.488    521.54481    21.437957   -437.54787   -416.10991    8800.1481     1411.305   -336.56888    25325.708    15.671342    13.571859    25.375073    5397.0053 
  967000      966.988    571.83733    23.505217   -439.61193   -416.10672    6477.7705   -1494.6009   -4294.5352    25222.448    15.671345    13.571861    25.375055    5397.0033 
  967500      967.488    573.40868    23.569807   -439.67034   -416.10053    8575.7333   -2061.0476   -3208.6121     30996.86    15.671347    13.571863    25.375038    5397.0012 
  968000      967.988    576.07949     23.67959   -439.77488   -416.09529     8591.076    5697.6754   -125.29746     20200.85     15.67135    13.571866     25.37502    5396.9991 
  968500      968.488    597.15257    24.545793   -440.63583   -416.09004    7270.6605     2557.921    692.31493    18561.746    15.671352    13.571868    25.375003     5396.997 
  969000      968.988    575.16275    23.641907   -439.72763   -416.08573    6983.8566   -1519.5894    1253.2376    21217.922    15.671354     13.57187    25.374985     5396.995 
  969500      969.488    555.83795    22.847567   -438.92574   -416.07817    6676.3423   -4619.8381   -384.57426    25033.439    15.671357    13.571872    25.374968    5396.9929 
  970000      969.988    580.89279    23.877439   -439.95017   -416.07273    7225.3983    683.45494   -2064.2665    23057.006    15.671359    13.571874     25.37495    5396.9908 
  970500      970.488    585.63742    24.072466   -440.13956    -416.0671     7254.966    211.51641   -274.74712    21828.129    15.671361    13.571876    25.374933    5396.9887 
  971000      970.988    545.96226    22.441629   -438.50239   -416.06076    8954.2455    150.77249     4611.126    22100.838    15.671364    13.571878    25.374915    5396.9866 
  971500      971.488    548.84367    22.560069   -438.61383   -416.05376    8291.2919    664.26489   -19.260183    24228.871    15.671366     13.57188    25.374898    5396.9846 
  972000      971.988    582.11318    23.927603   -439.97669   -416.04909    7836.1957   -975.97368   -1787.4987     26272.06    15.671368    13.571882     25.37488    5396.9825 
  972500      972.488    585.73382    24.076428     -440.121   -416.04457    7515.1011    834.92322     -1672.84     23383.22    15.671371    13.571884    25.374863    5396.9804 
  973000      972.988    557.75308    22.926288   -438.96405   -416.03776    8289.9348    2708.2021   -1777.1557    23938.758    15.671373    13.571887    25.374845    5396.9783 
  973500      973.488    544.64063    22.387304   -438.41737   -416.03007    8330.6038    -1687.083    1720.3179    24958.577    15.671375    13.571889    25.374828    5396.9763 
  974000      973.988     555.3776    22.828644   -438.85465   -416.02601    7821.2417    3700.8536   -1686.3796    21449.251    15.671378    13.571891     25.37481    5396.9742 
  974500      974.488    559.37726    22.993049   -439.01285    -416.0198    7581.2286   -919.66776   -1918.5283    25581.882     15.67138    13.571893    25.374793    5396.9721 
  975000      974.988    543.05391    22.322082    -438.3368   -416.01472    7179.4853   -18.192688   -773.13919    22329.788    15.671382    13.571895    25.374775      5396.97 
  975500      975.488    579.99038    23.840346   -439.84997   -416.00963    7553.5267    303.87569    524.04266    21832.662    15.671385    13.571897    25.374758    5396.9679 
  976000      975.988    553.72879     22.76087   -438.76401   -416.00314    7192.0348   -1579.3113     1241.166     21914.25    15.671387    13.571899     25.37474    5396.9659 
  976500      976.488    595.05626    24.459625   -440.45833   -415.99871    7405.7683    585.08126   -1291.1478    22923.371    15.671389    13.571901    25.374723    5396.9638 
  977000      976.988    590.46479    24.270894    -440.2641    -415.9932    7484.7315    5715.5103   -2700.8249    19439.509    15.671392    13.571903    25.374705    5396.9617 
  977500      977.488    560.04084    23.020325   -439.00715   -415.98682    6787.1798   -386.72153   -225.08168    20973.343    15.671394    13.571905    25.374688    5396.9596 
  978000      977.988    572.04679    23.513827   -439.49432   -415.98049    6897.5954    487.56507   -5238.4221    25443.643    15.671397    13.571908     25.37467    5396.9576 
  978500      978.488     540.7409    22.227007   -438.20005   -415.97305    8790.4108    534.40453   -2922.6458    28759.474    15.671399     13.57191    25.374653    5396.9555 
  979000      978.988    565.59157    23.248487   -439.21416   -415.96567    8495.8066     5420.841   -2860.5833    22927.162    15.671401    13.571912    25.374635    5396.9534 
  979500      979.488    581.27214    23.893032    -439.8549   -415.96187    7551.7183    265.18979   -321.63525      22711.6    15.671404    13.571914    25.374618    5396.9513 
  980000      979.988    537.51451    22.094387   -438.04801   -415.95363    8928.4615     5327.627    548.88119    20908.876    15.671406    13.571916      25.3746    5396.9492 
  980500      980.488    555.25531    22.823617   -438.77063   -415.94701    7236.1555    3604.0187   -5703.3094    23807.757    15.671408    13.571918    25.374583    5396.9472 
  981000      980.988    545.74985    22.432898   -438.37347   -415.94058      7648.06   -231.86679   -421.44703    23597.494    15.671411     13.57192    25.374565    5396.9451 
  981500      981.488    563.65694    23.168964    -439.1021   -415.93314    8857.7828    2006.3683   -1685.5598     26252.54    15.671413    13.571922    25.374548     5396.943 
  982000      981.988     582.6868    23.951181   -439.87767   -415.92649    6746.8854    1001.6639   -888.41665    20127.409    15.671415    13.571924     25.37453    5396.9409 
  982500      982.488    540.13012      22.2019   -438.12174   -415.91984    8122.4226    1181.3182   -4116.1197    27302.069    15.671418    13.571926    25.374513    5396.9389 
  983000      982.988    581.97965    23.922114   -439.83436   -415.91225    7634.4545    2739.0979    736.15263    19428.113     15.67142    13.571929    25.374495    5396.9368 
  983500      983.488    563.42292    23.159345   -439.06568   -415.90633     7587.341   -2348.7835    -682.0138     25792.82    15.671422    13.571931    25.374478    5396.9347 
  984000      983.988    548.84933    22.560302   -438.45649   -415.89619    9311.5198    3299.3428   -162.43789    24797.654    15.671425    13.571933     25.37446    5396.9326 
  984500      984.488    557.71793    22.924843   -438.81559   -415.89075    7962.9229    1750.7505   -767.30715    22905.325    15.671427    13.571935    25.374443    5396.9305 
  985000      984.988     574.2575    23.604697   -439.48751   -415.88282    9298.5804   -2182.9514   -903.06362    30981.756    15.671429    13.571937    25.374425    5396.9285 
  985500      985.488    583.71002     23.99324   -439.86936   -415.87612    6791.6552   -3280.6996   -2038.9639    25694.629    15.671432    13.571939    25.374408    5396.9264 
  986000      985.988    561.94559     23.09862    -438.9662   -415.86758    7727.5774     526.7917   -1465.5748    24121.515    15.671434    13.571941     25.37439    5396.9243 
  986500      986.488    581.30361    23.894326   -439.75506   -415.86074     7329.186    1523.5816      360.867    20103.109    15.671436    13.571943    25.374373    5396.9222 
  987000      986.988    571.01233    23.471305   -439.32399   -415.85269    7319.7366   -2558.1128   -1796.2561    26313.579    15.671439    13.571945    25.374355    5396.9202 
  987500      987.488    570.53648    23.451746   -439.29862   -415.84687    8245.7873   -70.920767   -3459.6044    28267.887    15.671441    13.571947    25.374338    5396.9181 
  988000      987.988    548.22709    22.534724   -438.37504   -415.84032    6794.1608    1015.2627    2632.6166    16734.603    15.671444     13.57195     25.37432     5396.916 
  988500      988.488    561.74222     23.09026   -438.92397   -415.83371    7496.2841    1690.8881   -2532.4839    23330.448    15.671446    13.571952    25.374303    5396.9139 
  989000      988.988    553.84942    22.765829   -438.59186   -415.82603    8019.3678    1164.8441   -2223.0945    25116.354    15.671448    13.571954    25.374285    5396.9118 
  989500      989.488    555.79808    22.845928   -438.66614   -415.82021    7827.9616    441.37806    2395.6497    20646.857    15.671451    13.571956    25.374268    5396.9098 
  990000      989.988    598.34083    24.594636   -440.40758   -415.81294    7218.6159    4306.2761   -1004.9225    18354.494    15.671453    13.571958     25.37425    5396.9077 
  990500      990.488    560.68552    23.046825   -438.85163    -415.8048    6947.4802   -3328.9018    -1791.439    25962.781    15.671455     13.57196    25.374233    5396.9056 
  991000      990.988    585.33151    24.059891   -439.85717   -415.79727    9053.7576   -1929.0818   -2014.7663    31105.121    15.671458    13.571962    25.374215    5396.9035 
  991500      991.488    586.14488    24.093325   -439.88375   -415.79042    8942.6543   -712.61008   -2391.4231    29931.996     15.67146    13.571964    25.374198    5396.9015 
  992000      991.988    589.75918    24.241889   -440.02322   -415.78133    7678.0631   -7688.4079    1752.5736    28970.024    15.671462    13.571966     25.37418    5396.8994 
  992500      992.488    589.40234    24.227222   -440.00118   -415.77396    8874.9501    2704.5248    678.96866    23241.357    15.671465    13.571968    25.374163    5396.8973 
  993000      992.988    569.38659     23.40448   -439.17114   -415.76666    7862.7475    1031.4392    -2423.599    24980.402    15.671467    13.571971    25.374145    5396.8952 
  993500      993.488    578.17711    23.765812   -439.52445   -415.75864    8831.3083    3330.2154     1988.427    21175.282    15.671469    13.571973    25.374128    5396.8931 
  994000      993.988    590.44845    24.270222   -440.01879   -415.74857    7355.3628   -752.77778   -2584.2431    25403.109    15.671472    13.571975     25.37411    5396.8911 
  994500      994.488     589.2722    24.221872   -439.96267    -415.7408    6378.2047    -1870.277   -3327.8001    24332.691    15.671474    13.571977    25.374093     5396.889 
  995000      994.988    588.99143    24.210331    -439.9439   -415.73357    7087.3366    832.16957    -3489.239    23919.079    15.671476    13.571979    25.374075    5396.8869 
  995500      995.488    565.28591    23.235922   -438.96045   -415.72453    8381.8044   -1871.1033   -1311.4154    28327.932    15.671479    13.571981    25.374058    5396.8848 
  996000      995.988    581.57709    23.905567   -439.62226   -415.71669    7072.7904   -3255.1534   -1094.1675    25567.692    15.671481    13.571983     25.37404    5396.8828 
  996500      996.488    585.40765    24.063021   -439.77589   -415.71287    7796.7606    1329.8362   -1740.7518    23801.197    15.671483    13.571985    25.374023    5396.8807 
  997000      996.988    542.58001    22.302603   -438.00642   -415.70382     10468.52    496.96239    2028.8403    28879.756    15.671486    13.571987    25.374005    5396.8786 
  997500      997.488    586.53469    24.109348   -439.80593   -415.69658    7552.3748    257.23796   -2777.9382    25177.825    15.671488    13.571989    25.373988    5396.8765 
  998000      997.988    574.77395    23.625926   -439.31367   -415.68774    7738.9391    3064.0351   -2350.9936    22503.776    15.671491    13.571992     25.37397    5396.8744 
  998500      998.488    569.84663     23.42339   -439.10458   -415.68119    7250.5488    573.13924    3129.1515    18049.356    15.671493    13.571994    25.373953    5396.8724 
  999000      998.988    570.81788    23.463312   -439.13526   -415.67195    8524.3784    1867.0047    649.06345    23057.067    15.671495    13.571996    25.373935    5396.8703 
  999500      999.488    582.06059    23.925441   -439.58804    -415.6626    7287.2633   -582.89974   -429.30097    22873.991    15.671498    13.571998    25.373918    5396.8682 
 1000000      999.988    575.94291    23.673976    -439.3278   -415.65382    6118.3246   -7199.8574    -155.2782    25710.109      15.6715       13.572      25.3739    5396.8661 
 1000012         1000    559.84966    23.012467   -438.66656    -415.6541    7491.0395   -2760.8544   -923.43401    26157.407      15.6715       13.572      25.3739    5396.8661 
Loop time of 982.856 on 28 procs for 1000000 steps with 319 atoms

Performance: 87.907 ns/day, 0.273 hours/ns, 1017.443 timesteps/s
87.3% CPU use with 28 MPI tasks x no OpenMP threads

MPI task timing breakdown:
Section |  min time  |  avg time  |  max time  |%varavg| %total
---------------------------------------------------------------
Pair    | 758.65     | 830.85     | 914.41     | 110.6 | 84.53
Neigh   | 0.033132   | 0.055172   | 0.071398   |   5.0 |  0.01
Comm    | 57.639     | 140.58     | 210.49     | 263.3 | 14.30
Output  | 0.10319    | 0.10506    | 0.12447    |   1.2 |  0.01
Modify  | 4.7012     | 6.1058     | 8.0163     |  36.2 |  0.62
Other   |            | 5.16       |            |       |  0.52

Nlocal:    11.3929 ave 15 max 6 min
Histogram: 1 3 1 4 0 3 7 1 2 6
Nghost:    695.714 ave 752 max 663 min
Histogram: 5 5 7 1 2 0 2 2 2 2
Neighs:    731.036 ave 1025 max 375 min
Histogram: 3 1 3 2 1 6 3 1 3 5
FullNghs:  1462.07 ave 1953 max 761 min
Histogram: 1 3 1 4 0 3 7 1 2 6

Total # of neighbors = 40938
Ave neighs/atom = 128.332
Neighbor list builds = 788
Dangerous builds = 0

write_restart   POSCAR_1x1x1.rest

#unfix    1
#undump   1
Total wall time: 0:16:22
