LAMMPS (7 Dec 2015)
#----------- Initialize Simulation ------------ restart01
#processors	2 2 2
units		metal
boundary	p p p     ## periodic boundary condition  on x y z axis ##
atom_style atomic
#atom_modify map array sort 0 0.0

read_data	POSCAR_1x1x1.lammps
  triclinic box = (0 0 0) to (15.2672 13.2218 28.3479) with tilt (-7.6335 0 0)
  2 by 2 by 7 MPI processor grid
  reading atoms ...
  319 atoms

#----------- Define Potential -----------------
pair_style meam
pair_coeff * * MgAlZn.library.meam Mg Al Zn MgAlZn.parameter.meam Mg Al Zn 	#1=Mg 2=Al 3=Zn	#atoms/mass

#----------- Neighbor List --------------------
neighbor 2.0 bin
neigh_modify delay 10 check yes

#--------------  Run a simulation (minimization) ---------------------------------------
minimize       1.0e-4   1.0e-6   100   1000          #結構優化的條件
WARNING: Resetting reneighboring criteria during minimization (../min.cpp:168)
Neighbor list info ...
  2 neighbor list requests
  update every 1 steps, delay 0 steps, check yes
  max neighbors/atom: 2000, page size: 100000
  master list distance cutoff = 8
  ghost atom cutoff = 8
  binsize = 4 -> bins = 6 4 8
Memory usage per processor = 8.02454 Mbytes
Step Temp E_pair E_mol TotEng Press 
       0            0   -430.44146            0   -430.44146   -10679.145 
      14            0   -451.69672            0   -451.69672   -24489.432 
Loop time of 0.0209144 on 28 procs for 14 steps with 319 atoms

91.3% CPU use with 28 MPI tasks x no OpenMP threads

Minimization stats:
  Stopping criterion = energy tolerance
  Energy initial, next-to-last, final = 
        -430.441461622     -451.661417858     -451.696720831
  Force two-norm initial, final = 18.3621 0.822477
  Force max component initial, final = 3.51148 0.193967
  Final line search alpha, max atom move = 0.43951 0.0852505
  Iterations, force evaluations = 14 23

MPI task timing breakdown:
Section |  min time  |  avg time  |  max time  |%varavg| %total
---------------------------------------------------------------
Pair    | 0.016642   | 0.017774   | 0.018804   |   0.4 | 84.98
Neigh   | 0          | 0          | 0          |   0.0 |  0.00
Comm    | 0.0012726  | 0.002259   | 0.0033252  |   1.0 | 10.80
Output  | 0          | 0          | 0          |   0.0 |  0.00
Modify  | 0          | 0          | 0          |   0.0 |  0.00
Other   |            | 0.0008815  |            |       |  4.21

Nlocal:    11.3929 ave 17 max 6 min
Histogram: 2 2 4 2 3 3 7 3 1 1
Nghost:    646.036 ave 698 max 585 min
Histogram: 2 5 2 2 3 2 0 2 6 4
Neighs:    694.393 ave 1085 max 348 min
Histogram: 2 0 6 1 7 3 6 2 0 1
FullNghs:  1388.79 ave 2108 max 722 min
Histogram: 2 2 4 2 3 3 10 0 1 1

Total # of neighbors = 38886
Ave neighs/atom = 121.9
Neighbor list builds = 0
Dangerous builds = 0
velocity all  create 600.0 4928459 #rot yes dist gaussian

#--------------  Run a simulation (Relaxation)  ----------------------------------------
fix  1  all  nvt   temp  600.0  600.0  100				#damping constant
#fix  2  all  npt   temp  393.0  393.0  50 iso 0.0 0.0 1000.0
fix  2  all deform 1 x final 0 15.272 y final 0 13.2259 z final 0 28.3129 xy final -7.6359 units lattice
#fix  3  all  npt   temp  393.0  393.0  50 z 0.0 0.0 1000.0

#variable b equal 1
#fix 2 all efield  0.0  0.0  v_b
#compute pot all pe/atom


#----------- Output --------------------------
thermo	 500
timestep  0.001		#1.0 fs
thermo_style	custom step time temp ke pe etotal press pxx pyy pzz lx ly lz vol

dump 1 all custom 10000 dump.eq id type x y z
dump_modify 1 sort  id

run        1000000	#1000 ps
Neighbor list info ...
  2 neighbor list requests
  update every 1 steps, delay 10 steps, check yes
  max neighbors/atom: 2000, page size: 100000
  master list distance cutoff = 8
  ghost atom cutoff = 8
  binsize = 4 -> bins = 6 4 8
Memory usage per processor = 6.93048 Mbytes
Step Time Temp KinEng PotEng TotEng Press Pxx Pyy Pzz Lx Ly Lz Volume 
      14            0          600    24.662836   -451.69672   -427.03389   -19885.899   -3918.6544    -12330.27   -43408.772      15.2672      13.2218      28.3479    5722.3033 
     500        0.486    324.77613    13.349834   -440.38017   -427.03033   -12732.222    2004.8538   -2060.7584    -38140.76    15.267202    13.221802    28.347883    5722.3016 
    1000        0.986    314.30809    12.919548   -439.94931   -427.02976   -13115.396    1350.4059   -5707.1762   -34989.416    15.267205    13.221804    28.347865    5722.2998 
    1500        1.486    313.02623    12.866857   -439.89591   -427.02906   -12887.811    1101.3869   -5095.2444   -34669.575    15.267207    13.221806    28.347848    5722.2981 
    2000        1.986    299.86146    12.325723   -439.35408   -427.02835   -13478.688    3586.8098   -8317.8877   -35704.985     15.26721    13.221808     28.34783    5722.2963 
    2500        2.486    322.20422    13.244116   -440.27133   -427.02721   -13499.532    3037.8526    -6752.226   -36784.222    15.267212     13.22181    28.347813    5722.2946 
    3000        2.986    322.53657    13.257777   -440.28343   -427.02565   -14304.384    2867.7607   -4857.4306   -40923.483    15.267214    13.221812    28.347795    5722.2928 
    3500        3.486    326.12073    13.405103   -440.42896   -427.02386   -13563.963    2098.9544   -5255.8949   -37534.948    15.267217    13.221814    28.347778    5722.2911 
    4000        3.986    310.52384    12.763997   -439.78509   -427.02109   -12504.125    2948.3721    -6834.034   -33626.713    15.267219    13.221816     28.34776    5722.2893 
    4500        4.486    302.22387    12.422829   -439.44143    -427.0186   -13516.287     2187.466   -4070.3522   -38665.973    15.267222    13.221818    28.347743    5722.2876 
    5000        4.986    318.13816    13.076982   -440.09295   -427.01597   -13186.661    5345.1331   -5585.0824   -39320.034    15.267224     13.22182    28.347725    5722.2859 
    5500        5.486    324.33375     13.33165   -440.34493   -427.01328   -12984.093    4857.1622   -6662.0044   -37147.437    15.267226    13.221822    28.347708    5722.2841 
    6000        5.986    319.43343    13.130223   -440.13984   -427.00962   -14221.572    2165.7754   -6270.0592   -38560.433    15.267229    13.221825     28.34769    5722.2824 
    6500        6.486    320.38102    13.169174   -440.17489   -427.00572   -12474.897    2744.3947   -4234.1932   -35934.894    15.267231    13.221827    28.347673    5722.2806 
    7000        6.986    300.95873    12.370826   -439.37233    -427.0015    -12477.48     6173.676   -4877.1741   -38728.943    15.267234    13.221829    28.347655    5722.2789 
    7500        7.486    312.28964     12.83658   -439.83384   -426.99726   -12200.056    5688.8605   -6342.2493   -35946.779    15.267236    13.221831    28.347638    5722.2771 
    8000        7.986    317.15095    13.036403   -440.02896   -426.99256   -13333.473    5005.3092   -5453.9501   -39551.777    15.267238    13.221833     28.34762    5722.2754 
    8500        8.486    296.61578     12.19231   -439.17951    -426.9872   -11233.424    3701.6104   -3818.6629   -33583.218    15.267241    13.221835    28.347603    5722.2736 
    9000        8.986    305.97999    12.577224   -439.55922     -426.982   -13817.869    2576.1954   -5667.8726   -38361.931    15.267243    13.221837    28.347585    5722.2719 
    9500        9.486    304.77639     12.52775    -439.5042   -426.97645   -13327.865    3917.5126   -4548.0843   -39353.022    15.267246    13.221839    28.347568    5722.2701 
   10000        9.986    318.68868    13.099611   -440.06991    -426.9703   -13177.076    2800.4242   -3892.2189   -38439.433    15.267248    13.221841     28.34755    5722.2684 
   10500       10.486    324.19257    13.325847   -440.29022   -426.96437   -13811.101    3578.2466   -6231.0562   -38780.494     15.26725    13.221843    28.347533    5722.2667 
   11000       10.986     308.9791    12.700501   -439.65824   -426.95774   -13279.629     2839.438   -3475.9607   -39202.366    15.267253    13.221845    28.347515    5722.2649 
   11500       11.486    340.09897    13.979675   -440.93097   -426.95129   -12939.998    2996.8439   -2673.9547   -39142.882    15.267255    13.221847    28.347498    5722.2632 
   12000       11.986    313.01499    12.866395   -439.81011   -426.94371   -12777.588    6080.8876   -5004.7368   -39408.914    15.267258    13.221849     28.34748    5722.2614 
   12500       12.486     318.5517     13.09398   -440.03008    -426.9361   -12159.759    2885.4873   -5720.7284   -33644.037     15.26726    13.221851    28.347463    5722.2597 
   13000       12.986    294.71813    12.114308   -439.04219   -426.92789   -11683.843    5991.9623   -2815.2356   -38228.256    15.267262    13.221853    28.347445    5722.2579 
   13500       13.486    321.04455    13.196448   -440.11708   -426.92063   -14077.208    2137.1688   -5940.9956   -38427.797    15.267265    13.221855    28.347428    5722.2562 
   14000       13.986    317.73414    13.060375   -439.97246   -426.91209   -14002.584    2298.9226   -5575.1766   -38731.497    15.267267    13.221857     28.34741    5722.2544 
   14500       14.486     323.1855    13.284451   -440.18748   -426.90303   -12618.312    5873.6125   -5815.9566   -37912.591     15.26727    13.221859    28.347393    5722.2527 
   15000       14.986    324.90328     13.35506   -440.24973   -426.89467    -13518.97    2911.4727   -5252.5197   -38215.864    15.267272    13.221861    28.347375    5722.2509 
   15500       15.486    319.58478    13.136445   -440.02136   -426.88491    -14077.72    3061.8714   -8023.1791   -37271.853    15.267274    13.221863    28.347358    5722.2492 
   16000       15.986     316.7284    13.019034    -439.8944   -426.87536   -12390.863    5556.3564   -3282.6349   -39446.311    15.267277    13.221866     28.34734    5722.2474 
   16500       16.486    312.37929    12.840265   -439.70559   -426.86533   -13912.693    4809.3159   -6078.9962     -40468.4    15.267279    13.221868    28.347323    5722.2457 
   17000       16.986    306.49987    12.598593   -439.45338   -426.85478   -12711.563    4309.4804   -5419.4597    -37024.71    15.267282     13.22187    28.347305     5722.244 
   17500       17.486    313.98862    12.906416   -439.75072    -426.8443   -13013.837    3196.9768    -6249.631   -35988.857    15.267284    13.221872    28.347288    5722.2422 
   18000       17.986    324.96377    13.357547   -440.19171   -426.83417    -13047.88    3966.9975   -2182.4221   -40928.216    15.267286    13.221874     28.34727    5722.2405 
   18500       18.486      320.704     13.18245   -440.00509   -426.82264   -12417.919    3452.6799   -3743.8814   -36962.556    15.267289    13.221876    28.347253    5722.2387 
   19000       18.986    313.02311    12.866729   -439.67814   -426.81141   -14319.969    3880.6031   -7007.1841   -39833.326    15.267291    13.221878    28.347235     5722.237 
   19500       19.486    317.16662    13.037047   -439.83703   -426.79998   -12930.563    3839.2206   -3455.7821   -39175.126    15.267294     13.22188    28.347218    5722.2352 
   20000       19.986    323.65895    13.303912   -440.09167   -426.78776   -13157.016    2808.7512   -4607.8369   -37671.963    15.267296    13.221882      28.3472    5722.2335 
   20500       20.486    316.39821    13.005462   -439.78097   -426.77551   -11568.453    6461.5047   -4393.2722   -36773.592    15.267298    13.221884    28.347183    5722.2317 
   21000       20.986    317.12541    13.035353   -439.79787   -426.76252   -12840.667       4818.8   -6168.0608   -37172.741    15.267301    13.221886    28.347165      5722.23 
   21500       21.486    308.14127    12.666063    -439.4158   -426.74974   -13756.778    3997.2223   -5072.2151    -40195.34    15.267303    13.221888    28.347148    5722.2282 
   22000       21.986    327.80996    13.474538   -440.21147   -426.73693   -13975.381    6787.2478    -6510.744   -42202.648    15.267306     13.22189     28.34713    5722.2265 
   22500       22.486    305.72493     12.56674   -439.29012   -426.72338   -12037.015     1914.839   -4400.6956   -33625.188    15.267308    13.221892    28.347113    5722.2248 
   23000       22.986    311.87336    12.819469   -439.52881   -426.70934    -13132.85    5373.9922   -6730.4258   -38042.115     15.26731    13.221894    28.347095     5722.223 
   23500       23.486    339.35324    13.949022   -440.64479   -426.69576   -14013.175     3210.194   -4623.0791   -40626.639    15.267313    13.221896    28.347078    5722.2213 
   24000       23.986     310.8397    12.776981   -439.45785   -426.68087   -12279.494    4105.5326   -5843.2459    -35100.77    15.267315    13.221898     28.34706    5722.2195 
   24500       24.486    319.14474    13.118357   -439.78469   -426.66633   -12132.379    3480.8818   -1539.6045   -38338.413    15.267318      13.2219    28.347043    5722.2178 
   25000       24.986    309.22572    12.710638    -439.3621   -426.65146    -11666.28    3938.7996   -2519.6166   -36418.023     15.26732    13.221902    28.347025     5722.216 
   25500       25.486    316.26715    13.000075   -439.63687   -426.63679   -14466.635    6230.9289    -8597.864    -41032.97    15.267322    13.221904    28.347008    5722.2143 
   26000       25.986    316.47569    13.008647   -439.62994   -426.62129   -12467.356    7309.7068   -7109.6089   -37602.166    15.267325    13.221907     28.34699    5722.2125 
   26500       26.486    332.55601    13.669624   -440.27602    -426.6064   -13160.462    4166.4563    -4459.803   -39188.039    15.267327    13.221909    28.346973    5722.2108 
   27000       26.986    316.45454    13.007777   -439.59802   -426.59025   -13505.595    1953.2325   -6004.4834   -36465.534     15.26733    13.221911    28.346955     5722.209 
   27500       27.486    306.92962    12.616258   -439.19021   -426.57395   -11983.456    3948.9155   -5289.8659   -34609.418    15.267332    13.221913    28.346938    5722.2073 
   28000       27.986    327.07641    13.444386   -440.00276   -426.55837    -12814.05      2512.71   -3063.5474   -37891.313    15.267334    13.221915     28.34692    5722.2055 
   28500       28.486    307.49057    12.639315   -439.18046   -426.54115   -12815.993    4398.0877   -5586.2477   -37259.819    15.267337    13.221917    28.346903    5722.2038 
   29000       28.986    316.75694    13.020207   -439.54502   -426.52481   -13219.484    4341.8326   -2341.0873   -41659.197    15.267339    13.221919    28.346885    5722.2021 
   29500       29.486    320.54157    13.175773   -439.68375   -426.50798   -12864.713    2106.1776   -3370.9181   -37329.398    15.267342    13.221921    28.346868    5722.2003 
   30000       29.986    323.45772    13.295641   -439.78693   -426.49129   -12379.365    2779.2355   -4782.2556   -35135.074    15.267344    13.221923     28.34685    5722.1986 
   30500       30.486    328.42899    13.499984   -439.97409    -426.4741   -12023.703    3334.9226   -1472.9062   -37933.127    15.267346    13.221925    28.346833    5722.1968 
   31000       30.986    329.17137    13.530499   -439.98716   -426.45666   -12354.048    3496.5544   -24.963575   -40533.736    15.267349    13.221927    28.346815    5722.1951 
   31500       31.486    323.50359    13.297527   -439.73638   -426.43885   -13007.367    1046.9271   -2661.1696   -37407.859    15.267351    13.221929    28.346798    5722.1933 
   32000       31.986    318.81947    13.104987   -439.52619    -426.4212    -13074.59    1833.0215   -3493.8582   -37562.935    15.267354    13.221931     28.34678    5722.1916 
   32500       32.486    324.08788    13.321544   -439.72471   -426.40317   -13489.204    2648.2219   -3996.8712   -39118.962    15.267356    13.221933    28.346763    5722.1898 
   33000       32.986     324.9467    13.356845   -439.74206   -426.38522   -11184.009    5407.1484   -1899.8157   -37059.361    15.267358    13.221935    28.346745    5722.1881 
   33500       33.486    325.46323    13.378077   -439.74534   -426.36726   -12899.051    780.30862   -3413.8025   -36063.658    15.267361    13.221937    28.346728    5722.1863 
   34000       33.986    324.78263    13.350101   -439.69878   -426.34868   -13168.588    3679.5847   -2777.8862   -40407.463    15.267363    13.221939     28.34671    5722.1846 
   34500       34.486    318.46578    13.090449   -439.42046   -426.33001   -12726.183    4172.7813   -2756.0458   -39595.284    15.267366    13.221941    28.346693    5722.1829 
   35000       34.986    333.46976    13.707183   -440.01893   -426.31175   -12340.234    3350.1249   -4476.6397   -35894.187    15.267368    13.221943    28.346675    5722.1811 
   35500       35.486    321.56314    13.217765   -439.51066    -426.2929   -11815.858    4078.0598   -3703.6707   -35821.962     15.26737    13.221945    28.346658    5722.1794 
   36000       35.986    306.33874     12.59197   -438.86614   -426.27417   -11659.347    3121.1118   -616.21227   -37482.939    15.267373    13.221948     28.34664    5722.1776 
   36500       36.486    317.19316    13.038138    -439.2935   -426.25536   -12138.352    4877.1954   -3555.1521   -37737.101    15.267375     13.22195    28.346623    5722.1759 
   37000       36.986    329.81101    13.556791    -439.7934    -426.2366   -12494.652     4308.697   -4375.7418   -37416.912    15.267378    13.221952    28.346605    5722.1741 
   37500       37.486    311.72447    12.813349   -439.03033   -426.21699   -11725.955     3016.323   -900.52534   -37293.663     15.26738    13.221954    28.346588    5722.1724 
   38000       37.986    319.74423    13.142999   -439.34081   -426.19782   -11683.261    1539.0174   -1026.6865   -35562.113    15.267382    13.221956     28.34657    5722.1706 
   38500       38.486     337.8883    13.888806   -440.06763   -426.17883   -13322.838    2700.0779   -5013.3539   -37655.238    15.267385    13.221958    28.346553    5722.1689 
   39000       38.986    328.17246    13.489439   -439.64908   -426.15964   -11900.775    2046.1642   -2080.4123   -35668.076    15.267387     13.22196    28.346535    5722.1671 
   39500       39.486    327.72531    13.471059   -439.61147   -426.14041   -13046.173    1131.4465   -2675.4641     -37594.5     15.26739    13.221962    28.346518    5722.1654 
   40000       39.986    337.00237     13.85239   -439.97364   -426.12125   -12464.081    1620.1365   -5329.7109   -33682.668    15.267392    13.221964      28.3465    5722.1636 
   40500       40.486    330.88302    13.600856    -439.7027   -426.10185   -12859.149    2028.8145   -2292.0083   -38314.253    15.267394    13.221966    28.346483    5722.1619 
   41000       40.986    325.38055    13.374678   -439.45749   -426.08281   -12246.578     1936.341   -1408.4742   -37267.601    15.267397    13.221968    28.346465    5722.1602 
   41500       41.486    328.85532    13.517508    -439.5807   -426.06319   -13649.753    914.24886   -3742.6057   -38120.901    15.267399     13.22197    28.346448    5722.1584 
   42000       41.986    338.42649    13.910928   -439.95531   -426.04438   -13053.227     521.1678   -3824.0982   -35856.751    15.267402    13.221972     28.34643    5722.1567 
   42500       42.486    322.54879     13.25828   -439.28335   -426.02507   -13070.256    1184.1099   -2488.0364   -37906.842    15.267404    13.221974    28.346413    5722.1549 
   43000       42.986    329.68581    13.551645    -439.5573   -426.00565   -12082.164    1761.2544   -1308.1449   -36699.602    15.267406    13.221976    28.346395    5722.1532 
   43500       43.486    321.59311    13.218997   -439.20516   -425.98616   -11809.582    4456.5156   -4143.0929   -35742.167    15.267409    13.221978    28.346378    5722.1514 
   44000       43.986    335.01601    13.770741   -439.73804    -425.9673   -12711.421    1852.7232   -4784.7254   -35202.262    15.267411     13.22198     28.34636    5722.1497 
   44500       44.486    340.26602    13.986541   -439.93554     -425.949   -12212.616    929.91856   -2757.0668   -34810.699    15.267414    13.221982    28.346343    5722.1479 
   45000       44.986    362.19974    14.888121   -440.81839   -425.93027   -13190.452    910.74476   -4307.2788   -36174.822    15.267416    13.221984    28.346325    5722.1462 
   45500       45.486    322.52569     13.25733   -439.16806   -425.91073   -12593.385    685.62645   -2999.4107   -35466.371    15.267418    13.221986    28.346308    5722.1444 
   46000       45.986    332.99459    13.687651   -439.57979   -425.89214    -12607.59    1568.6422     -2788.14   -36603.272    15.267421    13.221989     28.34629    5722.1427 
   46500       46.486     326.0212    13.401012   -439.27457   -425.87356   -12470.491    3348.5086   -1582.3328    -39177.65    15.267423    13.221991    28.346273    5722.1409 
   47000       46.986    336.73639    13.841457   -439.69652   -425.85506   -13102.042    35.976743   -2150.3094   -37191.793    15.267426    13.221993    28.346255    5722.1392 
   47500       47.486    331.67568    13.633438   -439.46971   -425.83627   -12581.284    1299.1033   -1160.6613   -37882.293    15.267428    13.221995    28.346238    5722.1375 
   48000       47.986    328.77754    13.514311    -439.3322   -425.81789   -13231.573    1847.0531    -3872.597   -37669.176     15.26743    13.221997     28.34622    5722.1357 
   48500       48.486      337.534    13.874243   -439.67411   -425.79987   -11234.982    3506.3544   -1603.5803   -35607.721    15.267433    13.221999    28.346203     5722.134 
   49000       48.986    341.34421     14.03086   -439.81216    -425.7813   -11512.222    2795.2006   -1903.1034   -35428.764    15.267435    13.222001    28.346185    5722.1322 
   49500       49.486    346.42155    14.239563   -440.00317   -425.76361   -13370.367    233.12117   -3503.4657   -36840.758    15.267438    13.222003    28.346168    5722.1305 
   50000       49.986    319.28964    13.124313   -438.86944   -425.74513   -12912.674   -338.87371   -2016.4638   -36382.685     15.26744    13.222005     28.34615    5722.1287 
   50500       50.486    344.01699    14.140724   -439.86827   -425.72755   -12571.959    972.54812   -1878.9545   -36809.471    15.267442    13.222007    28.346133     5722.127 
   51000       50.986     323.9744    13.316879   -439.02623   -425.70935   -12061.375    1689.2807    1523.3912   -39396.798    15.267445    13.222009    28.346115    5722.1252 
   51500       51.486    332.31116    13.659559   -439.35144   -425.69188   -12103.284    1282.1724   -4230.8153   -33361.208    15.267447    13.222011    28.346098    5722.1235 
   52000       51.986    342.11432    14.062515   -439.73653   -425.67401   -12367.331    3417.7189   -3068.9248   -37450.786     15.26745    13.222013     28.34608    5722.1217 
   52500       52.486    348.08841    14.308079   -439.96491   -425.65683   -13356.557      2984.69   -4264.9955   -38789.367    15.267452    13.222015    28.346063      5722.12 
   53000       52.986    335.11367    13.774756   -439.41376     -425.639   -11962.048    2736.1772    -2800.865   -35821.456    15.267454    13.222017    28.346045    5722.1183 
   53500       53.486    344.93869    14.178611   -439.79994   -425.62133     -13346.8    655.15059   -2300.4267   -38395.123    15.267457    13.222019    28.346028    5722.1165 
   54000       53.986    323.25957    13.287496   -438.89175   -425.60425   -14250.206   -1669.2588   -2856.8151   -38224.544    15.267459    13.222021     28.34601    5722.1148 
   54500       54.486    359.58993    14.780845   -440.36844   -425.58759   -12075.058    1745.2574   -3381.9423   -34588.488    15.267462    13.222023    28.345993     5722.113 
   55000       54.986    332.00909    13.647143   -439.21731   -425.57017    -11802.36    2590.1359   -1748.8207   -36248.395    15.267464    13.222025    28.345975    5722.1113 
   55500       55.486    325.26436    13.369902   -438.92273   -425.55282   -11752.034     5252.322    -1720.823     -38787.6    15.267466    13.222027    28.345958    5722.1095 
   56000       55.986    338.88091    13.929607    -439.4659   -425.53629   -13057.042    1321.3497   -1864.9049   -38627.571    15.267469     13.22203     28.34594    5722.1078 
   56500       56.486    325.00538    13.359257   -438.87819   -425.51893   -12242.016    1949.7482   -2851.4169    -35824.38    15.267471    13.222032    28.345923     5722.106 
   57000       56.986    338.02932    13.894602   -439.39716   -425.50256   -11957.606    3005.3422   -2665.5924   -36212.568    15.267474    13.222034    28.345905    5722.1043 
   57500       57.486    341.05968    14.019165    -439.5054   -425.48624   -13408.672    2691.5422   -2469.2855   -40448.271    15.267476    13.222036    28.345888    5722.1025 
   58000       57.986    325.42891    13.376666   -438.84618   -425.46952   -12657.832    1458.6599   -4086.9138   -35345.244    15.267478    13.222038     28.34587    5722.1008 
   58500       58.486    340.33072    13.989201   -439.44252   -425.45332   -12694.978    795.04364   -5036.0481   -33843.929    15.267481     13.22204    28.345853     5722.099 
   59000       58.986    346.51169    14.243268   -439.67967    -425.4364   -14266.468    895.88178   -5071.6442    -38623.64    15.267483    13.222042    28.345835    5722.0973 
   59500       59.486    326.88841    13.436659   -438.85715   -425.42049   -11611.216    742.84906    -16.71257   -35559.783    15.267486    13.222044    28.345818    5722.0956 
   60000       59.986    335.68129    13.798087   -439.20211   -425.40402   -11368.844    4810.0794   -3845.6389   -35070.974    15.267488    13.222046      28.3458    5722.0938 
   60500       60.486    333.78677    13.720214   -439.10791   -425.38769   -13421.946      1191.54   -4795.0243   -36662.353     15.26749    13.222048    28.345783    5722.0921 
   61000       60.986    348.58365    14.328435   -439.69989   -425.37145   -13641.864    2665.2077   -6902.0791   -36688.721    15.267493     13.22205    28.345765    5722.0903 
   61500       61.486    332.34789    13.661069     -439.016   -425.35493   -12683.601    2225.7109   -1952.3658   -38324.149    15.267495    13.222052    28.345748    5722.0886 
   62000       61.986    336.82605    13.845142   -439.18463   -425.33949   -12651.594    3606.7488   -3549.0623    -38012.47    15.267498    13.222054     28.34573    5722.0868 
   62500       62.486    342.78084    14.089912   -439.41345   -425.32354   -12662.518    2208.4259   -5815.6558   -34380.323      15.2675    13.222056    28.345713    5722.0851 
   63000       62.986    344.06135    14.142548   -439.45022   -425.30767   -12196.371    3812.9429    -4141.387    -36260.67    15.267502    13.222058    28.345695    5722.0833 
   63500       63.486    344.46504    14.159141   -439.45062   -425.29148   -11464.875    2244.0912   -1894.3525   -34744.363    15.267505     13.22206    28.345678    5722.0816 
   64000       63.986    336.32501    13.824547   -439.10021   -425.27566   -11990.713    1727.1723   -1456.9852   -36242.326    15.267507    13.222062     28.34566    5722.0798 
   64500       64.486    355.40137    14.608676   -439.86881   -425.26013   -12766.779    840.71277   -4256.2085    -34884.84     15.26751    13.222064    28.345643    5722.0781 
   65000       64.986    342.95374    14.097019   -439.34053   -425.24351   -11825.935    4450.4857   -3842.3053   -36085.985    15.267512    13.222066    28.345625    5722.0763 
   65500       65.486    360.08156    14.801054   -440.02908   -425.22802   -12341.647    4567.4288   -3296.8469   -38295.523    15.267514    13.222068    28.345608    5722.0746 
   66000       65.986    339.72444     13.96428   -439.17659   -425.21231   -12878.709    1723.6296   -4018.6626   -36341.093    15.267517    13.222071     28.34559    5722.0729 
   66500       66.486    318.19686    13.079395   -438.27595   -425.19656   -12761.998    1059.2029   -3981.9424   -35363.253    15.267519    13.222073    28.345573    5722.0711 
   67000       66.986    344.80362    14.173058   -439.35395   -425.18089   -12639.391    2983.6066   -4666.5753   -36235.203    15.267522    13.222075    28.345555    5722.0694 
   67500       67.486    345.50672    14.201959   -439.36718   -425.16522   -12653.159     2037.324   -3065.4787   -36931.321    15.267524    13.222077    28.345538    5722.0676 
   68000       67.986    348.54618    14.326895   -439.47638   -425.14948   -11255.904    3810.7081   -4224.0777   -33354.344    15.267526    13.222079     28.34552    5722.0659 
   68500       68.486    327.10377    13.445511   -438.57895   -425.13344   -11053.003    3038.7789   -927.01001   -35270.779    15.267529    13.222081    28.345503    5722.0641 
   69000       68.986     357.2105     14.68304   -439.80132   -425.11828   -12586.074    5140.3726   -3940.3513   -38958.245    15.267531    13.222083    28.345485    5722.0624 
   69500       69.486    348.81138    14.337796   -439.43987   -425.10208   -12323.304    1987.7679   -1746.8681   -37210.811    15.267534    13.222085    28.345468    5722.0606 
   70000       69.986    338.26271    13.904196   -438.99041   -425.08621   -12643.595    2898.2531   -4711.7904   -36117.248    15.267536    13.222087     28.34545    5722.0589 
   70500       70.486    332.90462    13.683953   -438.75445    -425.0705   -11366.928     4644.026    -3000.274   -35744.535    15.267538    13.222089    28.345433    5722.0571 
   71000       70.986    336.44786    13.829597   -438.88436   -425.05477   -12747.824      3203.23   -4384.4311    -37062.27    15.267541    13.222091    28.345415    5722.0554 
   71500       71.486     341.2701    14.027814   -439.06708   -425.03926   -13057.666    2539.6892   -4414.4374    -37298.25    15.267543    13.222093    28.345398    5722.0536 
   72000       71.986    330.98573    13.605078   -438.62825   -425.02317   -12779.076    1910.6236   -1575.2991   -38672.552    15.267546    13.222095     28.34538    5722.0519 
   72500       72.486    335.68342    13.798175    -438.8053   -425.00713   -11421.858    2227.4485   -3145.5471   -33347.476    15.267548    13.222097    28.345363    5722.0502 
   73000       72.986    343.78145    14.131042   -439.12226   -424.99122   -10969.797    2462.3382   -466.12487   -34905.603     15.26755    13.222099    28.345345    5722.0484 
   73500       73.486    344.87803    14.176117   -439.15137   -424.97525   -11912.633    3685.2502   -3407.7167   -36015.432    15.267553    13.222101    28.345328    5722.0467 
   74000       73.986    347.24089    14.273242   -439.23233   -424.95909   -12158.947    3955.1091   -1768.5735   -38663.376    15.267555    13.222103     28.34531    5722.0449 
   74500       74.486    348.60421     14.32928   -439.27252   -424.94324   -11436.774    2380.4171   -1065.5699   -35625.169    15.267558    13.222105    28.345293    5722.0432 
   75000       74.986    336.80927    13.844453   -438.77127   -424.92682    -12730.17    1454.3299   -1158.8031   -38486.037     15.26756    13.222107    28.345275    5722.0414 
   75500       75.486    345.62696    14.206901   -439.11815   -424.91124   -12606.232    2436.8221   -1170.4393    -39085.08    15.267562    13.222109    28.345258    5722.0397 
   76000       75.986    355.42871      14.6098   -439.50504   -424.89524   -12823.909    2107.2551   -5464.8566   -35114.125    15.267565    13.222112     28.34524    5722.0379 
   76500       76.486    354.80354    14.584102   -439.46281   -424.87871   -11564.905    3683.3374   -3023.2409    -35354.81    15.267567    13.222114    28.345223    5722.0362 
   77000       76.986    354.91912    14.588853   -439.45125    -424.8624   -12098.933    1263.1877   -2492.3346   -35067.651     15.26757    13.222116    28.345205    5722.0344 
   77500       77.486    331.43935    13.623724    -438.4697   -424.84598   -12836.474    3456.0787   -4553.0683   -37412.433    15.267572    13.222118    28.345188    5722.0327 
   78000       77.986     346.4389    14.240276   -439.07026   -424.82998   -12677.612     5300.856   -4894.6669   -38439.026    15.267574     13.22212     28.34517     5722.031 
   78500       78.486    350.36951    14.401843   -439.21509   -424.81325   -11395.389    5069.0878   -562.44242   -38692.812    15.267577    13.222122    28.345153    5722.0292 
   79000       78.986    344.84805    14.174885   -438.97144   -424.79655   -10864.622    1736.9234   -1243.3473   -33087.441    15.267579    13.222124    28.345135    5722.0275 
   79500       79.486    361.06063    14.841298   -439.62153   -424.78023   -11979.429    1290.9756   -2577.2901   -34651.973    15.267582    13.222126    28.345118    5722.0257 
   80000       79.986    346.34306    14.236337   -439.00023   -424.76389    -11932.27    1144.8498   -1031.6549   -35910.005    15.267584    13.222128      28.3451     5722.024 
   80500       80.486     334.0303    13.730224     -438.477   -424.74678   -10916.096    4262.7571   -1063.5859    -35947.46    15.267586     13.22213    28.345083    5722.0222 
   81000       80.986    330.94349    13.603341   -438.33237   -424.72903   -11873.615    1547.6033   -386.08217   -36782.366    15.267589    13.222132    28.345065    5722.0205 
   81500       81.486    334.20553    13.737427   -438.45027   -424.71284   -11806.033    2936.4737   -2906.5645   -35448.008    15.267591    13.222134    28.345048    5722.0187 
   82000       81.986    329.18926    13.531234   -438.22716   -424.69593   -11537.359    3210.0195   -1951.9072   -35870.188    15.267594    13.222136     28.34503     5722.017 
   82500       82.486    354.63424    14.577143   -439.25591   -424.67877   -11664.717    4359.1812   -2314.0463   -37039.285    15.267596    13.222138    28.345013    5722.0152 
   83000       82.986    344.25076    14.150333    -438.8117   -424.66136   -12723.139    2955.8091   -3194.0358   -37931.192    15.267598     13.22214    28.344995    5722.0135 
   83500       83.486    348.94662    14.343355   -438.98779   -424.64443   -11338.661    5169.7633   -2548.5121   -36637.234    15.267601    13.222142    28.344978    5722.0117 
   84000       83.986    310.23935    12.752303     -437.379    -424.6267   -11142.776      3534.39   -873.90844    -36088.81    15.267603    13.222144     28.34496      5722.01 
   84500       84.486    328.07726    13.485526   -438.09519   -424.60966   -12380.647    1678.3447   -3651.8748   -35168.412    15.267606    13.222146    28.344943    5722.0083 
   85000       84.986    348.93505     14.34288   -438.93591   -424.59303   -12285.556    2549.0077   -4953.7952   -34451.881    15.267608    13.222148    28.344925    5722.0065 
   85500       85.486    351.17812    14.435081   -439.01063   -424.57554   -12281.449    2246.9153   -1613.4071   -37477.855     15.26761     13.22215    28.344908    5722.0048 
   86000       85.986    356.07186    14.636236   -439.19459   -424.55835   -13329.294    2532.6787   -3767.9743   -38752.585    15.267613    13.222153     28.34489     5722.003 
   86500       86.486    355.44278    14.610378   -439.15057   -424.54019   -13297.718    2250.2639   -3725.8606   -38417.557    15.267615    13.222155    28.344873    5722.0013 
   87000       86.986    347.98252    14.303726   -438.82631   -424.52258   -11994.931    2804.3446   -27.919274   -38761.219    15.267618    13.222157    28.344855    5721.9995 
   87500       87.486    354.32609    14.564477   -439.06941   -424.50493   -11806.847     2728.477   -1703.3807   -36445.637     15.26762    13.222159    28.344838    5721.9978 
   88000       87.986    337.11072    13.856844   -438.34323   -424.48638    -12420.56    3554.5919   -3571.2393   -37245.033    15.267622    13.222161     28.34482     5721.996 
   88500       88.486    340.05291    13.977782   -438.44624   -424.46846   -13102.859    2701.4332   -2912.9435   -39097.065    15.267625    13.222163    28.344803    5721.9943 
   89000       88.986    350.40531    14.403314   -438.85396   -424.45064   -11794.867    2476.1773   -3006.0606   -34854.717    15.267627    13.222165    28.344785    5721.9925 
   89500       89.486     323.6495    13.303524   -437.73516   -424.43164   -12172.372    830.58207   -517.87815    -36829.82     15.26763    13.222167    28.344768    5721.9908 
   90000       89.986    352.67097    14.496444   -438.91014    -424.4137    -12525.16    2872.7953   -3480.1099   -36968.166    15.267632    13.222169     28.34475     5721.989 
   90500       90.486    355.92867     14.63035   -439.02558   -424.39523   -11878.157    3328.2384   -3988.4405   -34974.268    15.267634    13.222171    28.344733    5721.9873 
   91000       90.986       356.41    14.650135   -439.02679   -424.37665   -11972.052    3037.4391   -312.29686   -38641.299    15.267637    13.222173    28.344715    5721.9856 
   91500       91.486    340.75469    14.006628   -438.36469   -424.35807   -11436.915    5101.9554   -1196.0615   -38216.638    15.267639    13.222175    28.344698    5721.9838 
   92000       91.986     349.5092     14.36648   -438.70592   -424.33944   -12692.487    1925.1484   -1267.5773   -38735.033    15.267642    13.222177     28.34468    5721.9821 
   92500       92.486    339.90369    13.971648   -438.29203   -424.32038   -11325.596    3534.6428    -3784.963   -33726.468    15.267644    13.222179    28.344663    5721.9803 
   93000       92.986    358.77223    14.747234   -439.04902   -424.30178   -11824.616   -468.44633   -84.644608   -34920.757    15.267646    13.222181    28.344645    5721.9786 
   93500       93.486    377.62792    15.522292   -439.80566   -424.28337    -11875.29     4900.062   -1426.9057   -39099.025    15.267649    13.222183    28.344628    5721.9768 
   94000       93.986    343.77687    14.130854   -438.39487   -424.26401    -10658.94    3304.1692    177.29649   -35458.287    15.267651    13.222185     28.34461    5721.9751 
   94500       94.486     338.0701    13.896279   -438.14106   -424.24478   -12922.249    3540.2977   -4470.2629   -37836.782    15.267654    13.222187    28.344593    5721.9733 
   95000       94.986    340.31545    13.988573   -438.21435   -424.22577    -12254.11     3148.684   -462.30628   -39448.706    15.267656    13.222189    28.344575    5721.9716 
   95500       95.486    363.16582    14.927832   -439.13429   -424.20646   -12779.457    2556.2234    -3827.683   -37066.913    15.267658    13.222191    28.344558    5721.9698 
   96000       95.986    383.58964    15.767347   -439.95493   -424.18758   -11596.674    3438.3408   -3610.3863   -34617.975    15.267661    13.222194     28.34454    5721.9681 
   96500       96.486    322.13966    13.241463    -437.4079   -424.16644   -11454.132    993.14291   -1644.5059   -33711.034    15.267663    13.222196    28.344523    5721.9663 
   97000       96.986     360.2914    14.809679   -438.95742   -424.14774   -12787.424    4407.8364   -3125.4245   -39644.683    15.267666    13.222198    28.344505    5721.9646 
   97500       97.486    350.34617    14.400883   -438.52912   -424.12824   -11216.677    5712.9186    -2224.217   -37138.731    15.267668      13.2222    28.344488    5721.9629 
   98000       97.986    363.06756    14.923792   -439.03235   -424.10856   -11473.458    3527.7155   -2238.6576   -35709.432     15.26767    13.222202     28.34447    5721.9611 
   98500       98.486    347.75749    14.294477   -438.38325   -424.08878       -12702    2381.5632   -5377.3317   -35110.233    15.267673    13.222204    28.344453    5721.9594 
   99000       98.986    358.65312    14.742338   -438.81136   -424.06902   -11032.687    3348.5805   -1406.6956   -35039.947    15.267675    13.222206    28.344435    5721.9576 
   99500       99.486    355.71815    14.621697    -438.6706    -424.0489   -11398.667    1880.1701    138.84483   -36215.016    15.267678    13.222208    28.344418    5721.9559 
  100000       99.986    366.52448    15.065888   -439.09488   -424.02899   -13077.267    1639.2648   -2998.9709   -37872.095     15.26768     13.22221      28.3444    5721.9541 
  100500      100.486    363.19917    14.929202   -438.93787   -424.00867   -12070.675     4690.363   -2450.5959   -38451.794    15.267682    13.222212    28.344383    5721.9524 
  101000      100.986    368.43656    15.144484   -439.13405   -423.98957   -12845.083    2820.0918   -4400.9165   -36954.423    15.267685    13.222214    28.344365    5721.9506 
  101500      101.486    365.25835    15.013844   -438.98312   -423.96928   -11722.579    4041.3643   -3270.1632   -35938.938    15.267687    13.222216    28.344348    5721.9489 
  102000      101.986    339.32093    13.947694   -437.89613   -423.94844   -11253.297    3583.7475   -656.11081   -36687.527     15.26769    13.222218     28.34433    5721.9471 
  102500      102.486    331.72667    13.635534   -437.56339   -423.92786   -11007.228    2278.7046    1164.1652   -36464.554    15.267692     13.22222    28.344313    5721.9454 
  103000      102.986    372.45832    15.309797   -439.21847   -423.90868   -12412.237    2055.0152   -1171.1531   -38120.572    15.267694    13.222222    28.344295    5721.9436 
  103500      103.486    336.41283    13.828157   -437.71555    -423.8874   -11250.459     4420.343   -3343.0945   -34828.626    15.267697    13.222224    28.344278    5721.9419 
  104000      103.986    362.65934    14.907013   -438.77398   -423.86697    -11936.65    2676.6715   -2143.6677   -36342.954    15.267699    13.222226     28.34426    5721.9402 
  104500      104.486    350.19572    14.394699   -438.24059   -423.84589   -11877.301    3018.9518   -2294.4639   -36356.392    15.267702    13.222228    28.344243    5721.9384 
  105000      104.986    325.58717    13.383171   -437.20809   -423.82492   -12661.002    2678.0393   -3700.4772   -36960.568    15.267704     13.22223    28.344225    5721.9367 
  105500      105.486    353.91564    14.547606     -438.352   -423.80439   -12439.362    3148.2097   -4293.0885   -36173.206    15.267706    13.222232    28.344208    5721.9349 
  106000      105.986    371.39521    15.266099   -439.04983   -423.78374   -12279.716     1800.273   -3283.5805    -35355.84    15.267709    13.222235     28.34419    5721.9332 
  106500      106.486     359.1274    14.761833    -438.5245   -423.76266   -13177.977    3266.2242   -6563.5149   -36236.641    15.267711    13.222237    28.344173    5721.9314 
  107000      106.986    344.82119     14.17378   -437.91535   -423.74157   -10828.172     3930.481   -179.28813   -36235.709    15.267714    13.222239    28.344155    5721.9297 
  107500      107.486    325.73572    13.389278   -437.10948    -423.7202   -9519.8198    3825.7337    136.95942   -32522.152    15.267716    13.222241    28.344138    5721.9279 
  108000      107.986     351.9389    14.466352   -438.16654   -423.70019   -11478.333    4979.9942   -3060.8035    -36354.19    15.267718    13.222243     28.34412    5721.9262 
  108500      108.486    347.12227    14.268366   -437.94667   -423.67831   -11531.983    1469.3505   -321.34162   -35743.958    15.267721    13.222245    28.344103    5721.9244 
  109000      108.986    362.73679    14.910196   -438.56774   -423.65755   -11772.248    3184.2191   -489.04223   -38011.922    15.267723    13.222247    28.344085    5721.9227 
  109500      109.486    380.29185    15.631792   -439.26809    -423.6363   -10746.277    5072.0458   -1961.9405   -35348.937    15.267726    13.222249    28.344068    5721.9209 
  110000      109.986    359.48337    14.776466   -438.39009   -423.61362   -11125.955    3095.1405   -480.43522   -35992.571    15.267728    13.222251     28.34405    5721.9192 
  110500      110.486    362.11033    14.884446   -438.47722   -423.59278   -12395.642    3443.2946   -4400.7726   -36229.447     15.26773    13.222253    28.344033    5721.9175 
  111000      110.986    356.59621     14.65779   -438.22853   -423.57074    -11901.61    1511.8699   -472.26067   -36744.438    15.267733    13.222255    28.344015    5721.9157 
  111500      111.486     390.9554    16.070115   -439.61961   -423.54949   -10910.099    2285.5313   -777.38976   -34238.439    15.267735    13.222257    28.343998     5721.914 
  112000      111.986    385.26942    15.836394   -439.36421   -423.52782   -11742.849    1325.5381    154.56701   -36708.651    15.267738    13.222259     28.34398    5721.9122 
  112500      112.486    358.78172    14.747624   -438.25331   -423.50569    -12201.26    2388.2244   -3031.1594   -35960.845     15.26774    13.222261    28.343963    5721.9105 
  113000      112.986    358.94641    14.754394   -438.23845   -423.48405   -11539.201    2933.4722    1956.7104   -39507.786    15.267742    13.222263    28.343945    5721.9087 
  113500      113.486    351.67485    14.455499   -437.91756   -423.46206   -11648.211    1457.0253    538.22309   -36939.882    15.267745    13.222265    28.343928     5721.907 
  114000      113.986    367.66411    15.112733   -438.55308   -423.44035   -11593.077    3965.4289      -1591.9   -37152.758    15.267747    13.222267     28.34391    5721.9052 
  114500      114.486     356.4311    14.651003   -438.06938   -423.41838   -12368.895    1124.3445   -2502.2041   -35728.826     15.26775    13.222269    28.343893    5721.9035 
  115000      114.986    377.90529    15.533694   -438.93036   -423.39666   -11527.654    4545.1743   -837.69282   -38290.444    15.267752    13.222271    28.343875    5721.9017 
  115500      115.486    346.73345    14.252383   -437.62597   -423.37359   -11474.071    1859.6551    -1275.012   -35006.856    15.267754    13.222273    28.343858       5721.9 
  116000      115.986    372.84542    15.325709   -438.67833   -423.35262   -11384.222    2960.5025   -2413.0456   -34700.123    15.267757    13.222276     28.34384    5721.8982 
  116500      116.486    367.13081    15.090811   -438.42122   -423.33041   -11805.684     1722.152    -2536.402   -34602.802    15.267759    13.222278    28.343823    5721.8965 
  117000      116.986    359.12008    14.761532   -438.06956   -423.30803   -11723.818    2599.3834   -1971.2758   -35799.561    15.267762     13.22228    28.343805    5721.8948 
  117500      117.486    371.53257    15.271745   -438.55795   -423.28621   -11134.844    3987.1839   -2015.2011   -35376.514    15.267764    13.222282    28.343788     5721.893 
  118000      117.986    364.83261    14.996344   -438.25968   -423.26333   -11036.646    3755.5521   -37.624093   -36827.865    15.267766    13.222284     28.34377    5721.8913 
  118500      118.486    361.24092    14.848709   -438.08943   -423.24072   -11239.441     3308.902   -1887.6534   -35139.571    15.267769    13.222286    28.343753    5721.8895 
  119000      118.986    364.04373    14.963918   -438.18195   -423.21804   -10173.937    3848.6151   -83.475406    -34286.95    15.267771    13.222288    28.343735    5721.8878 
  119500      119.486    367.06291     15.08802   -438.28371   -423.19569   -11271.081    4022.2977   -1936.2302   -35899.311    15.267774     13.22229    28.343718     5721.886 
  120000      119.986    367.94807    15.124405   -438.29766   -423.17325   -12133.114    3447.8883   -2567.5829   -37279.649    15.267776    13.222292      28.3437    5721.8843 
  120500      120.486    360.33259    14.811372   -437.96148   -423.15011   -11879.983    4877.4644   -2065.0891   -38452.325    15.267778    13.222294    28.343683    5721.8825 
  121000      120.986    380.64309     15.64623   -438.77372   -423.12749   -11971.494      1751.44   -1868.7989   -35797.122    15.267781    13.222296    28.343665    5721.8808 
  121500      121.486    359.77628    14.788505   -437.89307   -423.10457   -9489.9472    3300.4213   -1612.5813   -30157.682    15.267783    13.222298    28.343648     5721.879 
  122000      121.986     373.7887    15.364482   -438.44653   -423.08205   -12251.969    1458.7018   -249.28253   -37965.327    15.267786      13.2223     28.34363    5721.8773 
  122500      122.486    366.84478    15.079054   -438.13853   -423.05948   -12287.906    2847.6382   -1359.6354   -38351.721    15.267788    13.222302    28.343613    5721.8755 
  123000      122.986     337.5762    13.875977   -436.91226   -423.03629   -10859.367    5096.2788   -2483.4138   -35190.966     15.26779    13.222304    28.343595    5721.8738 
  123500      123.486    369.46699    15.186839   -438.20042   -423.01358   -10636.615    4347.9361    -2517.946   -33739.835    15.267793    13.222306    28.343578     5721.872 
  124000      123.986    365.84665    15.038026   -438.02909   -422.99106   -11717.947    2843.9617   -2009.6842   -35988.117    15.267795    13.222308     28.34356    5721.8703 
  124500      124.486    356.84568    14.668044   -437.63578   -422.96774    -10257.35    4755.7816   -122.01686   -35405.816    15.267798     13.22231    28.343543    5721.8686 
  125000      124.986     360.5092    14.818632   -437.76352   -422.94489   -9863.6698    4104.1191   -3540.0804   -30155.048      15.2678    13.222312    28.343525    5721.8668 
  125500      125.486    364.83804    14.996568   -437.91855   -422.92198   -11611.395    5517.8739    -1993.649   -38358.409    15.267802    13.222314    28.343508    5721.8651 
  126000      125.986    369.78665    15.199979   -438.09867   -422.89869   -11443.897    1850.9332   -685.78812   -35496.837    15.267805    13.222317     28.34349    5721.8633 
  126500      126.486    391.67098    16.099528   -438.97533    -422.8758   -11798.999    2076.9638   -2971.6719    -34502.29    15.267807    13.222319    28.343473    5721.8616 
  127000      126.986    389.21962    15.998766   -438.85153   -422.85277   -12910.978    2735.8216   -4212.5619   -37256.193     15.26781    13.222321    28.343455    5721.8598 
  127500      127.486    372.81922    15.324632   -438.15394   -422.82931   -10040.633    4923.9056   -1974.4851   -33071.321    15.267812    13.222323    28.343438    5721.8581 
  128000      127.986     361.3356    14.852601    -437.6588    -422.8062   -10964.018    3550.3689    -2162.486   -34279.938    15.267814    13.222325     28.34342    5721.8563 
  128500      128.486    372.46347    15.310009    -438.0935   -422.78349   -10946.796    5267.6261   -3929.4495   -34178.565    15.267817    13.222327    28.343403    5721.8546 
  129000      128.986    355.44292    14.610384   -437.36998    -422.7596   -9910.8721    5699.4153   -117.88599   -35314.146    15.267819    13.222329    28.343385    5721.8528 
  129500      129.486    394.28065    16.206798   -438.94376   -422.73696   -11353.592    3852.3849   -422.44208   -37490.718    15.267822    13.222331    28.343368    5721.8511 
  130000      129.986    391.37207    16.087242   -438.80078   -422.71354   -12299.307    3002.9124   -2821.2419   -37079.593    15.267824    13.222333     28.34335    5721.8493 
  130500      130.486    388.52311    15.970136   -438.66039   -422.69025   -11802.284    2615.3586   -2759.1149   -35263.095    15.267826    13.222335    28.343333    5721.8476 
  131000      130.986    381.26585    15.671829   -438.33827   -422.66644    -10927.03    3751.0831   -1692.6795   -34839.493    15.267829    13.222337    28.343315    5721.8459 
  131500      131.486    356.22057    14.642349   -437.28529   -422.64294   -10869.571    1416.5148   -1136.2992    -32888.93    15.267831    13.222339    28.343298    5721.8441 
  132000      131.986    366.16767    15.051222   -437.67095   -422.61973   -12230.979    1114.5299    -5105.467   -32701.999    15.267834    13.222341     28.34328    5721.8424 
  132500      132.486     373.6576    15.359093   -437.95597   -422.59687   -11010.079     2296.856   -678.88598   -34648.208    15.267836    13.222343    28.343263    5721.8406 
  133000      132.986    382.84814    15.736868   -438.31023   -422.57336    -10760.68    4276.7198   -627.93565   -35930.825    15.267838    13.222345    28.343245    5721.8389 
  133500      133.486    370.88903    15.245292   -437.79489    -422.5496   -11445.382    2650.3994   -76.098625   -36910.446    15.267841    13.222347    28.343228    5721.8371 
  134000      133.986    367.82924     15.11952    -437.6456   -422.52608   -11258.742    3024.3663   -1745.3741   -35055.218    15.267843    13.222349     28.34321    5721.8354 
  134500      134.486    378.32305    15.550865   -438.05331   -422.50244   -11013.328     1450.435   -1475.2675    -33015.15    15.267846    13.222351    28.343193    5721.8336 
  135000      134.986    382.44111    15.720137   -438.19937   -422.47923   -11027.684    4352.9967   -3591.9519   -33844.098    15.267848    13.222353    28.343175    5721.8319 
  135500      135.486    391.01378    16.072514    -438.5282   -422.45569   -11266.754    5484.2214   -2745.1374   -36539.347     15.26785    13.222355    28.343158    5721.8301 
  136000      135.986    376.70616    15.484404   -437.91622   -422.43181   -11015.458    5626.9515   -2125.5193   -36547.806    15.267853    13.222358     28.34314    5721.8284 
  136500      136.486    363.06362    14.923631   -437.33134   -422.40771   -10859.918    5236.4815   -1884.8162   -35931.419    15.267855     13.22236    28.343123    5721.8266 
  137000      136.986    377.26375    15.507323   -437.89175   -422.38443   -11424.068    4828.5261    36.638007   -39137.368    15.267858    13.222362    28.343105    5721.8249 
  137500      137.486    367.83449    15.119736   -437.48022   -422.36048   -12190.175    3226.7318   -3739.2535   -36058.002     15.26786    13.222364    28.343088    5721.8232 
  138000      137.986    369.19997    15.175864   -437.51297   -422.33711   -11217.919    3912.4737   -3154.5274   -34411.703    15.267862    13.222366     28.34307    5721.8214 
  138500      138.486    376.02004    15.456201   -437.76936   -422.31316   -10989.318    2628.8827    933.90348   -36530.739    15.267865    13.222368    28.343053    5721.8197 
  139000      138.986    395.13111    16.241756   -438.53141   -422.28966    -10395.01    2299.8397   -1181.5409   -32303.329    15.267867     13.22237    28.343035    5721.8179 
  139500      139.486    391.43128    16.089675   -438.35549   -422.26581   -11134.174    1817.0527    917.41544    -36136.99     15.26787    13.222372    28.343018    5721.8162 
  140000      139.986    396.32786    16.290948   -438.53324    -422.2423   -11965.111    2030.6802    -1338.754   -36587.258    15.267872    13.222374       28.343    5721.8144 
  140500      140.486    375.40711    15.431006    -437.6495   -422.21849   -11018.231    2667.4654   -2487.4901   -33234.669    15.267874    13.222376    28.342983    5721.8127 
  141000      140.986    393.25332     16.16457   -438.35897    -422.1944   -11730.836    4737.4107   -3239.2722   -36690.647    15.267877    13.222378    28.342965    5721.8109 
  141500      141.486    381.45195    15.679478   -437.85001   -422.17053   -11758.082    1843.3192    667.45945   -37785.024    15.267879     13.22238    28.342948    5721.8092 
  142000      141.986    391.89806    16.108862   -438.25576    -422.1469   -10856.885    2721.4269   -1078.3383   -34213.744    15.267882    13.222382     28.34293    5721.8074 
  142500      142.486    383.35501    15.757703   -437.88056   -422.12285   -10876.411    3728.0304    780.19889   -37137.463    15.267884    13.222384    28.342913    5721.8057 
  143000      142.986    371.00525    15.250069   -437.34902   -422.09895   -10630.095    4520.6076   -883.29374   -35527.599    15.267886    13.222386    28.342895    5721.8039 
  143500      143.486    387.85856     15.94282   -438.01743   -422.07461   -11407.505    3804.4127   -598.49496   -37428.432    15.267889    13.222388    28.342878    5721.8022 
  144000      143.986    374.97782    15.413361   -437.46423   -422.05087   -11368.321    4258.0978   -3576.0926   -34786.969    15.267891     13.22239     28.34286    5721.8005 
  144500      144.486    401.96561    16.522686   -438.54959    -422.0269    -12283.37    4210.7076   -2718.6721   -38342.146    15.267894    13.222392    28.342843    5721.7987 
  145000      144.986    380.39888    15.636192    -437.6389   -422.00271   -11881.905    5779.8382   -2265.6881   -39159.865    15.267896    13.222394    28.342825     5721.797 
  145500      145.486    396.38791    16.293417   -438.27228   -421.97887   -10785.275    6705.6829   -920.29748    -38141.21    15.267898    13.222396    28.342808    5721.7952 
  146000      145.986    401.47684    16.502595   -438.45787   -421.95527   -11151.551    3023.9838   -2996.2147   -33482.422    15.267901    13.222399     28.34279    5721.7935 
  146500      146.486    367.98656    15.125987    -437.0567   -421.93072   -10627.521    4025.3291    571.31203   -36479.205    15.267903    13.222401    28.342773    5721.7917 
  147000      146.986     377.8318    15.530673   -437.43719   -421.90651   -9903.3708    6742.4974    212.13684   -36664.747    15.267906    13.222403    28.342755      5721.79 
  147500      147.486    414.30587    17.029929   -438.91248   -421.88255   -10697.502    2438.6185    -978.6336    -33552.49    15.267908    13.222405    28.342738    5721.7882 
  148000      147.986    386.97785    15.906619   -437.76494   -421.85833    -11429.87    1730.8333    -547.3919    -35473.05     15.26791    13.222407     28.34272    5721.7865 
  148500      148.486    373.87677    15.368102   -437.20194   -421.83384    -9517.576    5358.1801    1199.1777   -35110.086    15.267913    13.222409    28.342703    5721.7847 
  149000      148.986    388.34702    15.962898   -437.77204   -421.80914   -10418.807      3979.11   -1079.9022    -34155.63    15.267915    13.222411    28.342685     5721.783 
  149500      149.486    391.24862    16.082167   -437.86739   -421.78522   -11726.541    3757.7929   -619.64846   -38317.766    15.267918    13.222413    28.342668    5721.7812 
  150000      149.986    383.42426    15.760549    -437.5211   -421.76055   -9778.7882    2488.2433    553.55422   -32378.162     15.26792    13.222415     28.34265    5721.7795 
  150500      150.486    384.07501    15.787298   -437.52355   -421.73625   -10384.113    2840.5424     752.5817   -34745.462    15.267922    13.222417    28.342633    5721.7777 
  151000      150.986    388.53018    15.970427   -437.68275   -421.71232   -11489.626    2943.7644   -2092.3543   -35320.287    15.267925    13.222419    28.342615     5721.776 
  151500      151.486    385.05587    15.827616    -437.5151   -421.68749   -10629.516    4317.8608   -2932.4488   -33273.961    15.267927    13.222421    28.342598    5721.7743 
  152000      151.986    403.00599    16.565451   -438.22887   -421.66342   -10682.121    5142.8793   -796.04613   -36393.195     15.26793    13.222423     28.34258    5721.7725 
  152500      152.486    397.73209    16.348668   -437.98766     -421.639   -10152.581    5605.6881     44.96556   -36108.396    15.267932    13.222425    28.342563    5721.7708 
  153000      152.986    381.49261    15.681149   -437.29525    -421.6141   -10106.066    3825.3426    1229.8031   -35373.344    15.267934    13.222427    28.342545     5721.769 
  153500      153.486    415.89495    17.095248   -438.68538   -421.59013   -11626.985    3812.3764    -1529.252   -37164.078    15.267937    13.222429    28.342528    5721.7673 
  154000      153.986    382.10533    15.706335   -437.27093   -421.56459   -10896.494    4719.8945    818.76643   -38228.142    15.267939    13.222431     28.34251    5721.7655 
  154500      154.486    396.68756    16.305734   -437.84633    -421.5406   -10793.125    4201.0757   -1674.8466   -34905.605    15.267942    13.222433    28.342493    5721.7638 
  155000      154.986    395.13896    16.242079   -437.75863   -421.51655   -11870.673    2729.2361   -2406.5925   -35934.662    15.267944    13.222435    28.342475     5721.762 
  155500      155.486    399.13333    16.406266   -437.89841   -421.49215   -9395.4355    5950.1475   -1163.9785   -32972.475    15.267946    13.222437    28.342458    5721.7603 
  156000      155.986    408.66784     16.79818   -438.26673   -421.46855   -12058.202    1890.1859   -6060.3321   -32004.461    15.267949     13.22244     28.34244    5721.7585 
  156500      156.486    403.55265    16.587921   -438.03094   -421.44302   -10369.671    3008.9584   -588.61965   -33529.352    15.267951    13.222442    28.342423    5721.7568 
  157000      156.986    364.18583    14.969759    -436.3875   -421.41774   -9791.5904    4650.5663    374.30574   -34399.643    15.267954    13.222444    28.342405     5721.755 
  157500      157.486     375.6097    15.439334   -436.83187   -421.39254   -9944.1363    4161.1591    1240.3932   -35233.961    15.267956    13.222446    28.342388    5721.7533 
  158000      157.986    381.75276    15.691843   -437.05995   -421.36811   -10876.845     5091.696   -3226.6464   -34495.584    15.267958    13.222448     28.34237    5721.7516 
  158500      158.486    383.65082    15.769862   -437.11325   -421.34339   -9490.2453    4719.4966    -31.36028   -33158.872    15.267961     13.22245    28.342353    5721.7498 
  159000      158.986     394.6969    16.223908   -437.54223   -421.31832   -9942.0689    4603.1698    958.21671   -35387.593    15.267963    13.222452    28.342335    5721.7481 
  159500      159.486    399.54249    16.423085   -437.71689    -421.2938   -11220.328      3713.69   -697.35685   -36677.318    15.267966    13.222454    28.342318    5721.7463 
  160000      159.986    392.78482    16.145312   -437.41471   -421.26939   -10220.255    5942.7395    -898.9387   -35704.567    15.267968    13.222456      28.3423    5721.7446 
  160500      160.486    400.11895     16.44678   -437.69116   -421.24438   -9519.7827    3867.4483    240.05482   -32666.851     15.26797    13.222458    28.342283    5721.7428 
  161000      160.986    388.13562    15.954208    -437.1733   -421.21909   -10887.576    3343.5602   -66.538554    -35939.75    15.267973     13.22246    28.342265    5721.7411 
  161500      161.486     388.8349    15.982952   -437.17724   -421.19429   -10882.498    2309.9574   -2963.2536   -31994.198    15.267975    13.222462    28.342248    5721.7393 
  162000      161.986    375.27181    15.425445   -436.59445     -421.169   -10021.191     3139.877   -718.42046    -32485.03    15.267978    13.222464     28.34223    5721.7376 
  162500      162.486    402.04631    16.526004   -437.67087   -421.14486   -10496.422     4959.586   -4149.5726    -32299.28     15.26798    13.222466    28.342213    5721.7358 
  163000      162.986    400.89612    16.478725   -437.59824   -421.11952   -10910.071    4269.3651    -2497.298   -34502.281    15.267982    13.222468    28.342195    5721.7341 
  163500      163.486    388.58256     15.97258   -437.06731   -421.09473   -11061.311    3294.7604   -2954.9121    -33523.78    15.267985     13.22247    28.342178    5721.7323 
  164000      163.986    393.69415     16.18269   -437.25219    -421.0695   -11158.377    4133.4591     352.4122   -37961.002    15.267987    13.222472     28.34216    5721.7306 
  164500      164.486    391.25313    16.082353   -437.12695   -421.04459   -10586.325    2449.6694   -352.42231   -33856.223     15.26799    13.222474    28.342143    5721.7288 
  165000      164.986    393.48705    16.174177   -437.19344   -421.01927   -11520.691    2908.2925   -1674.2387   -35796.127    15.267992    13.222476    28.342125    5721.7271 
  165500      165.486    411.52867    16.915773   -437.91017   -420.99439   -11352.792    2803.5467   -2756.6566   -34105.266    15.267994    13.222478    28.342108    5721.7254 
  166000      165.986     409.5468    16.834309   -437.80282   -420.96851   -10770.547    2452.4555   -298.40064   -34465.697    15.267997    13.222481     28.34209    5721.7236 
  166500      166.486    395.80805    16.269582   -437.21272   -420.94313   -10463.051    5676.1387   -3395.2979   -33669.994    15.267999    13.222483    28.342073    5721.7219 
  167000      166.986    396.61129    16.302598    -437.2205    -420.9179   -9754.8626    5863.0852   -1316.0185   -33811.654    15.268002    13.222485    28.342055    5721.7201 
  167500      167.486    387.92114    15.945392    -436.8377   -420.89231   -10318.463    4701.9636   -488.83222    -35168.52    15.268004    13.222487    28.342038    5721.7184 
  168000      167.986    418.01547    17.182411   -438.05037   -420.86796   -11430.453    1706.6865   -1647.6734   -34350.372    15.268006    13.222489     28.34202    5721.7166 
  168500      168.486    391.79661    16.104692   -436.94624   -420.84154   -10638.459    2972.5634   -2628.5113   -32259.428    15.268009    13.222491    28.342003    5721.7149 
  169000      168.986    406.86212    16.723956      -437.54   -420.81604   -10401.727    2998.7568   -425.09118   -33778.846    15.268011    13.222493    28.341985    5721.7131 
  169500      169.486    380.84811    15.654657   -436.44496    -420.7903   -9645.9914     6097.619     174.7712   -35210.364    15.268014    13.222495    28.341968    5721.7114 
  170000      169.986    373.46444    15.351154   -436.11666   -420.76551   -10365.069    5169.2839   -1874.3423   -34390.149    15.268016    13.222497     28.34195    5721.7096 
  170500      170.486    396.23982    16.287329   -437.02772   -420.74039   -10728.929    4829.7339   -3443.7502    -33572.77    15.268018    13.222499    28.341933    5721.7079 
  171000      170.986    419.61527    17.248171   -437.96353   -420.71536   -9794.3194    5282.6712   -1042.4335   -33623.196    15.268021    13.222501    28.341915    5721.7061 
  171500      171.486    433.68199     17.82638   -438.51649   -420.69011   -11356.684    4551.8721   -2303.7101   -36318.215    15.268023    13.222503    28.341898    5721.7044 
  172000      171.986    389.50778    16.010611   -436.67515   -420.66454   -10390.035    2188.3058    802.10248   -34160.513    15.268026    13.222505     28.34188    5721.7027 
  172500      172.486    390.06833    16.033652   -436.67258   -420.63893   -9598.0944    3971.4686    672.95808    -33438.71    15.268028    13.222507    28.341863    5721.7009 
  173000      172.986    382.96165    15.741534   -436.35445   -420.61292   -10305.871    2770.5034   -281.89056   -33406.227     15.26803    13.222509    28.341845    5721.6992 
  173500      173.486    408.65754    16.797756   -437.38572   -420.58797   -10784.056    5977.8914   -915.62815   -37414.432    15.268033    13.222511    28.341828    5721.6974 
  174000      173.986    407.29765    16.741858   -437.30438   -420.56252   -10694.736     4554.356    1887.3554    -38525.92    15.268035    13.222513     28.34181    5721.6957 
  174500      174.486    397.60449    16.343424   -436.87992    -420.5365   -9565.0275      5200.55   -885.53461   -33010.098    15.268038    13.222515    28.341793    5721.6939 
  175000      174.986    404.97214    16.646269   -437.15808   -420.51181   -10816.686    30.770864    939.99004   -33420.819     15.26804    13.222517    28.341775    5721.6922 
  175500      175.486    392.99224    16.153838   -436.63975   -420.48592   -10181.904     5970.435    21.843899    -36537.99    15.268042    13.222519    28.341758    5721.6904 
  176000      175.986    404.24523    16.616389   -437.07643   -420.46004   -9795.4827    6659.3366    1354.1019   -37399.887    15.268045    13.222522     28.34174    5721.6887 
  176500      176.486    403.35376    16.579746   -437.01395    -420.4342   -10220.391    3263.7905    2630.0623   -36555.025    15.268047    13.222524    28.341723    5721.6869 
  177000      176.986    381.27387    15.672158   -436.08104   -420.40888   -9011.7896    7856.2936   -1428.1609   -33463.502     15.26805    13.222526    28.341705    5721.6852 
  177500      177.486    372.47731    15.310578   -435.69495   -420.38437   -10680.126    2838.8329   -181.03635   -34698.176    15.268052    13.222528    28.341688    5721.6834 
  178000      177.986    391.11977    16.076871   -436.43623   -420.35936   -9991.6578    6936.7343    1220.7057   -38132.414    15.268054     13.22253     28.34167    5721.6817 
  178500      178.486    397.96191    16.358115    -436.6921   -420.33398    -11058.58    3489.8728   -223.12388   -36442.489    15.268057    13.222532    28.341653    5721.6799 
  179000      178.986    391.82838    16.105998   -436.41391   -420.30791   -10022.361    4628.5801    732.74948   -35428.413    15.268059    13.222534    28.341635    5721.6782 
  179500      179.486    375.53385    15.436216   -435.71832    -420.2821   -9169.0548    4443.7051    796.31546   -32747.185    15.268062    13.222536    28.341618    5721.6765 
  180000      179.986    383.88998    15.779692   -436.03584   -420.25615    -9125.161    7347.4813   -1312.9437   -33410.021    15.268064    13.222538      28.3416    5721.6747 
  180500      180.486    414.32926    17.030891   -437.26185   -420.23096   -10325.979    3911.4121    1351.7092   -36241.058    15.268066     13.22254    28.341583     5721.673 
  181000      180.986    404.93009     16.64454   -436.84955   -420.20501   -10359.935    4391.3013    915.97995   -36387.087    15.268069    13.222542    28.341565    5721.6712 
  181500      181.486    404.98098    16.646632   -436.82631   -420.17967   -10079.218    6342.3681   -164.21783   -36415.804    15.268071    13.222544    28.341548    5721.6695 
  182000      181.986    403.58644     16.58931   -436.74218   -420.15287   -11482.875    2390.3601    913.95251   -37752.937    15.268074    13.222546     28.34153    5721.6677 
  182500      182.486    407.43645    16.747564   -436.87477   -420.12721   -10420.323    4266.1164   -2733.4967   -32793.589    15.268076    13.222548    28.341513     5721.666 
  183000      182.986    408.97171     16.81067   -436.91172   -420.10105   -8908.8572    6013.3508     1129.296   -33869.219    15.268078     13.22255    28.341495    5721.6642 
  183500      183.486    391.73626    16.102212   -436.17726   -420.07504    -10150.13    4297.5789    1535.3673   -36283.337    15.268081    13.222552    28.341478    5721.6625 
  184000      183.986    402.92393    16.562078   -436.61115   -420.04907   -9514.6579    7046.2331   -831.64473   -34758.562    15.268083    13.222554     28.34146    5721.6607 
  184500      184.486    405.46113    16.666369   -436.68983   -420.02346   -9969.1145    4971.5861   -4198.7978   -30680.132    15.268086    13.222556    28.341443     5721.659 
  185000      184.986    412.51412     16.95628   -436.95326   -419.99698   -11230.651    5346.0588   -4890.4127   -34147.599    15.268088    13.222558    28.341425    5721.6572 
  185500      185.486    405.56606    16.670682   -436.64125   -419.97057   -10669.996    3224.1757    2004.7998   -37238.964     15.26809     13.22256    28.341408    5721.6555 
  186000      185.986    412.26705    16.946124   -436.89039   -419.94426   -10671.165    5349.8072   -2733.3083   -34629.993    15.268093    13.222563     28.34139    5721.6538 
  186500      186.486    405.13162    16.652824   -436.57109   -419.91826   -9165.5159    4384.4066   -1219.6045    -30661.35    15.268095    13.222565    28.341373     5721.652 
  187000      186.986    394.27186    16.206437   -436.09823   -419.89179   -10356.224    5187.0567   -2285.6123   -33970.117    15.268098    13.222567    28.341355    5721.6503 
  187500      187.486    427.11303    17.556364   -437.42284   -419.86648   -9878.3967    3104.3147   -1650.4021   -31089.103      15.2681    13.222569    28.341338    5721.6485 
  188000      187.986    399.76003    16.432026   -436.27184   -419.83981    -10093.72    3545.1472    1247.8719    -35074.18    15.268102    13.222571     28.34132    5721.6468 
  188500      188.486     415.1193    17.063365   -436.87746    -419.8141   -11080.974    5361.0439   -886.70723   -37717.257    15.268105    13.222573    28.341303     5721.645 
  189000      188.986    399.95477    16.440031   -436.22755   -419.78752   -10853.094     4077.183   -2450.9931   -34185.473    15.268107    13.222575    28.341285    5721.6433 
  189500      189.486    411.84697    16.928857   -436.69002   -419.76116   -9100.3165    5853.2203   -1599.4438   -31554.726     15.26811    13.222577    28.341268    5721.6415 
  190000      189.986    422.11559    17.350946   -437.08658   -419.73563   -9965.7225    5368.8716   -1043.5473   -34222.492    15.268112    13.222579     28.34125    5721.6398 
  190500      190.486    411.88072    16.930244    -436.6385   -419.70825   -10154.466     6166.516    1505.6323   -38135.546    15.268114    13.222581    28.341233     5721.638 
  191000      190.986    396.72091    16.307104   -435.98911   -419.68201   -9836.1168      5022.67   -205.50154   -34325.519    15.268117    13.222583    28.341215    5721.6363 
  191500      191.486    409.48546    16.831788   -436.48771   -419.65592   -10348.472     8078.827    -289.4266   -38834.818    15.268119    13.222585    28.341198    5721.6345 
  192000      191.986    399.27888    16.412249   -436.04169   -419.62944   -10210.844    6974.8956   -1417.3117   -36190.115    15.268122    13.222587     28.34118    5721.6328 
  192500      192.486    414.70557    17.046359   -436.64963   -419.60327   -11191.553    1221.4489   -176.59534   -34619.512    15.268124    13.222589    28.341163     5721.631 
  193000      192.986    409.02981    16.813058   -436.39011   -419.57706   -9227.5467    6028.0906    821.24101   -34531.972    15.268126    13.222591    28.341145    5721.6293 
  193500      193.486    400.08066    16.445206   -435.99564   -419.55044   -9889.2154     8332.605   -3008.3644   -34991.887    15.268129    13.222593    28.341128    5721.6276 
  194000      193.986    398.56241    16.382799   -435.90681   -419.52401   -9128.8195    6077.2021    164.12618   -33627.787    15.268131    13.222595     28.34111    5721.6258 
  194500      194.486    421.64329    17.331532   -436.82962   -419.49809   -10737.576    2636.7103   -2134.0102   -32715.428    15.268134    13.222597    28.341093    5721.6241 
  195000      194.986    404.93647    16.644803   -436.11643   -419.47163   -9840.8532    3998.4545    1549.7874   -35070.802    15.268136    13.222599    28.341075    5721.6223 
  195500      195.486    416.27668    17.110939   -436.55582   -419.44488   -10462.186    5053.1385    1115.0664   -37554.764    15.268138    13.222601    28.341058    5721.6206 
  196000      195.986    411.05163    16.896165   -436.31396    -419.4178    -10737.85    3638.9204    86.470963   -35938.942    15.268141    13.222604     28.34104    5721.6188 
  196500      196.486    406.75502    16.719554   -436.11108   -419.39152   -9310.4051    4707.6223    23.305941   -32662.143    15.268143    13.222606    28.341023    5721.6171 
  197000      196.986      395.016    16.237024   -435.60194   -419.36491   -9624.3977    7593.8399   -1153.5359   -35313.497    15.268146    13.222608    28.341005    5721.6153 
  197500      197.486    415.58607    17.082552   -436.42089   -419.33834   -10632.646     4029.054   -606.07204    -35320.92    15.268148     13.22261    28.340988    5721.6136 
  198000      197.986    414.58703    17.041486   -436.35313   -419.31164   -9344.4177    5953.7355     374.2397   -34361.228     15.26815    13.222612     28.34097    5721.6118 
  198500      198.486    414.50838    17.038253   -436.32304   -419.28478   -9294.1701    7655.7626    1103.1156   -36641.388    15.268153    13.222614    28.340953    5721.6101 
  199000      198.986    411.11575      16.8988   -436.15772   -419.25892    -9499.026    5433.6651    2638.3128   -36569.056    15.268155    13.222616    28.340935    5721.6083 
  199500      199.486    405.80879    16.680659    -435.9123   -419.23164   -8878.4159    4188.0823   -635.10481   -30188.225    15.268158    13.222618    28.340918    5721.6066 
  200000      199.986    410.95328    16.892122    -436.0967   -419.20457   -9043.2289    6858.4148   -1472.7937   -32515.308     15.26816     13.22262      28.3409    5721.6048 
  200500      200.486     417.7126    17.169962    -436.3481   -419.17814   -9672.2717    4654.8402   -704.39711   -32967.258    15.268162    13.222622    28.340883    5721.6031 
  201000      200.986    412.33564    16.948943   -436.09995   -419.15101   -8542.5991    5305.3408    521.52893   -31454.667    15.268165    13.222624    28.340865    5721.6014 
  201500      201.486    436.19394    17.929633   -437.05453    -419.1249   -10293.377     3099.496   -2185.5718   -31794.055    15.268167    13.222626    28.340848    5721.5996 
  202000      201.986    434.42207      17.8568   -436.95517   -419.09837    -10567.77    3596.0853   -18.435966    -35280.96     15.26817    13.222628     28.34083    5721.5979 
  202500      202.486    426.89134    17.547252   -436.61798   -419.07073   -10140.684    4140.6261    793.38817   -35356.068    15.268172     13.22263    28.340813    5721.5961 
  203000      202.986    418.01285    17.182304   -436.22618   -419.04388   -10485.843    5014.3336    918.72188   -37390.585    15.268174    13.222632    28.340795    5721.5944 
  203500      203.486    427.41634    17.568831   -436.58631   -419.01748   -8776.9551     6829.105   -576.28512   -32583.685    15.268177    13.222634    28.340778    5721.5926 
  204000      203.986    427.91125    17.589175   -436.57935   -418.99018   -10211.844    4202.6542   -1536.6846   -33301.501    15.268179    13.222636     28.34076    5721.5909 
  204500      204.486    437.63891    17.989027   -436.95254   -418.96351   -9274.7941    7187.8252   -565.77006   -34446.437    15.268182    13.222638    28.340743    5721.5891 
  205000      204.986    444.55089    18.273143   -437.20983   -418.93669   -9857.9378    5095.9677   -1091.7617   -33578.019    15.268184     13.22264    28.340725    5721.5874 
  205500      205.486    405.15826    16.653919   -435.56318   -418.90926   -8421.9507    6385.7529    309.42545    -31961.03    15.268186    13.222642    28.340708    5721.5856 
  206000      205.986    438.13151    18.009276   -436.89271   -418.88344   -9044.8925    7574.9993   -1687.2288   -33022.448    15.268189    13.222645     28.34069    5721.5839 
  206500      206.486    430.94163    17.713738   -436.57006   -418.85632    -9024.437    5687.6405   -1119.7962   -31641.155    15.268191    13.222647    28.340673    5721.5821 
  207000      206.986     430.2356    17.684717   -436.51409   -418.82938   -9092.9879    5785.9358    427.19742   -33492.097    15.268194    13.222649    28.340655    5721.5804 
  207500      207.486    416.74068    17.130011   -435.93205   -418.80204   -9980.8079    3066.8761    1253.4952   -34262.795    15.268196    13.222651    28.340638    5721.5787 
  208000      207.986     425.6508     17.49626   -436.27192   -418.77566    -9335.404    4830.5174    -1302.098   -31534.631    15.268198    13.222653     28.34062    5721.5769 
  208500      208.486    429.33752    17.647801   -436.39627   -418.74847   -7969.2825    4797.4921    1548.9725   -30254.312    15.268201    13.222655    28.340603    5721.5752 
  209000      208.986    416.84934    17.134478    -435.8553   -418.72082   -10109.978    4317.5868    308.05408   -34955.576    15.268203    13.222657    28.340585    5721.5734 
  209500      209.486    420.52815    17.285695   -435.97998   -418.69428   -9497.8835    4352.9634    196.12205   -33042.736    15.268206    13.222659    28.340568    5721.5717 
  210000      209.986    405.22617    16.656711    -435.3228   -418.66609   -9306.4258    3940.0825   -124.59351   -31734.766    15.268208    13.222661     28.34055    5721.5699 
  210500      210.486    417.19871    17.148839   -435.78834    -418.6395   -9585.2841    3928.6547    1208.2981   -33892.805     15.26821    13.222663    28.340533    5721.5682 
  211000      210.986    401.08421    16.486457   -435.09873   -418.61228   -8881.5547    3672.7859    2030.1642   -32347.614    15.268213    13.222665    28.340515    5721.5664 
  211500      211.486    391.23834    16.081745   -434.66713   -418.58539   -7746.9594    5182.3536     1652.694   -30075.926    15.268215    13.222667    28.340498    5721.5647 
  212000      211.986    426.21078    17.519277    -436.0783   -418.55902   -10024.873    6076.5499    724.84264   -36876.011    15.268218    13.222669     28.34048    5721.5629 
[...]
  948500      948.486     560.5648    23.041863   -430.51733   -407.47547   -4753.9476    7797.9732    7543.7982   -29603.614    15.271753    13.225689    28.314703    5718.9881 
  949000      948.986    530.29228    21.797519   -429.26806   -407.47054   -4593.2771    5931.8225    8290.0555   -28001.709    15.271755    13.225691    28.314685    5718.9864 
  949500      949.486    539.33624    22.169268   -429.63647    -407.4672   -5722.6867    5311.2024    5353.2125   -27832.475    15.271758    13.225693    28.314668    5718.9846 
  950000      949.986    562.15297    23.107144   -430.57151   -407.46437   -5508.3337    9612.4225     5204.399   -31341.822     15.27176    13.225695     28.31465    5718.9829 
  950500      950.486    563.18435    23.149538   -430.61089   -407.46135   -5434.5961    4743.8411    7092.4571   -28140.086    15.271762    13.225697    28.314633    5718.9811 
  951000      950.986    582.15983     23.92952   -431.38631   -407.45679   -6536.1074    4866.1495    5142.7743   -29617.246    15.271765    13.225699    28.314615    5718.9794 
  951500      951.486    570.36871     23.44485   -430.89879   -407.45394   -6072.8072    4463.5629    6300.1618   -28982.146    15.271767    13.225701    28.314598    5718.9776 
  952000      951.986    555.35685    22.827791   -430.27697   -407.44918   -4419.8926    9977.0183    8157.8217   -31394.518     15.27177    13.225703     28.31458    5718.9759 
  952500      952.486    553.14918    22.737046   -430.18219   -407.44514   -4176.9156    10386.191     1819.275   -24736.213    15.271772    13.225705    28.314563    5718.9741 
  953000      952.986    581.48762    23.901889   -431.34378   -407.44189   -5720.3612    9476.5298    2742.3287   -29379.942    15.271774    13.225707    28.314545    5718.9724 
  953500      953.486    590.47286    24.271225   -431.71022   -407.43899   -5783.8863    4185.8882    6667.6258   -28205.173    15.271777    13.225709    28.314528    5718.9706 
  954000      953.986    575.50098     23.65581   -431.09174   -407.43593   -6281.4842    9449.8509    2682.1971   -30976.501    15.271779    13.225711     28.31451    5718.9689 
  954500      954.486    578.45284    23.777146   -431.20925    -407.4321   -7717.4132    2578.7568    2486.0631    -28217.06    15.271782    13.225713    28.314493    5718.9671 
  955000      954.986    583.05455    23.966297   -431.39395   -407.42765   -6707.1919    4869.6378    8279.3229   -33270.536    15.271784    13.225715    28.314475    5718.9654 
  955500      955.486    597.35165    24.553976    -431.9777   -407.42372   -4783.6545    7734.0993     7300.394   -29385.457    15.271786    13.225717    28.314458    5718.9636 
  956000      955.986    585.81486    24.079759   -431.49972   -407.41996   -5887.9622    10247.411    1492.3733   -29403.671    15.271789     13.22572     28.31444    5718.9619 
  956500      956.486    578.11211     23.76314   -431.17895   -407.41581   -5626.7348     3881.629    9231.7744   -29993.608    15.271791    13.225722    28.314423    5718.9601 
  957000      956.986    596.18475    24.506011   -431.91808   -407.41207   -5499.8145    6644.9305    4635.4666   -27779.841    15.271794    13.225724    28.314405    5718.9584 
  957500      957.486    554.34643    22.786258   -430.19336    -407.4071   -5195.0395    6317.0964    5663.2305   -27565.446    15.271796    13.225726    28.314388    5718.9566 
  958000      957.986    603.68369    24.814253   -432.21841   -407.40416   -5812.2414    9061.5561    7587.8781   -34086.159    15.271798    13.225728     28.31437    5718.9549 
  958500      958.486    603.22292    24.795313   -432.19459   -407.39928   -5338.9512    6010.4051    7468.3467   -29495.606    15.271801     13.22573    28.314353    5718.9531 
  959000      958.986    581.67151    23.909448    -431.3041   -407.39465   -6577.0566    8728.8951    4131.2689   -32591.334    15.271803    13.225732    28.314335    5718.9514 
  959500      959.486    537.60689    22.098184   -429.48739   -407.38921   -4782.4069    7329.9119    6590.5161   -28267.649    15.271806    13.225734    28.314318    5718.9496 
  960000      959.986     576.1576      23.6828   -431.06699   -407.38419   -6023.9366    8763.1025    5210.6046   -32045.517    15.271808    13.225736      28.3143    5718.9479 
  960500      960.486    562.73298    23.130985      -430.51   -407.37902   -3456.0313    8719.2701    5671.8807   -24759.245     15.27181    13.225738    28.314283    5718.9461 
  961000      960.986    571.93833    23.509369   -430.88364   -407.37427   -6331.9179    6547.7877    4132.6933   -29676.235    15.271813     13.22574    28.314265    5718.9444 
  961500      961.486    599.92046    24.659566   -432.02937   -407.36981   -5882.7462    5616.3041    6234.6371    -29499.18    15.271815    13.225742    28.314248    5718.9426 
  962000      961.986    595.42118    24.474625   -431.83998   -407.36536   -5565.3344     8374.132    4225.7746    -29295.91    15.271818    13.225744     28.31423    5718.9409 
  962500      962.486    553.37442    22.746304   -430.10576   -407.35945   -4951.7883    7671.2517    6409.0531    -28935.67     15.27182    13.225746    28.314213    5718.9391 
  963000      962.986    569.81706    23.422174   -430.77757    -407.3554   -4583.1419    6691.7919    6977.6312   -27418.849    15.271822    13.225748    28.314195    5718.9374 
  963500      963.486     576.8997    23.713304   -431.06333   -407.35003   -5396.7161    7030.6742     5183.667    -28404.49    15.271825     13.22575    28.314178    5718.9356 
  964000      963.986    570.98303    23.470101   -430.81583   -407.34573    -5236.294    6143.7465    8433.0555   -30285.684    15.271827    13.225752     28.31416    5718.9339 
  964500      964.486    565.92319    23.262118   -430.60254   -407.34042   -4575.9702    5543.2721    9489.1162   -28760.299     15.27183    13.225754    28.314143    5718.9321 
  965000      964.986    590.37222    24.267089    -431.6027   -407.33561   -6911.1897    6609.6718    8053.5266   -35396.767    15.271832    13.225756    28.314125    5718.9304 
  965500      965.486    587.69292    24.156956   -431.48706   -407.33011   -5644.2474    6751.3839    7245.1914   -30929.318    15.271834    13.225758    28.314108    5718.9286 
  966000      965.986    568.32288    23.360756   -430.68647   -407.32572   -4977.0052    9240.3929    7782.1113    -31953.52    15.271837    13.225761     28.31409    5718.9269 
  966500      966.486    615.73928    25.309794   -432.63031   -407.32051   -7546.3101    9708.0969    1672.9517   -34019.979    15.271839    13.225763    28.314073    5718.9251 
  967000      966.986    557.67397    22.923036   -430.23794    -407.3149   -4442.3837    8316.6195    4498.1964   -26141.967    15.271842    13.225765    28.314055    5718.9234 
  967500      967.486    545.15829    22.408582   -429.71817   -407.30959   -4428.8128    10219.012    7074.0952   -30579.546    15.271844    13.225767    28.314038    5718.9216 
  968000      967.986    594.85339    24.451286   -431.75529     -407.304   -6132.5544    6569.5663    5175.5724   -30142.802    15.271846    13.225769     28.31402    5718.9199 
  968500      968.486    580.99584    23.881675    -431.1804   -407.29872   -5010.9171    7331.6048     6178.021   -28542.377    15.271849    13.225771    28.314003    5718.9181 
  969000      968.986    518.41565    21.309333   -428.60118   -407.29184   -1827.6335    12298.722    8734.2565   -26515.879    15.271851    13.225773    28.313985    5718.9164 
  969500      969.486    576.29634    23.688503   -430.97465   -407.28615   -6221.5201    4889.3453    10912.296   -34466.202    15.271854    13.225775    28.313968    5718.9146 
  970000      969.986    584.45733    24.023958   -431.30394   -407.27999   -4448.8458    6879.6801    6430.5375   -26656.755    15.271856    13.225777     28.31395    5718.9129 
  970500      970.486    553.03059    22.732171   -430.00512   -407.27295   -5150.5171    5650.4541    3478.3683   -24580.374    15.271858    13.225779    28.313933    5718.9111 
  971000      970.986    565.72149    23.253827   -430.52191   -407.26808   -4290.2227     6917.652    7967.8966   -27756.216    15.271861    13.225781    28.313915    5718.9094 
  971500      971.486    566.91097     23.30272   -430.56351   -407.26079   -6133.6952    4807.1613    4838.2345   -28046.481    15.271863    13.225783    28.313898    5718.9076 
  972000      971.986    596.60785    24.523402   -431.77672   -407.25332   -5984.7134    6406.2951    5565.4761   -29925.912    15.271866    13.225785     28.31388    5718.9059 
  972500      972.486    581.34022    23.895831   -431.14158   -407.24574   -5498.7116    3980.9477    6397.6201   -26874.703    15.271868    13.225787    28.313863    5718.9041 
  973000      972.986    612.63951    25.182379   -432.42303   -407.24065   -5438.2282    4721.5749    8023.9159   -29060.176     15.27187    13.225789    28.313845    5718.9024 
  973500      973.486    559.49432    22.997861    -430.2324   -407.23454   -5078.1265    3647.5497    8257.5458   -27139.475    15.271873    13.225791    28.313828    5718.9006 
  974000      973.986    583.16513    23.970843   -431.20085      -407.23   -6093.1147    7470.4894      2721.69   -28471.523    15.271875    13.225793     28.31381    5718.8989 
  974500      974.486    562.58976    23.125098    -430.3483    -407.2232   -4230.1539    4422.7092    6335.7407   -23448.912    15.271878    13.225795    28.313793    5718.8971 
  975000      974.986    564.62587    23.208792   -430.42482   -407.21603   -4772.5713    8777.1964    4750.1919   -27845.102     15.27188    13.225797    28.313775    5718.8954 
  975500      975.486    575.62719    23.660998   -430.86993   -407.20893   -6969.2135     3419.472    6241.7258   -30568.838    15.271882    13.225799    28.313758    5718.8936 
  976000      975.986     565.2334    23.233764   -430.43482   -407.20106   -4727.4119    8861.3823    6109.6686   -29153.286    15.271885    13.225802     28.31374    5718.8919 
  976500      976.486    587.90029     24.16548   -431.35974   -407.19426   -3263.5256    10984.527    5677.3505   -26452.455    15.271887    13.225804    28.313723    5718.8901 
  977000      976.986    571.30666    23.483404   -430.67101   -407.18761   -4220.2336     7905.042    7462.8076   -28028.551     15.27189    13.225806    28.313705    5718.8884 
  977500      977.486    590.19273    24.259711   -431.44054   -407.18082   -5227.1443    7323.3923    4020.0799   -27024.905    15.271892    13.225808    28.313688    5718.8866 
  978000      977.986    562.20372     23.10923   -430.28378   -407.17455   -4926.2784    9246.3094      5157.32   -29182.465    15.271894     13.22581     28.31367    5718.8849 
  978500      978.486    615.27639    25.290767   -432.45911   -407.16835   -6066.4142    5087.5873    6310.2125   -29597.042    15.271897    13.225812    28.313653    5718.8831 
  979000      978.986    590.67521    24.279543   -431.44088   -407.16134   -5501.6115    6393.4619    5656.6259   -28554.922    15.271899    13.225814    28.313635    5718.8814 
  979500      979.486    577.62584    23.743152   -430.89888   -407.15573   -4183.4251    8300.6337    5568.6539   -26419.563    15.271902    13.225816    28.313618    5718.8796 
  980000      979.986    529.00207    21.744485   -428.89212   -407.14764   -4405.9722    9128.4969    6746.7232   -29093.137    15.271904    13.225818      28.3136    5718.8779 
  980500      980.486    559.93902     23.01614     -430.157   -407.14086   -5774.7504    5004.3596    6457.4128   -28786.024    15.271906     13.22582    28.313583    5718.8761 
  981000      980.986    552.56298     22.71295   -429.84676   -407.13381   -4028.1941    5487.8889    7447.7132   -25020.184    15.271909    13.225822    28.313565    5718.8744 
  981500      981.486    540.30793    22.209209   -429.33484   -407.12563   -4376.5608    7663.4367    6978.9818   -27772.101    15.271911    13.225824    28.313548    5718.8726 
  982000      981.986    594.41412     24.43323   -431.55325   -407.12002   -6369.2669     5529.803     6728.868   -31366.472    15.271914    13.225826     28.31353    5718.8709 
  982500      982.486     563.3941     23.15816   -430.27056    -407.1124   -4757.8847    10043.943    4599.9974   -28917.594    15.271916    13.225828    28.313513    5718.8691 
  983000      982.986     571.0288    23.471982   -430.57736   -407.10538   -5464.1634    8406.8574    7768.2064   -32567.554    15.271918     13.22583    28.313495    5718.8674 
  983500      983.486    550.55777    22.630526   -429.72768   -407.09715   -4039.5325    9344.3666    9328.0078   -30790.972    15.271921    13.225832    28.313478    5718.8656 
  984000      983.986    544.73453    22.391164   -429.48131   -407.09014   -2609.3471    8361.1942    8723.6298   -24912.865    15.271923    13.225834     28.31346    5718.8639 
  984500      984.486    532.69262    21.896184   -428.97933   -407.08315   -3389.0864    10452.491    8523.5094   -29143.259    15.271926    13.225836    28.313443    5718.8621 
  985000      984.986    572.68627    23.540112   -430.61685   -407.07674   -5649.5645    4860.7444    6697.3753   -28506.813    15.271928    13.225838    28.313425    5718.8604 
  985500      985.486    547.69296    22.512769   -429.58067    -407.0679   -4020.7018    6556.7745    7813.4348   -26432.315     15.27193     13.22584    28.313408    5718.8586 
  986000      985.986     573.1625    23.559687   -430.62026   -407.06057    -5019.839    9087.7842    6444.7268   -30592.028    15.271933    13.225843     28.31339    5718.8569 
  986500      986.486    606.02547    24.910511   -431.96433   -407.05382   -6284.3029    8761.6558     4837.912   -32452.476    15.271935    13.225845    28.313373    5718.8551 
  987000      986.986    551.75276    22.679646   -429.72542   -407.04577   -4163.7566    9030.6935    8365.4138   -29887.377    15.271938    13.225847    28.313355    5718.8534 
  987500      987.486    590.71959    24.281367   -431.31965   -407.03828    -4808.937    9159.6972    7293.2096   -30879.718     15.27194    13.225849    28.313338    5718.8516 
  988000      987.986    561.01329    23.060298   -430.08855   -407.02825   -4502.0929    9086.5801    9158.6735   -31751.532    15.271942    13.225851     28.31332    5718.8499 
  988500      988.486    600.33478    24.676597   -431.69711   -407.02051   -5850.2706    7480.1891    5753.0789    -30784.08    15.271945    13.225853    28.313303    5718.8481 
  989000      988.986    572.49975    23.532445   -430.54483   -407.01239   -4581.5415    9031.6965    6729.0588    -29505.38    15.271947    13.225855    28.313285    5718.8464 
  989500      989.486    565.14977    23.230326   -430.23477   -407.00444   -6586.6356    5436.3323     3647.745   -28843.984     15.27195    13.225857    28.313268    5718.8446 
  990000      989.986    581.07923    23.885102   -430.88083   -406.99573   -4944.4535    9816.8685     6317.162   -30967.391    15.271952    13.225859     28.31325    5718.8429 
  990500      990.486    590.37193    24.267076   -431.25409   -406.98702   -3040.7187    11291.554    5674.1462   -26087.857    15.271954    13.225861    28.313233    5718.8411 
  991000      990.986    553.21631    22.739805   -429.71802   -406.97821   -4470.7884    10897.885    6650.5087   -30960.758    15.271957    13.225863    28.313215    5718.8394 
  991500      991.486     524.8727    21.574748    -428.5424   -406.96765   -3993.6746    10387.703    6575.3576   -28944.085    15.271959    13.225865    28.313198    5718.8376 
  992000      991.986    591.38739    24.308817   -431.26784   -406.95902   -4687.9884    8295.7285     8101.836    -30461.53    15.271962    13.225867     28.31318    5718.8359 
  992500      992.486    573.47065    23.572354   -430.52352   -406.95116   -5246.3751    9646.3815    5825.1436    -31210.65    15.271964    13.225869    28.313163    5718.8341 
  993000      992.986    592.24486    24.344063   -431.28633   -406.94227   -5469.8053    4370.7691    7025.8289   -27806.014    15.271966    13.225871    28.313145    5718.8324 
  993500      993.486    596.30472    24.510942   -431.44578   -406.93484   -4396.2081    4451.7221     8077.497   -25717.843    15.271969    13.225873    28.313128    5718.8307 
  994000      993.986    591.66933    24.320406   -431.24562   -406.92522   -6732.3486    7134.4628    4289.7857   -31621.294    15.271971    13.225875     28.31311    5718.8289 
  994500      994.486    581.56383    23.905022   -430.82296   -406.91794   -5349.6134    8582.7106    5298.5671   -29930.118    15.271974    13.225877    28.313093    5718.8272 
  995000      994.986    556.20791    22.862774   -429.77132   -406.90855   -4536.3749    5111.7052    8436.6856   -27157.515    15.271976    13.225879    28.313075    5718.8254 
  995500      995.486    546.61565    22.468487   -429.36818   -406.89969   -4340.8848    8064.1092    7389.6276   -28476.391    15.271978    13.225881    28.313058    5718.8237 
  996000      995.986    561.23916    23.069582   -429.96361   -406.89403   -5539.1099    7535.4235    5240.3716   -29393.125    15.271981    13.225884     28.31304    5718.8219 
  996500      996.486    556.73216    22.884323    -429.7686   -406.88427   -4952.0966    9712.2634    5142.9154   -29711.469    15.271983    13.225886    28.313023    5718.8202 
  997000      996.986    603.65601    24.813115   -431.68898   -406.87586   -6476.9361    6325.1591    5628.3221    -31384.29    15.271986    13.225888    28.313005    5718.8184 
  997500      997.486    571.04111    23.472489   -430.33948   -406.86699   -4404.8902    6378.6371    7838.8967   -27432.204    15.271988     13.22589    28.312988    5718.8167 
  998000      997.986    589.65435     24.23758   -431.09563   -406.85805   -4187.0414    4601.4723    6291.2973   -23453.894     15.27199    13.225892     28.31297    5718.8149 
  998500      998.486    558.46537    22.955566   -429.80343   -406.84787   -4821.3401    7824.8505    9534.3236   -31823.194    15.271993    13.225894    28.312953    5718.8132 
  999000      998.986    541.58596    22.261743   -429.09997   -406.83823   -3749.8952    10985.046    9781.6713   -32016.403    15.271995    13.225896    28.312935    5718.8114 
  999500      999.486    563.01448    23.142556   -429.97243   -406.82987    -6310.442    4995.1018    5922.8064   -29849.234    15.271998    13.225898    28.312918    5718.8097 
 1000000      999.986    552.78118    22.721919   -429.54229   -406.82037   -3996.0085    9973.0539    8730.3938   -30691.473       15.272      13.2259      28.3129    5718.8079 
 1000014         1000    572.52963    23.533674   -430.35501   -406.82133   -4425.0823    9785.9796    9357.3477   -32418.574       15.272      13.2259      28.3129    5718.8079 
Loop time of 871.044 on 28 procs for 1000000 steps with 319 atoms

Performance: 99.191 ns/day, 0.242 hours/ns, 1148.048 timesteps/s
86.6% CPU use with 28 MPI tasks x no OpenMP threads

MPI task timing breakdown:
Section |  min time  |  avg time  |  max time  |%varavg| %total
---------------------------------------------------------------
Pair    | 727.19     | 758.71     | 787.91     |  58.7 | 87.10
Neigh   | 0.039184   | 0.059526   | 0.075728   |   3.9 |  0.01
Comm    | 69.849     | 98.98      | 127.36     | 152.0 | 11.36
Output  | 0.10125    | 0.10332    | 0.12423    |   1.3 |  0.01
Modify  | 5.2042     | 8.1072     | 12.136     |  61.2 |  0.93
Other   |            | 5.08       |            |       |  0.58

Nlocal:    11.3929 ave 17 max 6 min
Histogram: 3 2 2 3 3 5 4 3 1 2
Nghost:    647.214 ave 704 max 589 min
Histogram: 3 5 2 1 2 2 3 3 4 3
Neighs:    692.714 ave 1018 max 343 min
Histogram: 1 4 0 4 5 3 3 4 2 2
FullNghs:  1385.43 ave 2098 max 707 min
Histogram: 2 3 2 3 3 5 4 4 0 2

Total # of neighbors = 38792
Ave neighs/atom = 121.605
Neighbor list builds = 880
Dangerous builds = 0

write_restart   POSCAR_1x1x1.rest

#unfix    1
#undump   1
Total wall time: 0:14:31
