LAMMPS (7 Dec 2015)
#----------- Initialize Simulation ------------ restart01
#processors	2 2 2
units		metal
boundary	p p p     ## periodic boundary condition  on x y z axis ##
atom_style atomic
#atom_modify map array sort 0 0.0

read_data	POSCAR_1x1x1.lammps
  triclinic box = (0 0 0) to (15.4099 13.3454 27.2983) with tilt (-7.70485 0 0)
  2 by 2 by 7 MPI processor grid
  reading atoms ...
  319 atoms

#----------- Define Potential -----------------
pair_style meam
pair_coeff * * MgAlZn.library.meam Mg Al Zn MgAlZn.parameter.meam Mg Al Zn 	#1=Mg 2=Al 3=Zn	#atoms/mass

#----------- Neighbor List --------------------
neighbor 2.0 bin
neigh_modify delay 10 check yes

#--------------  Run a simulation (minimization) ---------------------------------------
minimize       1.0e-4   1.0e-6   100   1000          #結構優化的條件
WARNING: Resetting reneighboring criteria during minimization (../min.cpp:168)
Neighbor list info ...
  2 neighbor list requests
  update every 1 steps, delay 0 steps, check yes
  max neighbors/atom: 2000, page size: 100000
  master list distance cutoff = 8
  ghost atom cutoff = 8
  binsize = 4 -> bins = 6 4 7
Memory usage per processor = 8.66133 Mbytes
Step Temp E_pair E_mol TotEng Press 
       0            0    -434.5339            0    -434.5339   -4019.6076 
      14            0   -457.55763            0   -457.55763   -20649.376 
Loop time of 0.0223271 on 28 procs for 14 steps with 319 atoms

90.4% CPU use with 28 MPI tasks x no OpenMP threads

Minimization stats:
  Stopping criterion = energy tolerance
  Energy initial, next-to-last, final = 
        -434.533898665     -457.520773968      -457.55763043
  Force two-norm initial, final = 20.8673 0.788078
  Force max component initial, final = 5.3421 0.145862
  Final line search alpha, max atom move = 0.326736 0.0476584
  Iterations, force evaluations = 14 23

MPI task timing breakdown:
Section |  min time  |  avg time  |  max time  |%varavg| %total
---------------------------------------------------------------
Pair    | 0.01742    | 0.018917   | 0.020101   |   0.4 | 84.73
Neigh   | 0          | 0          | 0          |   0.0 |  0.00
Comm    | 0.0013167  | 0.002424   | 0.0039218  |   1.2 | 10.86
Output  | 0          | 0          | 0          |   0.0 |  0.00
Modify  | 0          | 0          | 0          |   0.0 |  0.00
Other   |            | 0.0009857  |            |       |  4.41

Nlocal:    11.3929 ave 17 max 6 min
Histogram: 2 4 3 0 3 5 4 5 1 1
Nghost:    647.679 ave 685 max 588 min
Histogram: 4 0 3 1 0 1 7 0 4 8
Neighs:    709.607 ave 1066 max 369 min
Histogram: 2 4 2 1 3 7 1 6 1 1
FullNghs:  1419.21 ave 2157 max 745 min
Histogram: 2 4 3 0 3 5 5 4 1 1

Total # of neighbors = 39738
Ave neighs/atom = 124.571
Neighbor list builds = 0
Dangerous builds = 0
velocity all  create 600.0 4928459 #rot yes dist gaussian

#--------------  Run a simulation (Relaxation)  ----------------------------------------
fix  1  all  nvt   temp  600.0  600.0  100				#damping constant
#fix  2  all  npt   temp  393.0  393.0  50 iso 0.0 0.0 1000.0
fix  2  all deform 1 x final 0 15.4147 y final 0 13.3495 z final 0 27.2633 xy final -7.70725 units lattice
#fix  3  all  npt   temp  393.0  393.0  50 z 0.0 0.0 1000.0

#variable b equal 1
#fix 2 all efield  0.0  0.0  v_b
#compute pot all pe/atom


#----------- Output --------------------------
thermo	 500
timestep  0.001		#1.0 fs
thermo_style	custom step time temp ke pe etotal press pxx pyy pzz lx ly lz vol

dump 1 all custom 10000 dump.eq id type x y z
dump_modify 1 sort  id

run        1000000	#1000 ps
Neighbor list info ...
  2 neighbor list requests
  update every 1 steps, delay 10 steps, check yes
  max neighbors/atom: 2000, page size: 100000
  master list distance cutoff = 8
  ghost atom cutoff = 8
  binsize = 4 -> bins = 6 4 7
Memory usage per processor = 7.56769 Mbytes
Step Time Temp KinEng PotEng TotEng Press Pxx Pyy Pzz Lx Ly Lz Volume 
      14            0          600    24.662836   -457.55763   -432.89479   -15956.975   -11542.289   -8376.9806   -27951.655      15.4099      13.3454      27.2983    5613.9303 
     500        0.486    334.21978    13.738013   -446.62887   -432.89085   -9182.8351   -7445.3316   -2160.7977   -17942.376    15.409902    13.345402    27.298283    5613.9285 
    1000        0.986    321.12728    13.199849    -446.0903   -432.89045   -9146.1264    -4911.111   -1358.8416   -21168.427    15.409905    13.345404    27.298265    5613.9266 
    1500        1.486    330.55398    13.587331   -446.47751   -432.89018    -9351.893    -6887.868   -3298.3609    -17869.45    15.409907    13.345406    27.298248    5613.9248 
    2000        1.986    317.63658    13.056364    -445.9451   -432.88873   -9240.3431   -5351.7384   -1343.5564   -21025.735     15.40991    13.345408     27.29823    5613.9229 
    2500        2.486    319.80458    13.145479   -446.03303   -432.88755   -8881.2817   -7313.9601    535.97021   -19865.855    15.409912     13.34541    27.298213    5613.9211 
    3000        2.986    311.25666     12.79412    -445.6798   -432.88568   -8489.4701   -7874.2219    345.24826   -17939.437    15.409914    13.345412    27.298195    5613.9192 
    3500        3.486     321.8916    13.231266     -446.115   -432.88373    -8782.545   -7544.5466   -2292.8563   -16510.232    15.409917    13.345414    27.298178    5613.9173 
    4000        3.986    344.19779    14.148156   -447.03018   -432.88203   -9958.8271   -7063.9698   -2437.0086   -20375.503    15.409919    13.345416     27.29816    5613.9155 
    4500        4.486    316.64848    13.015749   -445.89472   -432.87897   -9322.9214   -6255.5073   -5067.2149   -16646.042    15.409922    13.345418    27.298143    5613.9136 
    5000        4.986    299.28128    12.301875   -445.17751   -432.87563   -8683.9917   -6222.1508   -3158.2196   -16671.605    15.409924     13.34542    27.298125    5613.9118 
    5500        5.486    311.96717    12.823325   -445.69613    -432.8728   -9118.7687   -5114.8756   -3725.1349   -18516.295    15.409926    13.345422    27.298108    5613.9099 
    6000        5.986    299.68725    12.318562   -445.18792   -432.86936   -9026.0224   -6125.5582   -3458.2606   -17494.248    15.409929    13.345425     27.29809     5613.908 
    6500        6.486    318.12067    13.076263   -445.94207   -432.86581   -9610.8658   -6442.2843   -2307.0547   -20083.259    15.409931    13.345427    27.298073    5613.9062 
    7000        6.986    334.99715    13.769966   -446.63141   -432.86144   -10031.028   -8534.5062   -1200.2736   -20358.305    15.409934    13.345429    27.298055    5613.9043 
    7500        7.486    315.96116    12.987497   -445.84532   -432.85782   -8462.3097   -5968.9492   -2350.0652   -17067.915    15.409936    13.345431    27.298038    5613.9024 
    8000        7.986    323.13434    13.282349   -446.13493   -432.85258   -10328.794    -4950.269   -4438.1039   -21598.008    15.409938    13.345433     27.29802    5613.9006 
    8500        8.486    307.04355    12.620941    -445.4682   -432.84726   -9685.5948   -5440.9273   -5930.3694   -17685.488    15.409941    13.345435    27.298003    5613.8987 
    9000        8.986    312.50955    12.845619   -445.68761   -432.84199   -9420.0521   -5892.3976   -4774.2635   -17593.495    15.409943    13.345437    27.297985    5613.8969 
    9500        9.486    331.24525    13.615745    -446.4523   -432.83655   -8982.8117   -5552.4458   -3629.5602   -17766.429    15.409946    13.345439    27.297968     5613.895 
   10000        9.986    324.85968    13.353268   -446.18382   -432.83055   -9458.6473   -6804.1335   -2543.2878   -19028.521    15.409948    13.345441     27.29795    5613.8931 
   10500       10.486    323.11056    13.281371   -446.10523   -432.82385   -9190.8867   -5627.8441   -1494.3416   -20450.474     15.40995    13.345443    27.297933    5613.8913 
   11000       10.986    319.69505    13.140977   -445.95876   -432.81778   -9660.7994   -6666.5119   -2511.3027   -19804.584    15.409953    13.345445    27.297915    5613.8894 
   11500       11.486    318.08474    13.074786   -445.88549    -432.8107   -9451.7995   -4926.5008   -4576.0451   -18852.853    15.409955    13.345447    27.297898    5613.8875 
   12000       11.986    324.04504    13.319783    -446.1237   -432.80392   -8833.6857   -3697.1168   -5057.1936   -17746.747    15.409958    13.345449     27.29788    5613.8857 
   12500       12.486    317.67451    13.057924   -445.85418   -432.79626   -8652.4935   -4634.5127   -1468.8813   -19854.086     15.40996    13.345451    27.297863    5613.8838 
   13000       12.986    320.87266    13.189383    -445.9782   -432.78882   -10073.608   -7113.3274    -3244.827   -19862.669    15.409962    13.345453    27.297845     5613.882 
   13500       13.486    314.01817    12.907631   -445.68801   -432.78038   -9269.5152   -5976.5423   -3412.3095   -18419.694    15.409965    13.345455    27.297828    5613.8801 
   14000       13.986    310.42413    12.759899   -445.53157   -432.77167   -8856.7782   -6475.9865   -2286.5512   -17807.797    15.409967    13.345457     27.29781    5613.8782 
   14500       14.486    312.60715    12.849631   -445.61226   -432.76263    -9194.309   -4207.7723   -2674.7729   -20700.382     15.40997    13.345459    27.297793    5613.8764 
   15000       14.986     316.2174     12.99803   -445.75164   -432.75361   -9320.6177   -4014.8631   -5011.5301    -18935.46    15.409972    13.345461    27.297775    5613.8745 
   15500       15.486    326.04477    13.401981    -446.1465   -432.74452   -9357.3527   -8245.9184   -3825.4317   -16000.708    15.409974    13.345463    27.297758    5613.8726 
   16000       15.986    317.71922    13.059762   -445.79469   -432.73493   -9356.5282    -6976.546   -1922.7124   -19170.326    15.409977    13.345466     27.29774    5613.8708 
   16500       16.486    333.32604    13.701276   -446.42607   -432.72479   -8581.5646   -4947.5074   -2198.1101   -18599.076    15.409979    13.345468    27.297723    5613.8689 
   17000       16.986    336.50873    13.832099   -446.54661   -432.71451   -9938.3419   -5057.8407   -3971.0838   -20786.101    15.409982     13.34547    27.297705    5613.8671 
   17500       17.486    333.00358    13.688021   -446.39198   -432.70396   -9675.3112   -6139.5917   -3108.2839   -19778.058    15.409984    13.345472    27.297688    5613.8652 
   18000       17.986     314.4657    12.926027   -445.61898   -432.69295   -8934.7941    -5422.465    -3251.803   -18130.114    15.409986    13.345474     27.29767    5613.8633 
   18500       18.486    316.20293    12.997435   -445.67883    -432.6814    -8431.429   -4878.8782   -1517.5011   -18897.908    15.409989    13.345476    27.297653    5613.8615 
   19000       18.986    315.84311    12.982645   -445.65278   -432.67013   -8632.3021    -4074.028    -4248.403   -17574.475    15.409991    13.345478    27.297635    5613.8596 
   19500       19.486    306.50017    12.598606   -445.25687   -432.65827   -9480.8917   -5956.1427   -2001.5153   -20485.017    15.409994     13.34548    27.297618    5613.8577 
   20000       19.986    318.40484    13.087944   -445.73464    -432.6467   -9873.8228   -7413.0195   -3132.3832   -19076.066    15.409996    13.345482      27.2976    5613.8559 
   20500       20.486    318.06875    13.074129   -445.70802   -432.63389   -9000.2947   -5937.3974   -2969.6934   -18093.793    15.409998    13.345484    27.297583     5613.854 
   21000       20.986    338.55544    13.916229   -446.53809   -432.62186   -8265.1538   -4696.0632   -3766.0683    -16333.33    15.410001    13.345486    27.297565    5613.8522 
   21500       21.486    325.45587    13.377774   -445.98632   -432.60854   -9012.6975   -7906.7629   -1672.0233   -17459.306    15.410003    13.345488    27.297548    5613.8503 
   22000       21.986     310.4003    12.758919   -445.35426   -432.59534   -7770.4617   -5631.7926   -620.23019   -17059.362    15.410006     13.34549     27.29753    5613.8484 
   22500       22.486    331.08416    13.609124    -446.1915   -432.58238   -10105.329   -4508.9877   -3301.3459   -22505.654    15.410008    13.345492    27.297513    5613.8466 
   23000       22.986    319.50487     13.13316   -445.70147   -432.56831   -8664.7445   -3570.7021   -2455.4238   -19968.107     15.41001    13.345494    27.297495    5613.8447 
   23500       23.486    324.60293    13.342714   -445.89733   -432.55462   -9691.3429   -5598.3166   -5215.2972   -18260.415    15.410013    13.345496    27.297478    5613.8428 
   24000       23.986     298.7196    12.278787   -444.81817   -432.53939   -8269.8078   -4979.8407   -1406.5374   -18423.045    15.410015    13.345498     27.29746     5613.841 
   24500       24.486    308.71132    12.689494     -445.215    -432.5255   -8957.7478   -5017.3849     -2945.75   -18910.109    15.410018      13.3455    27.297443    5613.8391 
   25000       24.986    334.46542     13.74811   -446.25868   -432.51057   -9478.4709   -5722.8284   -1232.1876   -21480.397     15.41002    13.345502    27.297425    5613.8373 
   25500       25.486    313.61307    12.890979   -445.38631   -432.49533   -9015.5526   -5546.9648   -2441.4756   -19058.217    15.410022    13.345504    27.297408    5613.8354 
   26000       25.986    319.42239     13.12977   -445.60981   -432.48004   -8152.6176   -4582.5626   -3298.2326   -16577.058    15.410025    13.345507     27.29739    5613.8335 
   26500       26.486    320.23261    13.163074   -445.62763   -432.46455   -10059.734   -4967.4654   -3243.4039   -21968.332    15.410027    13.345509    27.297373    5613.8317 
   27000       26.986    316.82543    13.023022   -445.47149   -432.44847   -9011.3983   -5993.1056   -2624.8598   -18416.229     15.41003    13.345511    27.297355    5613.8298 
   27500       27.486    333.09766    13.691888   -446.12474   -432.43285   -9220.1268   -5148.6787   -2297.1347   -20214.567    15.410032    13.345513    27.297338     5613.828 
   28000       27.986    325.88248     13.39531   -445.81168   -432.41637   -9669.7639   -7581.1074   -2420.4131   -19007.771    15.410034    13.345515     27.29732    5613.8261 
   28500       28.486    315.43482    12.965862   -445.36563   -432.39977   -9319.1974   -6097.2636   -1052.8841   -20807.445    15.410037    13.345517    27.297303    5613.8242 
   29000       28.986    316.77236    13.020841   -445.40424    -432.3834   -9234.4711   -5467.3408   -1656.8069   -20579.265    15.410039    13.345519    27.297285    5613.8224 
   29500       29.486    322.22478    13.244961   -445.61146    -432.3665   -8989.0974   -5631.5007    -2255.928   -19079.863    15.410042    13.345521    27.297268    5613.8205 
   30000       29.986     327.5899    13.465493   -445.81489   -432.34939   -9626.6974   -5449.6878   -3058.5725   -20371.832    15.410044    13.345523     27.29725    5613.8186 
   30500       30.486    332.42641    13.664297   -445.99627   -432.33198   -10010.147   -6933.0295   -1448.5018   -21648.911    15.410046    13.345525    27.297233    5613.8168 
   31000       30.986    329.18819     13.53119   -445.84568   -432.31449   -9830.1969    -5954.827   -965.56285   -22570.201    15.410049    13.345527    27.297215    5613.8149 
   31500       31.486    309.44737    12.719749   -445.01652   -432.29677   -8987.4458   -4868.3726   -4224.3464   -17869.619    15.410051    13.345529    27.297198    5613.8131 
   32000       31.986    325.22276    13.368193   -445.64709    -432.2789   -8589.5492   -2650.4366   -4504.5443   -18613.667    15.410054    13.345531     27.29718    5613.8112 
   32500       32.486    312.29912     12.83697   -445.09839   -432.26142   -9270.8803    -5602.194   -3983.6022   -18226.845    15.410056    13.345533    27.297163    5613.8093 
   33000       32.986    335.41126    13.786988   -446.03087   -432.24389   -8794.2836    -6265.888   -3863.4057   -16253.557    15.410058    13.345535    27.297145    5613.8075 
   33500       33.486    334.50973    13.749931   -445.97509   -432.22516   -9107.3171   -5779.7612   -3317.9739   -18224.216    15.410061    13.345537    27.297128    5613.8056 
   34000       33.986    335.79464    13.802747   -446.00973   -432.20698   -8868.6037   -5681.6102   -3405.9589   -17518.242    15.410063    13.345539     27.29711    5613.8037 
   34500       34.486    342.30546    14.070372   -446.25878    -432.1884   -9268.9813   -4502.2065   -2945.0347   -20359.703    15.410066    13.345541    27.297093    5613.8019 
   35000       34.986    325.10551    13.363373   -445.53262   -432.16925   -8045.5304   -5368.4622   -3521.3846   -15246.744    15.410068    13.345543    27.297075       5613.8 
   35500       35.486    324.00444    13.318114   -445.46902    -432.1509   -9693.9683    -6747.276    -2141.162   -20193.467     15.41007    13.345545    27.297058    5613.7982 
   36000       35.986    313.34646    12.880021   -445.01182    -432.1318   -8099.7262   -5554.7502   -486.37914   -18258.049    15.410073    13.345548     27.29704    5613.7963 
   36500       36.486     320.4082    13.170291   -445.28348   -432.11319   -9239.1234   -6077.8462   -3743.2465   -17896.277    15.410075     13.34555    27.297023    5613.7944 
   37000       36.986     336.8377    13.845622   -445.94049   -432.09486   -7464.3952   -7946.3693   -1346.2485   -13100.568    15.410078    13.345552    27.297005    5613.7926 
   37500       37.486    330.43158      13.5823   -445.65724   -432.07494   -9808.6875    -8642.604   -2149.2563   -18634.202     15.41008    13.345554    27.296988    5613.7907 
   38000       37.986    320.59619    13.178019    -445.2346   -432.05658   -7981.8347   -5785.0361   -1451.9024   -16708.566    15.410082    13.345556     27.29697    5613.7888 
   38500       38.486    316.90739    13.026392   -445.06309    -432.0367   -9015.0714   -5277.8133   -5279.6581   -16487.743    15.410085    13.345558    27.296953     5613.787 
   39000       38.986    327.02443     13.44225   -445.46034   -432.01809   -7785.2153   -4833.8145   -2921.8932   -15599.938    15.410087     13.34556    27.296935    5613.7851 
   39500       39.486    333.22548    13.697142   -445.69582   -431.99868   -8535.1341   -4760.8915     -2614.36   -18230.151     15.41009    13.345562    27.296918    5613.7833 
   40000       39.986      308.131     12.66564   -444.64537   -431.97973   -8721.1942   -7387.5117   -2259.1579   -16516.913    15.410092    13.345564      27.2969    5613.7814 
   40500       40.486    340.63435    14.001681   -445.96248    -431.9608   -8858.6359   -5301.9815     -3772.75   -17501.176    15.410094    13.345566    27.296883    5613.7795 
   41000       40.986    316.85191    13.024111   -444.96567   -431.94156   -9321.1689   -3717.7546   -1874.6368   -22371.115    15.410097    13.345568    27.296865    5613.7777 
   41500       41.486     330.3032    13.577023   -445.49995   -431.92293   -9064.0938   -4304.8607   -650.59494   -22236.826    15.410099     13.34557    27.296848    5613.7758 
   42000       41.986    344.81831    14.173662   -446.07743   -431.90377   -10103.927   -7136.8577   -2954.0261   -20220.897    15.410102    13.345572     27.29683    5613.7739 
   42500       42.486    326.21885    13.409136   -445.29353    -431.8844   -8657.9986   -7384.7104   -2354.1192   -16235.166    15.410104    13.345574    27.296813    5613.7721 
   43000       42.986    303.39759    12.471075   -444.33639   -431.86532   -8620.3918   -6126.8694   -2395.6889   -17338.617    15.410106    13.345576    27.296795    5613.7702 
   43500       43.486      338.411    13.910291   -445.75718   -431.84689   -8725.3404   -4803.9441   -2507.8688   -18864.208    15.410109    13.345578    27.296778    5613.7684 
   44000       43.986    333.03622    13.689362   -445.51678   -431.82742   -10222.285   -4781.9744   -4812.6488   -21072.232    15.410111     13.34558     27.29676    5613.7665 
   44500       44.486    317.02695    13.031306   -444.83981    -431.8085   -7914.1598   -4927.4798   -2410.7076   -16404.292    15.410114    13.345582    27.296743    5613.7646 
   45000       44.986    326.88161    13.436379   -445.22658    -431.7902   -8861.3776   -5677.6451   -2652.4687   -18254.019    15.410116    13.345584    27.296725    5613.7628 
   45500       45.486    321.57514    13.218258   -444.98948   -431.77122   -8088.2093   -6216.4001   -2835.2054   -15213.022    15.410118    13.345586    27.296708    5613.7609 
   46000       45.986    322.40144    13.252223    -445.0045   -431.75228   -7762.2195    -5431.986   -1981.4361   -15873.237    15.410121    13.345589     27.29669     5613.759 
   46500       46.486    323.36181    13.291698   -445.02501   -431.73331   -8328.1326   -5389.8888   -542.25618   -19052.253    15.410123    13.345591    27.296673    5613.7572 
   47000       46.986    336.98499    13.851676   -445.56677   -431.71509   -8360.1011   -4722.4972   -2466.8765    -17890.93    15.410126    13.345593    27.296655    5613.7553 
   47500       47.486    347.85143    14.298338   -445.99432   -431.69598     -9887.96   -7547.4885   -2951.4504   -19164.941    15.410128    13.345595    27.296638    5613.7535 
   48000       47.986    336.36781    13.826307   -445.50361    -431.6773   -9141.4661   -6601.3241   -1619.2922   -19203.782     15.41013    13.345597     27.29662    5613.7516 
   48500       48.486    326.96447    13.439785   -445.09884   -431.65906   -8012.7833   -6434.6429   -912.90535   -16690.802    15.410133    13.345599    27.296603    5613.7497 
   49000       48.986    349.77999    14.377611   -446.01811    -431.6405   -9077.4561   -8069.3715    -2913.785   -16249.212    15.410135    13.345601    27.296585    5613.7479 
   49500       49.486    346.80025    14.255129   -445.87789   -431.62276   -10298.596   -5332.2003    -4937.578   -20626.008    15.410138    13.345603    27.296568     5613.746 
   50000       49.986    328.97516    13.522434   -445.12661   -431.60417   -8611.4567   -4943.8957    161.06579    -21051.54     15.41014    13.345605     27.29655    5613.7441 
   50500       50.486     338.0349    13.894832    -445.4812   -431.58637   -8831.4532   -5472.4717   -3783.2965   -17238.591    15.410142    13.345607    27.296533    5613.7423 
   51000       50.986    339.25664    13.945051   -445.51343   -431.56837   -9512.4686   -7477.2483   -3354.1137   -17706.044    15.410145    13.345609    27.296515    5613.7404 
   51500       51.486    346.26632    14.233182   -445.78341   -431.55023   -9722.8593    -7448.138   -3318.1675   -18402.272    15.410147    13.345611    27.296498    5613.7386 
   52000       51.986    348.58703    14.328575    -445.8611   -431.53253   -9169.7583    -7422.406   -2235.2208   -17851.648     15.41015    13.345613     27.29648    5613.7367 
   52500       52.486    334.16398    13.735719   -445.25024   -431.51452   -8001.9079   -7006.3495   -1950.9126   -15048.462    15.410152    13.345615    27.296463    5613.7348 
   53000       52.986    360.33198    14.811347   -446.30884   -431.49749   -10072.708   -8608.6748   -4262.4333   -17347.017    15.410154    13.345617    27.296445     5613.733 
   53500       53.486    337.35134    13.866734   -445.34623   -431.47949   -9509.9104   -9544.5828   -2210.0001   -16775.148    15.410157    13.345619    27.296428    5613.7311 
   54000       53.986    340.54922    13.998182   -445.46055   -431.46236    -10173.44   -8467.7406     -4030.21    -18022.37    15.410159    13.345621     27.29641    5613.7292 
   54500       54.486     339.6182    13.959913   -445.40491     -431.445   -9410.1195   -6931.9444   -3149.5773   -18148.837    15.410162    13.345623    27.296393    5613.7274 
   55000       54.986    337.32896    13.865814   -445.29345   -431.42763   -10159.323   -9432.8162   -4679.2186   -16365.934    15.410164    13.345625    27.296375    5613.7255 
   55500       55.486    323.46386    13.295893   -444.70614   -431.41024   -9681.8999   -7277.3349   -3054.9377   -18713.427    15.410166    13.345627    27.296358    5613.7237 
   56000       55.986    336.35423    13.825748   -445.21959   -431.39384   -9316.4213   -7803.1157   -2933.4443   -17212.704    15.410169     13.34563     27.29634    5613.7218 
   56500       56.486    335.13944    13.775815   -445.15239   -431.37657   -9363.3166    -7670.152   -1977.2232   -18442.575    15.410171    13.345632    27.296323    5613.7199 
   57000       56.986    336.57938    13.835003   -445.19471    -431.3597   -9191.3824   -6475.8869   -2905.1946   -18193.066    15.410174    13.345634    27.296305    5613.7181 
   57500       57.486    344.31794    14.153095   -445.49641   -431.34332   -8957.0245   -7332.8381   -2275.5414   -17262.694    15.410176    13.345636    27.296288    5613.7162 
   58000       57.986    340.58242    13.999547   -445.32592   -431.32638   -8991.0029   -6153.8202   -3425.1043   -17394.084    15.410178    13.345638     27.29627    5613.7143 
   58500       58.486    340.84126    14.010187   -445.32014   -431.30995   -9536.6295   -5522.9337   -4053.2487   -19033.706    15.410181     13.34564    27.296253    5613.7125 
   59000       58.986    340.55665    13.998488   -445.29242   -431.29394   -8900.5366   -4562.5514   -3081.5267   -19057.532    15.410183    13.345642    27.296235    5613.7106 
   59500       59.486    338.34453    13.907559   -445.18454   -431.27698   -9165.6012   -7012.8457   -2403.3652   -18080.593    15.410186    13.345644    27.296218    5613.7088 
   60000       59.986    330.16838    13.571481   -444.83232   -431.26084   -8718.4551   -6482.4967   -3004.9856   -16667.883    15.410188    13.345646      27.2962    5613.7069 
   60500       60.486    326.34223    13.414208   -444.65855   -431.24434   -7606.3622   -4417.8725    -3315.205   -15086.009     15.41019    13.345648    27.296183     5613.705 
   61000       60.986    355.74519    14.622809   -445.85108   -431.22827   -10827.869   -8298.3458   -5062.9274   -19122.334    15.410193     13.34565    27.296165    5613.7032 
   61500       61.486    343.07647    14.102064   -445.31383   -431.21177   -8137.9144    -5189.439    -3427.684    -15796.62    15.410195    13.345652    27.296148    5613.7013 
   62000       61.986    346.17356    14.229369   -445.42491   -431.19554   -8595.6242    -7565.408    -1886.135    -16335.33    15.410198    13.345654     27.29613    5613.6994 
   62500       62.486    342.69146    14.086238   -445.26586   -431.17962   -8811.0917   -7007.1421   -2139.9954   -17286.138      15.4102    13.345656    27.296113    5613.6976 
   63000       62.986       344.88    14.176198   -445.33984   -431.16364   -9329.7782   -5349.4222   -6843.8772   -15796.035    15.410202    13.345658    27.296095    5613.6957 
   63500       63.486    349.91603    14.383202   -445.53052   -431.14732   -9024.4126   -7512.8358   -2875.6961   -16684.706    15.410205     13.34566    27.296078    5613.6939 
   64000       63.986     342.3989    14.074213   -445.20577   -431.13156   -8482.6444   -6651.4445   -729.62294   -18066.866    15.410207    13.345662     27.29606     5613.692 
   64500       64.486    334.43536    13.746874   -444.86279   -431.11592    -9853.594    -6288.858   -3860.7013   -19411.223     15.41021    13.345664    27.296043    5613.6901 
   65000       64.986    355.25288    14.602572   -445.70245   -431.09988   -9310.6698   -3503.7257   -1026.2301   -23402.054    15.410212    13.345666    27.296025    5613.6883 
   65500       65.486    368.23018    15.136001   -446.22057   -431.08457   -11104.046    -8465.607   -3636.0688   -21210.463    15.410214    13.345668    27.296008    5613.6864 
   66000       65.986    338.04102    13.895083   -444.96264   -431.06755   -7781.4422   -3818.9033   -2429.5085   -17095.915    15.410217    13.345671     27.29599    5613.6845 
   66500       66.486    361.01437    14.839397    -445.8928    -431.0534   -9363.2818   -7214.3066   -4574.1296   -16301.409    15.410219    13.345673    27.295973    5613.6827 
   67000       66.986    339.10089    13.938649   -444.97526   -431.03661   -9305.4759   -8197.5171   -4569.0124   -15149.898    15.410222    13.345675    27.295955    5613.6808 
   67500       67.486    344.75876    14.171214   -445.19215   -431.02093   -9783.0957   -9040.5705   -2539.8819   -17768.835    15.410224    13.345677    27.295938     5613.679 
   68000       67.986    346.70271     14.25112   -445.25608   -431.00496   -10119.136   -5737.7406   -4561.4433   -20058.224    15.410226    13.345679     27.29592    5613.6771 
   68500       68.486    338.60001    13.918061   -444.90688   -430.98882   -7742.3117   -3819.2525   -1641.6692   -17766.013    15.410229    13.345681    27.295903    5613.6752 
   69000       68.986    352.91752    14.506578   -445.47997   -430.97339   -9557.3673   -7766.2431   -4101.9705   -16803.888    15.410231    13.345683    27.295885    5613.6734 
   69500       69.486    332.54284    13.669082   -444.62643   -430.95734   -9652.5811   -8404.1014   -2056.0907   -18497.551    15.410234    13.345685    27.295868    5613.6715 
   70000       69.986    346.02085    14.223092   -445.16509     -430.942   -9543.0918   -6670.1967    -4571.188   -17387.891    15.410236    13.345687     27.29585    5613.6696 
   70500       70.486    329.67109     13.55104   -444.47674    -430.9257   -8742.8146   -4553.2495   -1872.0575   -19803.137    15.410238    13.345689    27.295833    5613.6678 
   71000       70.986    336.89623    13.848027   -444.75802      -430.91   -8572.7502   -5655.7147   -1986.6235   -18075.912    15.410241    13.345691    27.295815    5613.6659 
   71500       71.486    360.12841     14.80298   -445.69781   -430.89483   -9942.4632   -7890.0844   -4903.6226   -17033.683    15.410243    13.345693    27.295798    5613.6641 
   72000       71.986    333.47149    13.707254   -444.58547   -430.87821   -7719.9923   -5174.4794   -864.48633   -17121.011    15.410246    13.345695     27.29578    5613.6622 
   72500       72.486    346.71461    14.251609   -445.11432   -430.86271   -8852.4129   -6366.6171   -691.32157     -19499.3    15.410248    13.345697    27.295763    5613.6603 
   73000       72.986    342.83802    14.092263   -444.93854   -430.84628   -9426.1253   -5292.8628   -2314.3766   -20671.137     15.41025    13.345699    27.295745    5613.6585 
   73500       73.486    355.26403     14.60303   -445.43403     -430.831   -9504.6694   -7053.1696   -3744.0608   -17716.778    15.410253    13.345701    27.295728    5613.6566 
   74000       73.986    343.06333    14.101524   -444.91624   -430.81471   -9644.7897   -6637.8657   -3742.9449   -18553.559    15.410255    13.345703     27.29571    5613.6547 
   74500       74.486    370.68473    15.236894   -446.03567   -430.79878   -9513.0282   -4777.6296   -3863.3517   -19898.103    15.410258    13.345705    27.295693    5613.6529 
   75000       74.986    343.57168     14.12242   -444.90473   -430.78231   -8635.3758   -5700.0548   -342.18786   -19863.885     15.41026    13.345707    27.295675     5613.651 
   75500       75.486    323.33064    13.290417   -444.05682   -430.76641   -8086.9638   -5252.5149   -1758.0997   -17250.277    15.410262    13.345709    27.295658    5613.6492 
   76000       75.986    335.90289    13.807196   -444.55714   -430.74994   -9099.3441   -7775.6589   -3929.1465   -15593.227    15.410265    13.345712     27.29564    5613.6473 
   76500       76.486    363.23741    14.930774   -445.66473   -430.73396   -9297.4884   -3849.1848    -4846.097   -19197.183    15.410267    13.345714    27.295623    5613.6454 
   77000       76.986    341.33965    14.030673   -444.74811   -430.71744   -8431.3823   -8147.4587    629.27446   -17775.963     15.41027    13.345716    27.295605    5613.6436 
   77500       77.486     359.7417    14.787084   -445.48787   -430.70078   -9075.4392   -4168.0642   -3228.3871   -19829.866    15.410272    13.345718    27.295588    5613.6417 
   78000       77.986    343.12617    14.104107   -444.78887   -430.68476    -8390.592   -7104.4925   -542.84106   -17524.443    15.410274     13.34572     27.29557    5613.6398 
   78500       78.486    333.39045    13.703923   -444.37165   -430.66773   -8812.1402   -6053.2071   -1874.6863   -18508.527    15.410277    13.345722    27.295553     5613.638 
   79000       78.986    343.82009     14.13263   -444.78453   -430.65189   -8321.9027   -8479.2557   -439.69344   -16046.759    15.410279    13.345724    27.295535    5613.6361 
   79500       79.486     341.4942    14.037026   -444.67188   -430.63486    -8780.149   -5694.0261   -1843.1319   -18803.289    15.410282    13.345726    27.295518    5613.6343 
   80000       79.986    351.24883    14.437987   -445.05682   -430.61883   -8692.0083   -7246.4923   -3739.4154   -15090.117    15.410284    13.345728      27.2955    5613.6324 
   80500       80.486    359.02043    14.757436   -445.35949   -430.60205   -9444.1548   -9319.9423   -1077.6461   -17934.876    15.410286     13.34573    27.295483    5613.6305 
   81000       80.986    361.34233    14.852877   -445.43777   -430.58489   -9971.4323   -7641.8261   -3032.2848   -19240.186    15.410289    13.345732    27.295465    5613.6287 
   81500       81.486    361.09859    14.842858   -445.41105   -430.56819   -9221.7946   -9133.0114     -2370.29   -16162.082    15.410291    13.345734    27.295448    5613.6268 
   82000       81.986    329.45858    13.542305   -444.09278   -430.55047   -8345.1974   -5020.0503   -3572.8475   -16442.694    15.410294    13.345736     27.29543    5613.6249 
   82500       82.486    357.28074    14.685927   -445.21967   -430.53374   -9372.6358   -7758.0019   -2484.5867   -17875.319    15.410296    13.345738    27.295413    5613.6231 
   83000       82.986    343.01571    14.099567   -444.61599   -430.51642   -9316.0207    -6858.142   -2180.0708   -18909.849    15.410298     13.34574    27.295395    5613.6212 
   83500       83.486    342.81456    14.091299   -444.59053   -430.49924   -8259.2133   -6831.6043   -356.05939   -17589.976    15.410301    13.345742    27.295378    5613.6194 
   84000       83.986    339.01725    13.935211   -444.41705   -430.48184   -8346.4591   -5841.0532   -4092.7635   -15105.561    15.410303    13.345744     27.29536    5613.6175 
   84500       84.486    356.83251    14.667502   -445.13229   -430.46479   -9574.0196   -7584.7237   -1716.4114   -19420.924    15.410306    13.345746    27.295343    5613.6156 
   85000       84.986    356.14661    14.639309   -445.08691   -430.44761   -8999.7992   -5817.8511   -2417.5805   -18763.966    15.410308    13.345748    27.295325    5613.6138 
   85500       85.486    342.22606    14.067108   -444.49636   -430.42925   -7307.7502   -4091.3996   -3243.7675   -14588.083     15.41031     13.34575    27.295308    5613.6119 
   86000       85.986    343.45585    14.117658   -444.52914   -430.41148   -8601.3172   -2300.3441   -6253.2683   -17250.339    15.410313    13.345753     27.29529      5613.61 
   86500       86.486    355.97809    14.632382   -445.02664   -430.39426   -7507.2995   -5788.5352   -1366.9414   -15366.422    15.410315    13.345755    27.295273    5613.6082 
   87000       86.986    348.52657    14.326089   -444.70221   -430.37612   -9426.9813   -4749.8953   -3547.7852   -19983.263    15.410318    13.345757    27.295255    5613.6063 
   87500       87.486    368.67678    15.154358   -445.51261   -430.35825   -7654.2232   -2348.0501     -2952.09    -17662.53     15.41032    13.345759    27.295238    5613.6045 
   88000       87.986    354.40728    14.567814   -444.90758   -430.33976   -9202.0022   -9116.6478   -2973.3037   -15516.055    15.410322    13.345761     27.29522    5613.6026 
   88500       88.486    343.16692    14.105782   -444.42766   -430.32188   -8915.7519   -7300.0033   -1978.8002   -17468.452    15.410325    13.345763    27.295203    5613.6007 
   89000       88.986    346.28702    14.234033   -444.53809   -430.30406   -8454.8755   -6659.3849   -4464.4503   -14240.791    15.410327    13.345765    27.295185    5613.5989 
   89500       89.486    341.60805    14.041705   -444.32746   -430.28575   -9934.4302   -8036.6693   -4402.8377   -17363.784     15.41033    13.345767    27.295168     5613.597 
   90000       89.986    348.95766    14.343809    -444.6108   -430.26699   -8735.5353   -5541.8907   -3112.1063   -17552.609    15.410332    13.345769     27.29515    5613.5951 
   90500       90.486    346.90794    14.259556   -444.50836    -430.2488   -8302.4788   -5434.7073   -3813.0287     -15659.7    15.410334    13.345771    27.295133    5613.5933 
   91000       90.986    360.21574    14.806569   -445.03696   -430.23039    -9765.631   -6931.8258   -3053.0564   -19312.011    15.410337    13.345773    27.295115    5613.5914 
   91500       91.486    346.81046    14.255549   -444.46744   -430.21189   -8108.9197   -4940.2788   -2039.9084   -17346.572    15.410339    13.345775    27.295098    5613.5896 
   92000       91.986    333.96045    13.727353   -443.92007   -430.19272   -8156.9711   -5420.0578     -3314.55   -15736.305    15.410342    13.345777     27.29508    5613.5877 
   92500       92.486    330.37457    13.579956   -443.75378   -430.17383   -7963.3178   -5870.4921    -1744.864   -16274.597    15.410344    13.345779    27.295063    5613.5858 
   93000       92.986     353.0535    14.512167   -444.66732   -430.15515   -8202.2402   -4652.1471   -1998.9955   -17955.578    15.410346    13.345781    27.295045     5613.584 
   93500       93.486    352.88598    14.505281   -444.64143   -430.13615   -8360.3509   -5530.2445   -2730.0632   -16820.745    15.410349    13.345783    27.295028    5613.5821 
   94000       93.986    362.54926    14.902488   -445.02001   -430.11752    -8169.849   -6585.7464   -2830.0003     -15093.8    15.410351    13.345785     27.29501    5613.5802 
   94500       94.486    344.24749    14.150199   -444.24803   -430.09783   -7879.2422   -7823.3215   -1197.8563   -14616.549    15.410354    13.345787    27.294993    5613.5784 
   95000       94.986    363.58673    14.945133   -445.02383   -430.07869   -9609.0864   -7794.8249   -3397.4909   -17634.943    15.410356    13.345789    27.294975    5613.5765 
   95500       95.486    350.81048    14.419969   -444.47949   -430.05952   -7333.0858   -6282.8637   -1216.3304   -14500.063    15.410358    13.345791    27.294958    5613.5747 
   96000       95.986    369.14829    15.173739   -445.21384   -430.04011   -9449.2155    -5256.046   -5569.5004     -17522.1    15.410361    13.345794     27.29494    5613.5728 
   96500       96.486    361.77574    14.870693   -444.89103   -430.02034   -8121.6402   -8511.2139   -1781.5073   -14072.199    15.410363    13.345796    27.294923    5613.5709 
   97000       96.986    360.60382    14.822521   -444.82321   -430.00069    -9320.622    -6281.069   -4180.4831   -17500.314    15.410366    13.345798    27.294905    5613.5691 
   97500       97.486    351.51505     14.44893   -444.42961   -429.98068   -9136.5403    -5880.248   -5090.7133    -16438.66    15.410368      13.3458    27.294888    5613.5672 
   98000       97.986    360.79722    14.830471   -444.79185   -429.96138   -8823.0119   -3953.5144   -5103.6256   -17411.896     15.41037    13.345802     27.29487    5613.5653 
   98500       98.486    347.77023       14.295   -444.23597   -429.94097   -9005.6463   -8482.5281   -1265.5003    -17268.91    15.410373    13.345804    27.294853    5613.5635 
   99000       98.986    344.16991     14.14701   -444.06871    -429.9217   -8082.4166   -4885.1723   -4890.8423   -14471.235    15.410375    13.345806    27.294835    5613.5616 
   99500       99.486    357.65069    14.701134   -444.60224   -429.90111   -8762.5642   -5875.7024   -5485.1979   -14926.792    15.410378    13.345808    27.294818    5613.5598 
  100000       99.986    362.35858     14.89465   -444.77605    -429.8814    -8992.645   -5922.3183   -3051.6893   -18003.927     15.41038     13.34581      27.2948    5613.5579 
  100500      100.486    364.31624    14.975119    -444.8363   -429.86118   -8355.6085   -6051.7147    -1247.091    -17768.02    15.410382    13.345812    27.294783     5613.556 
  101000      100.986    353.58027     14.53382   -444.37411   -429.84029   -7264.9508   -4673.2903   -672.12622   -16449.436    15.410385    13.345814    27.294765    5613.5542 
  101500      101.486    357.78882    14.706811   -444.52705   -429.82023    -8776.829   -7778.1345   -3852.0966   -14700.256    15.410387    13.345816    27.294748    5613.5523 
  102000      101.986    383.53886     15.76526   -445.56535   -429.80009   -8894.1019   -3509.6415   -3470.0514   -19702.613     15.41039    13.345818     27.29473    5613.5504 
  102500      102.486    358.12127    14.720477   -444.50001   -429.77954   -8949.6764   -6767.6872   -3621.7656   -16459.576    15.410392     13.34582    27.294713    5613.5486 
  103000      102.986    327.83382     13.47552    -443.2341   -429.75858   -8616.9482   -6726.5917   -2779.6526     -16344.6    15.410394    13.345822    27.294695    5613.5467 
  103500      103.486    342.17883    14.065167   -443.80348   -429.73831   -8892.6179   -6908.4014   -2105.2873   -17664.165    15.410397    13.345824    27.294678    5613.5449 
  104000      103.986    363.12152    14.926011   -444.64411    -429.7181   -8604.1698   -6323.8903   -2665.9627   -16822.656    15.410399    13.345826     27.29466     5613.543 
  104500      104.486    355.68329    14.620264    -444.3175   -429.69724   -8284.0946   -6016.6098     -2335.56   -16500.114    15.410402    13.345828    27.294643    5613.5411 
  105000      104.986    350.73919    14.417038   -444.09393   -429.67689   -7125.6657   -5438.3278   -1417.5749   -14521.095    15.410404     13.34583    27.294625    5613.5393 
  105500      105.486    346.38391    14.238016   -443.89355   -429.65554   -8150.6215   -5991.2822   -559.18312   -17901.399    15.410406    13.345832    27.294608    5613.5374 
  106000      105.986    346.77828    14.254226   -443.88919   -429.63497    -7812.843   -6410.0688   -1819.4925   -15208.968    15.410409    13.345835     27.29459    5613.5355 
  106500      106.486    354.23582    14.560766   -444.17538   -429.61461   -7180.4366   -4358.9293   -1217.9832   -15964.397    15.410411    13.345837    27.294573    5613.5337 
  107000      106.986    371.32902    15.263378   -444.85617   -429.59279    -8105.447    -5712.449   -2845.9933   -15757.899    15.410414    13.345839    27.294555    5613.5318 
  107500      107.486    374.75094    15.404035   -444.97571   -429.57167   -7709.4403   -7073.5455   -1100.4472   -14954.328    15.410416    13.345841    27.294538      5613.53 
  108000      107.986    369.67879    15.195546   -444.74568   -429.55014   -8553.3487   -5396.3115   -1846.3705   -18417.364    15.410418    13.345843     27.29452    5613.5281 
  108500      108.486    354.66142     14.57826   -444.10663   -429.52837   -8644.1957   -6656.0899   -2703.3829   -16573.114    15.410421    13.345845    27.294503    5613.5262 
  109000      108.986    356.33502    14.647053   -444.15428   -429.50723    -8319.676   -6917.6075   -3916.1478   -14125.273    15.410423    13.345847    27.294485    5613.5244 
  109500      109.486      366.299     15.05662   -444.54234   -429.48572   -8812.2523    -7519.284   -2799.0629    -16118.41    15.410426    13.345849    27.294468    5613.5225 
  110000      109.986    357.89732    14.711271   -444.17548   -429.46421   -7465.1092   -5003.8197   -2114.8783   -15276.629    15.410428    13.345851     27.29445    5613.5206 
  110500      110.486    372.44989    15.309451   -444.75186   -429.44241   -9530.4415   -7728.9174   -3383.1313   -17479.276     15.41043    13.345853    27.294433    5613.5188 
  111000      110.986    361.94005    14.877447   -444.29818   -429.42073   -7261.3633   -6205.0544   -1145.5289   -14433.507    15.410433    13.345855    27.294415    5613.5169 
  111500      111.486    360.03306     14.79906   -444.19766    -429.3986   -7873.3609    -7198.985   -3207.3329   -13213.765    15.410435    13.345857    27.294398    5613.5151 
  112000      111.986    352.54799    14.491389   -443.86826   -429.37687   -6666.3421   -4138.9058   -548.91246   -15311.208    15.410438    13.345859     27.29438    5613.5132 
  112500      112.486    382.74484    15.732622   -445.08854   -429.35591   -8064.1603   -4185.8864   -2270.1327   -17736.462     15.41044    13.345861    27.294363    5613.5113 
  113000      112.986    359.99895    14.797658    -444.1314   -429.33375   -7185.8326   -2535.2093   -4142.7547   -14879.534    15.410442    13.345863    27.294345    5613.5095 
  113500      113.486    352.79384    14.501494   -443.81298   -429.31148   -9067.7419   -7946.8484   -1237.3651   -18019.012    15.410445    13.345865    27.294328    5613.5076 
  114000      113.986    355.75181    14.623081   -443.91268    -429.2896   -9321.5855   -5482.2768   -5269.5605   -17212.919    15.410447    13.345867     27.29431    5613.5057 
  114500      114.486    357.95829    14.713778   -443.98138    -429.2676   -8894.4728   -6216.3419   -1804.1973   -18662.879     15.41045    13.345869    27.294293    5613.5039 
  115000      114.986    340.84799    14.010463   -443.25568   -429.24521   -7674.5153   -4171.1893   -873.31772   -17979.039    15.410452    13.345871    27.294275     5613.502 
  115500      115.486     346.7312    14.252291   -443.47542   -429.22313   -7956.1052   -6693.4379   -2561.9162   -14612.962    15.410454    13.345873    27.294258    5613.5002 
  116000      115.986    345.08805     14.18475   -443.38547   -429.20072   -8962.8625   -6406.3299    1344.9271   -21827.185    15.410457    13.345876     27.29424    5613.4983 
  116500      116.486     375.2568    15.424828   -444.60475   -429.17992    -8973.897    -5863.958    -3743.748   -17313.985    15.410459    13.345878    27.294223    5613.4964 
  117000      116.986    364.40064    14.978588   -444.13523   -429.15665   -9306.0531   -5581.4269   -5732.0372   -16604.695    15.410462     13.34588    27.294205    5613.4946 
  117500      117.486    354.21796    14.560032   -443.69378   -429.13375    -7596.168   -3059.4912   -5277.9082   -14451.105    15.410464    13.345882    27.294188    5613.4927 
  118000      117.986    382.81806    15.735631   -444.84746   -429.11183   -8466.5474   -7677.5574   -3407.9742   -14314.111    15.410466    13.345884     27.29417    5613.4908 
  118500      118.486    347.38703    14.279249   -443.36795    -429.0887   -7348.2718   -6378.6284    1549.8068   -17215.994    15.410469    13.345886    27.294153     5613.489 
  119000      118.986    333.44443    13.706142   -442.77245   -429.06631   -7523.4155   -2083.2643   -4229.8371   -16257.145    15.410471    13.345888    27.294135    5613.4871 
  119500      119.486    383.13305    15.748579    -444.7931   -429.04452   -8559.3042   -7032.9204   -463.82485   -18181.167    15.410474     13.34589    27.294118    5613.4853 
  120000      119.986    356.39733    14.649615   -443.67082    -429.0212   -7877.9903   -5360.5352   -1339.6766   -16933.759    15.410476    13.345892      27.2941    5613.4834 
  120500      120.486    353.27773    14.521384   -443.51958   -428.99819   -7970.7752   -4930.4259    -1803.448   -17178.452    15.410478    13.345894    27.294083    5613.4815 
  121000      120.986    367.60366    15.110248   -444.08654   -428.97629   -9086.4739   -7784.1866   -458.41524    -19016.82    15.410481    13.345896    27.294065    5613.4797 
  121500      121.486    348.50707    14.325288   -443.27825   -428.95296   -7853.7094   -5917.1618   -2267.9056   -15376.061    15.410483    13.345898    27.294048    5613.4778 
  122000      121.986     356.9973    14.674276   -443.60501   -428.93074   -8251.4002   -6223.2281   -2297.6533   -16233.319    15.410486      13.3459     27.29403    5613.4759 
  122500      122.486    374.82693    15.407158     -444.315   -428.90784    -8529.533   -6996.1378    -5383.515   -13208.946    15.410488    13.345902    27.294013    5613.4741 
  123000      122.986     367.2267    15.094753   -443.98009   -428.88534   -7561.7373   -3209.6613   -1513.5261   -17962.025     15.41049    13.345904    27.293995    5613.4722 
  123500      123.486    346.53098    14.244061   -443.10564   -428.86158   -7870.9489    -1477.761    -6411.664   -15723.422    15.410493    13.345906    27.293978    5613.4704 
  124000      123.986    354.91764    14.588792    -443.4272   -428.83841   -7587.3078   -4466.9678   -2489.4611   -15805.495    15.410495    13.345908     27.29396    5613.4685 
  124500      124.486    370.00004     15.20875   -444.02423   -428.81548   -8484.4217   -7702.0667    -4933.275   -12817.923    15.410498     13.34591    27.293943    5613.4666 
  125000      124.986    364.65628    14.989096   -443.78121   -428.79212   -7669.7714   -6475.1857   -2785.2297   -13748.899      15.4105    13.345912    27.293925    5613.4648 
  125500      125.486    378.43093      15.5553   -444.32444   -428.76914   -9083.5893   -8339.4172   -2445.1183   -16466.232    15.410502    13.345914    27.293908    5613.4629 
  126000      125.986    359.20943    14.765205   -443.51098   -428.74577   -8241.4642   -6794.3564   -1832.9524   -16097.084    15.410505    13.345917     27.29389     5613.461 
  126500      126.486    367.48916    15.105541   -443.82803   -428.72249   -8347.7575   -5603.2531   -3682.1795    -15757.84    15.410507    13.345919    27.293873    5613.4592 
  127000      126.986    378.68378    15.565693   -444.26628   -428.70058   -8465.5737   -6569.4853   -2346.4338   -16480.802     15.41051    13.345921    27.293855    5613.4573 
  127500      127.486     363.3554    14.935624   -443.61277   -428.67715   -7109.9013    -6691.862   -323.60439   -14314.238    15.410512    13.345923    27.293838    5613.4554 
  128000      127.986    366.42649    15.061861   -443.71633   -428.65447   -8194.0148     -4847.29   -2243.7872   -17490.967    15.410514    13.345925     27.29382    5613.4536 
  128500      128.486    368.19186    15.134425   -443.76539   -428.63097   -6274.0345   -3143.0869   -2561.4741   -13117.542    15.410517    13.345927    27.293803    5613.4517 
  129000      128.986    356.88845    14.669802   -443.27708   -428.60728   -8530.9768   -7678.4199   -429.41227   -17485.098    15.410519    13.345929    27.293785    5613.4499 
  129500      129.486    378.85174    15.572597   -444.15729   -428.58469   -7575.1598   -4979.0122   -1775.7358   -15970.731    15.410522    13.345931    27.293768     5613.448 
  130000      129.986    368.27918    15.138015   -443.69923   -428.56121   -7202.5587   -3816.9123   -2841.9877   -14948.776    15.410524    13.345933     27.29375    5613.4461 
  130500      130.486    390.46254    16.049856   -444.58772   -428.53787   -7335.6424   -4511.3913   -2125.3613   -15370.174    15.410526    13.345935    27.293733    5613.4443 
  131000      130.986    372.23118    15.300461   -443.81439   -428.51392   -6836.6114   -4439.7846   -987.86305   -15082.186    15.410529    13.345937    27.293715    5613.4424 
  131500      131.486    369.51558    15.188837   -443.67963   -428.49079   -7708.8699   -5440.6731    -917.6139   -16768.323    15.410531    13.345939    27.293698    5613.4405 
  132000      131.986    362.32829    14.893405    -443.3608    -428.4674   -8783.7161   -7110.2737   -1832.7248    -17408.15    15.410534    13.345941     27.29368    5613.4387 
  132500      132.486     380.5505    15.642424   -444.08605   -428.44363     -7517.27   -4129.2749   -5239.9021   -13182.633    15.410536    13.345943    27.293663    5613.4368 
  133000      132.986    382.51796    15.723296   -444.14376   -428.42046   -7060.2264   -5738.5788    -2783.151   -12658.949    15.410538    13.345945    27.293645     5613.435 
  133500      133.486    391.95968    16.111395   -444.50773   -428.39634   -8358.2744   -4512.3377   -908.87667   -19653.609    15.410541    13.345947    27.293628    5613.4331 
  134000      133.986    369.84881    15.202534   -443.57484    -428.3723   -7240.2004   -4198.9528   -2631.4414   -14890.207    15.410543    13.345949     27.29361    5613.4312 
  134500      134.486    374.92392    15.411145   -443.76029   -428.34915   -8626.7065   -6373.8292   -3427.7953   -16078.495    15.410546    13.345951    27.293593    5613.4294 
  135000      134.986    389.09794    15.993764    -444.3197   -428.32593   -7225.9949   -5172.8561   -3475.7404   -13029.388    15.410548    13.345953    27.293575    5613.4275 
  135500      135.486    380.86458    15.655334   -443.95716   -428.30182   -7881.2955   -6276.0402   -1582.9675   -15784.879     15.41055    13.345955    27.293558    5613.4256 
  136000      135.986    369.09278    15.171458   -443.44968   -428.27822   -8000.7688   -4956.9533   -2695.2363   -16350.117    15.410553    13.345958     27.29354    5613.4238 
  136500      136.486    372.96369     15.33057   -443.58529   -428.25472   -7927.9507   -7181.4379   -3390.1528   -13212.261    15.410555     13.34596    27.293523    5613.4219 
  137000      136.986    373.43211    15.349825    -443.5801   -428.23027   -7253.8354   -3465.8619   -2475.9487   -15819.696    15.410558    13.345962    27.293505    5613.4201 
  137500      137.486    359.35286    14.771101   -442.97766   -428.20655   -7903.4568   -5563.8446    -300.6974   -17845.829     15.41056    13.345964    27.293488    5613.4182 
  138000      137.986    367.35437    15.100001   -443.28325   -428.18325   -7884.8473   -4925.3919   -709.55715   -18019.593    15.410562    13.345966     27.29347    5613.4163 
  138500      138.486    376.03895    15.456978   -443.61658    -428.1596   -8927.8617   -6572.4001   -4989.8897   -15221.295    15.410565    13.345968    27.293453    5613.4145 
  139000      138.986    397.09832    16.322618   -444.45913   -428.13651   -7764.7262   -5186.3816   -2661.9715   -15445.826    15.410567     13.34597    27.293435    5613.4126 
  139500      139.486    376.25276    15.465767   -443.57767   -428.11191   -8056.3574   -5161.6133   -2799.5944   -16207.864     15.41057    13.345972    27.293418    5613.4107 
  140000      139.986    374.32713    15.386614   -443.47494   -428.08832   -8106.7966   -5719.8778   -3011.2938   -15589.218    15.410572    13.345974      27.2934    5613.4089 
  140500      140.486    381.61717    15.686269   -443.75064   -428.06437   -8080.0235   -6432.9175   -3199.8623   -14607.291    15.410574    13.345976    27.293383     5613.407 
  141000      140.986    398.35543    16.374291   -444.41589    -428.0416   -7228.5707    -4576.266   -1469.0943   -15640.352    15.410577    13.345978    27.293365    5613.4052 
  141500      141.486    378.69774    15.566267   -443.58295   -428.01668   -7334.9767   -4866.3853   -3161.4511   -13977.094    15.410579     13.34598    27.293348    5613.4033 
  142000      141.986    350.45984    14.405556   -442.39753   -427.99198   -5986.7202   -4678.5889   -1295.8727   -11985.699    15.410582    13.345982     27.29333    5613.4014 
  142500      142.486    373.63969    15.358357   -443.32661   -427.96825   -7216.3823   -5695.9533   -1605.8797   -14347.314    15.410584    13.345984    27.293313    5613.3996 
  143000      142.986    400.28847    16.453748    -444.3986   -427.94486   -8690.8796   -4580.4107   -901.35557   -20590.873    15.410586    13.345986    27.293295    5613.3977 
  143500      143.486    359.89272    14.793292   -442.71362   -427.92033    -6716.681   -5919.7413   -4114.4982   -10115.803    15.410589    13.345988    27.293278    5613.3958 
  144000      143.986    375.21641    15.423168   -443.31942   -427.89625   -6663.5628   -5480.5734   -2231.1152       -12279    15.410591     13.34599     27.29326     5613.394 
  144500      144.486    380.33704     15.63365   -443.50626   -427.87261    -8297.489   -7315.9967   -2178.2356   -15398.235    15.410594    13.345992    27.293243    5613.3921 
  145000      144.986    383.31277    15.755966   -443.60431   -427.84834   -7476.4988    -4766.931   -3267.5818   -14394.984    15.410596    13.345994    27.293225    5613.3903 
  145500      145.486      387.528    15.929232   -443.75324   -427.82401   -8334.7236    -5802.282   -3955.3411   -15246.548    15.410598    13.345996    27.293208    5613.3884 
  146000      145.986     389.7824    16.021899   -443.82163   -427.79973   -7372.9416   -6831.3842    -4581.179   -10706.262    15.410601    13.345999     27.29319    5613.3865 
  146500      146.486    382.09096    15.705744   -443.48159   -427.77585   -7705.9164   -4780.1796    -3151.152   -15186.418    15.410603    13.346001    27.293173    5613.3847 
  147000      146.986    380.33841    15.633706   -443.38545   -427.75175   -7502.8587   -4557.0312   -2797.9075   -15153.637    15.410606    13.346003    27.293155    5613.3828 
  147500      147.486    378.88462    15.573948   -443.30117   -427.72722   -7070.7978   -5795.6236   -3736.1274   -11680.642    15.410608    13.346005    27.293138    5613.3809 
  148000      147.986    389.49574    16.010116   -443.71364   -427.70352   -7231.0406   -5016.8228   -4950.1608   -11726.138     15.41061    13.346007     27.29312    5613.3791 
  148500      148.486    394.92636     16.23334   -443.91267   -427.67933   -7869.0552   -5873.5407   -598.64468    -17134.98    15.410613    13.346009    27.293103    5613.3772 
  149000      148.986    389.89395    16.026484   -443.68178   -427.65529   -7678.6684   -4850.1005   -874.51496    -17311.39    15.410615    13.346011    27.293085    5613.3754 
  149500      149.486    375.74059    15.444714   -443.07527   -427.63055   -8318.7946    -5422.288    712.21148   -20246.307    15.410618    13.346013    27.293068    5613.3735 
  150000      149.986    386.47152    15.885806   -443.49236   -427.60656   -7608.7171   -5315.1238   -405.90076   -17105.127     15.41062    13.346015     27.29305    5613.3716 
  150500      150.486    379.20299    15.587035   -443.16871   -427.58167   -7860.5362   -5316.9973   -1871.4589   -16393.152    15.410622    13.346017    27.293033    5613.3698 
  151000      150.986    375.17265    15.421369   -442.97835   -427.55698   -7096.2638   -6373.1566   -781.52653   -14134.108    15.410625    13.346019    27.293015    5613.3679 
  151500      151.486    405.53399    16.669364   -444.20247    -427.5331   -8328.7701   -7463.0184   -1285.0082   -16238.284    15.410627    13.346021    27.292998     5613.366 
  152000      151.986    399.97172    16.440728   -443.94915   -427.50842   -7765.5989   -5993.2071    1239.4613   -18543.051     15.41063    13.346023     27.29298    5613.3642 
  152500      152.486    374.00882     15.37353     -442.857   -427.48347   -5975.3453   -1179.4501   -3848.8904   -12897.695    15.410632    13.346025    27.292963    5613.3623 
  153000      152.986    396.38696    16.293377    -443.7538   -427.46042   -7787.6729   -7323.9005   -156.87807    -15882.24    15.410634    13.346027    27.292945    5613.3604 
  153500      153.486    385.36576    15.840354   -443.27546    -427.4351   -7786.1778    -5768.623   -2018.9452   -15570.965    15.410637    13.346029    27.292928    5613.3586 
  154000      153.986    397.59732    16.343129   -443.75412     -427.411   -8443.9772   -7146.5007   -1074.8973   -17110.534    15.410639    13.346031     27.29291    5613.3567 
  154500      154.486       384.26    15.794902    -443.1811    -427.3862   -7213.9723   -4949.5917   -1564.2919   -15128.033    15.410642    13.346033    27.292893    5613.3549 
  155000      154.986      380.159    15.626332   -442.98716   -427.36083   -6678.2256   -4343.6776   -2714.4968   -12976.502    15.410644    13.346035    27.292875     5613.353 
  155500      155.486    393.16471    16.160928   -443.49735   -427.33642   -7777.8232   -5453.6517   -561.75592   -17318.062    15.410646    13.346037    27.292858    5613.3511 
  156000      155.986     407.9483    16.768603   -444.08074   -427.31213   -6934.7704   -3037.2421   -2101.4177   -15665.651    15.410649     13.34604     27.29284    5613.3493 
  156500      156.486    385.31771    15.838379   -443.12446   -427.28608   -8330.0271   -7890.3607   -2062.8114   -15036.909    15.410651    13.346042    27.292823    5613.3474 
  157000      156.986    407.40123    16.746116   -444.00759   -427.26148   -7642.6425   -3637.6379   -5488.7816   -13801.508    15.410654    13.346044    27.292805    5613.3455 
  157500      157.486    375.14069    15.420055   -442.65717   -427.23712   -6487.0041   -3677.8591   -2356.6017   -13426.552    15.410656    13.346046    27.292788    5613.3437 
  158000      157.986    389.36751    16.004845   -443.21634   -427.21149   -7565.0786   -2760.8384    -6801.538   -13132.859    15.410658    13.346048     27.29277    5613.3418 
  158500      158.486    399.81452    16.434266   -443.62103   -427.18677   -7286.7649   -6657.9275   -3128.9984   -12073.369    15.410661     13.34605    27.292753      5613.34 
  159000      158.986    404.40172    16.622822   -443.78493   -427.16211   -8624.8642   -5741.8351   -2239.3596   -17893.398    15.410663    13.346052    27.292735    5613.3381 
  159500      159.486    401.19838     16.49115   -443.62865    -427.1375    -6029.897   -3246.9668   -1178.1955   -13664.529    15.410666    13.346054    27.292718    5613.3362 
  160000      159.986    402.88808    16.560604   -443.67362   -427.11302   -7712.6676   -5018.5582   -2969.2484   -15150.196    15.410668    13.346056      27.2927    5613.3344 
  160500      160.486    388.90245    15.985729   -443.07314   -427.08742   -7274.9625   -5987.8109    -1384.301   -14452.776     15.41067    13.346058    27.292683    5613.3325 
  161000      160.986    388.42028    15.965909   -443.02835   -427.06244   -6815.0228   -4639.1467    1308.2748   -17114.197    15.410673     13.34606    27.292665    5613.3306 
  161500      161.486    393.70034    16.182945   -443.22113   -427.03819   -7403.4764    -4742.207   -68.927396   -17399.295    15.410675    13.346062    27.292648    5613.3288 
  162000      161.986     390.0763     16.03398   -443.04622   -427.01224   -7589.0034   -5653.1097    37.697758   -17151.598    15.410678    13.346064     27.29263    5613.3269 
  162500      162.486    390.64258    16.057256   -443.04474   -426.98748   -7574.4979   -7655.4766   -517.33566   -14550.682     15.41068    13.346066    27.292613    5613.3251 
  163000      162.986    386.43323    15.884232   -442.84629   -426.96206   -6943.3664   -6120.5398   -1491.1622   -13218.397    15.410682    13.346068    27.292595    5613.3232 
  163500      163.486    402.95871    16.563507   -443.50135   -426.93784   -6293.5162   -3981.1409   -2646.7867   -12252.621    15.410685     13.34607    27.292578    5613.3213 
  164000      163.986    415.38718    17.074376   -443.98705   -426.91268   -6845.4388   -6663.8974    889.28542   -14761.704    15.410687    13.346072     27.29256    5613.3195 
  164500      164.486    383.97306    15.783107   -442.66973   -426.88662   -6529.0165   -3723.8133    491.77955   -16355.016     15.41069    13.346074    27.292543    5613.3176 
  165000      164.986    401.77388    16.514805   -443.37668   -426.86187   -8064.4209   -6348.8339   -1818.6677   -16025.761    15.410692    13.346076    27.292525    5613.3157 
  165500      165.486    420.65816    17.291038   -444.12806   -426.83702   -6170.8473   -3957.7206     230.8293   -14785.651    15.410694    13.346078    27.292508    5613.3139 
  166000      165.986    376.79882    15.488212   -442.29992    -426.8117    -7495.043    -3243.042    642.92387   -19885.011    15.410697    13.346081     27.29249     5613.312 
  166500      166.486    368.41224    15.143484   -441.92946   -426.78598   -5473.8812   -4744.9886    3016.5275   -14693.183    15.410699    13.346083    27.292473    5613.3102 
  167000      166.986    396.52745    16.299152   -443.06082   -426.76167   -8102.7172    -4072.119   -2333.6484   -17902.384    15.410702    13.346085    27.292455    5613.3083 
  167500      167.486    382.37705    15.717504   -442.45418   -426.73668   -7107.4237   -4354.4674    2968.2239   -19936.028    15.410704    13.346087    27.292438    5613.3064 
  168000      167.986    381.48799    15.680959    -442.3922   -426.71124    -6783.767   -3467.2058   -1337.8922   -15546.203    15.410706    13.346089     27.29242    5613.3046 
  168500      168.486    412.41586    16.952241   -443.63812   -426.68587    -7048.677   -6784.9184    -297.9682   -14063.145    15.410709    13.346091    27.292403    5613.3027 
  169000      168.986    399.06705    16.403542    -443.0641   -426.66056   -7102.9693   -5555.2442   -2314.0618   -13439.602    15.410711    13.346093    27.292385    5613.3008 
  169500      169.486    424.32574    17.441793   -444.07732   -426.63553   -6894.4844    -5000.055   -1658.2117   -14025.186    15.410714    13.346095    27.292368     5613.299 
  170000      169.986    413.55145    16.998919   -443.60872    -426.6098   -7184.2494   -5761.7695    309.36283   -16100.341    15.410716    13.346097     27.29235    5613.2971 
  170500      170.486    404.58563    16.630382   -443.21436   -426.58398   -6770.4907   -3968.7761    -3014.934   -13327.762    15.410718    13.346099    27.292333    5613.2953 
  171000      170.986    396.66888    16.304966   -442.86404   -426.55908   -6517.5268   -5282.4172    -1745.049   -12525.114    15.410721    13.346101    27.292315    5613.2934 
  171500      171.486    414.59886    17.041973   -443.57627   -426.53429   -6268.5529    -4175.232     2902.124   -17532.551    15.410723    13.346103    27.292298    5613.2915 
  172000      171.986     413.1844    16.983832   -443.49258   -426.50874   -6843.6062   -4795.1983    702.57733   -16438.198    15.410726    13.346105     27.29228    5613.2897 
  172500      172.486    402.36015    16.538904   -443.02211   -426.48321   -6895.7067   -6691.7463   -1816.9139    -12178.46    15.410728    13.346107    27.292263    5613.2878 
  173000      172.986    400.46687    16.461081   -442.91804   -426.45696   -6561.6637   -2098.3869   -367.57361   -17219.031     15.41073    13.346109    27.292245    5613.2859 
  173500      173.486    407.57292    16.753173   -443.18527   -426.43209   -7092.5865   -5915.1775   -3279.5674   -12083.015    15.410733    13.346111    27.292228    5613.2841 
  174000      173.986    390.52035    16.052232   -442.45828   -426.40605   -7235.7386   -5576.1167   -672.10699   -15458.992    15.410735    13.346113     27.29221    5613.2822 
  174500      174.486    405.65354    16.674278   -443.05565   -426.38137   -6600.9173   -7526.0565    177.28296   -12453.978    15.410738    13.346115    27.292193    5613.2803 
  175000      174.986    390.60372    16.055659   -442.41086    -426.3552   -7708.3768   -6230.1958   -2294.5175   -14600.417     15.41074    13.346117    27.292175    5613.2785 
  175500      175.486     389.3608    16.004569    -442.3346   -426.33003    -6748.596   -5488.6824   -1260.3928   -13496.713    15.410742    13.346119    27.292158    5613.2766 
  176000      175.986    429.55035     17.65655   -443.96114   -426.30459   -7015.9709   -5000.9254   -915.40986   -15131.577    15.410745    13.346122     27.29214    5613.2748 
  176500      176.486    385.69398    15.853846   -442.13215   -426.27831   -6868.9597   -6620.2406   -939.83141   -13046.807    15.410747    13.346124    27.292123    5613.2729 
  177000      176.986    413.53544    16.998261   -443.25146    -426.2532   -6827.5432   -3441.8048   -2019.9102   -15020.915     15.41075    13.346126    27.292105     5613.271 
  177500      177.486    406.89708    16.725393   -442.95333   -426.22794   -5914.6369   -3398.3037   -1166.3201   -13179.287    15.410752    13.346128    27.292088    5613.2692 
  178000      177.986    419.42349    17.240288   -443.44211   -426.20182   -6636.7577   -4479.9725   -1734.4274   -13695.873    15.410754     13.34613     27.29207    5613.2673 
  178500      178.486    423.19211    17.395196   -443.57206   -426.17686   -7686.3436   -6492.8126   -1124.0548   -15442.163    15.410757    13.346132    27.292053    5613.2654 
  179000      178.986    395.30165    16.248766   -442.39981   -426.15104   -6602.2009   -6280.2178   -900.41934   -12625.966    15.410759    13.346134    27.292035    5613.2636 
  179500      179.486     392.2935    16.125117   -442.25023   -426.12511   -5737.5371    -6088.611    1401.3689   -12525.369    15.410762    13.346136    27.292018    5613.2617 
  180000      179.986    423.66233    17.414524    -443.5133   -426.09878   -6532.6857   -5359.1458   -1265.6823   -12973.229    15.410764    13.346138       27.292    5613.2599 
  180500      180.486    402.89654    16.560952   -442.63289   -426.07194   -6323.9133   -5347.0547   -1075.1786   -12549.507    15.410766     13.34614    27.291983     5613.258 
  181000      180.986    406.08197    16.691888   -442.73783   -426.04594   -7152.2998   -3858.9369   -3272.3305   -14325.632    15.410769    13.346142    27.291965    5613.2561 
  181500      181.486    395.67651    16.264174   -442.28396   -426.01979    -6174.205   -4450.0649    2953.1683   -17025.718    15.410771    13.346144    27.291948    5613.2543 
  182000      181.986    409.30056    16.824188    -442.8187   -425.99452   -7693.3304   -3560.5709   -1547.8833   -17971.537    15.410774    13.346146     27.29193    5613.2524 
  182500      182.486    421.67021    17.332639   -443.30173   -425.96909   -6231.5218   -3465.1835    -2396.448   -12832.934    15.410776    13.346148    27.291913    5613.2505 
  183000      182.986    420.92959    17.302196   -443.24507   -425.94287   -7150.2207   -4320.4275   -1715.7034   -15414.531    15.410778     13.34615    27.291895    5613.2487 
  183500      183.486    432.43623    17.775173   -443.69268   -425.91751   -6952.7219   -4505.7537     513.7555   -16866.167    15.410781    13.346152    27.291878    5613.2468 
  184000      183.986    410.86704    16.888577   -442.77949   -425.89091   -6076.5584   -2788.2656   -880.04306   -14561.367    15.410783    13.346154     27.29186     5613.245 
  184500      184.486    411.01198    16.894535    -442.7593   -425.86477   -7725.8057   -3884.1255   -4387.9375   -14905.354    15.410786    13.346156    27.291843    5613.2431 
  185000      184.986    386.31656    15.879437   -441.71784   -425.83841   -6185.6162    -3711.855    262.99089   -15107.985    15.410788    13.346158    27.291825    5613.2412 
  185500      185.486    405.02624    16.648493    -442.4609   -425.81241   -6368.9717   -4716.6746   -2283.0337   -12107.207     15.41079     13.34616    27.291808    5613.2394 
  186000      185.986    402.01519    16.524724   -442.31095   -425.78623   -4794.4761   -775.76927    711.57352   -14319.233    15.410793    13.346163     27.29179    5613.2375 
  186500      186.486    393.36035    16.168969   -441.92874   -425.75977   -5232.2934   -4161.8035   -35.701874   -11499.375    15.410795    13.346165    27.291773    5613.2356 
  187000      186.986     390.4235    16.048251   -441.78229   -425.73404   -6507.1832   -6130.8916    1334.9845   -14725.643    15.410798    13.346167    27.291755    5613.2338 
  187500      187.486    410.62686    16.878704   -442.58696   -425.70826   -7004.0979   -5596.9424   -786.44133    -14628.91      15.4108    13.346169    27.291738    5613.2319 
  188000      187.986     416.4054     17.11623   -442.79872   -425.68249   -6607.1824   -5871.3374   -2941.3599    -11008.85    15.410802    13.346171     27.29172      5613.23 
  188500      188.486    426.31682    17.523636   -443.17978   -425.65615   -6523.0579   -4147.3553   -2965.0192   -12456.799    15.410805    13.346173    27.291703    5613.2282 
  189000      188.986    422.62793    17.372005   -443.00061    -425.6286    -5754.448   -3873.4852   -763.86307   -12625.996    15.410807    13.346175    27.291685    5613.2263 
  189500      189.486    385.29645    15.837505   -441.43972   -425.60221   -6866.7051    -4956.454    586.35586   -16230.017     15.41081    13.346177    27.291668    5613.2245 
  190000      189.986    413.96499    17.015918   -442.59227   -425.57636   -6275.3541   -3909.4593   -334.55322    -14582.05    15.410812    13.346179     27.29165    5613.2226 
  190500      190.486    429.12416    17.639031   -443.18962   -425.55058   -7355.1259    -4594.825   -735.95465   -16734.598    15.410814    13.346181    27.291633    5613.2207 
  191000      190.986    429.52434     17.65548   -443.18046   -425.52498    -7025.635   -4356.1961   -2725.6799   -13995.029    15.410817    13.346183    27.291615    5613.2189 
  191500      191.486    396.96603     16.31718   -441.81469   -425.49751    -7483.412   -8271.5927    624.41119   -14803.054    15.410819    13.346185    27.291598     5613.217 
  192000      191.986    424.35924     17.44317   -442.91517     -425.472   -6538.7226   -5330.7128   -1601.8966   -12683.558    15.410822    13.346187     27.29158    5613.2151 
  192500      192.486    420.76268    17.295335   -442.74077   -425.44544   -6534.8573   -4617.0144   -2645.9127   -12341.645    15.410824    13.346189    27.291563    5613.2133 
  193000      192.986    422.28321    17.357836   -442.77647   -425.41864    -6995.424    -6170.875   -2338.3903   -12477.007    15.410826    13.346191    27.291545    5613.2114 
  193500      193.486    411.91841    16.931794   -442.32283   -425.39104   -7491.7692   -6496.1492     280.8809   -16260.039    15.410829    13.346193    27.291528    5613.2096 
  194000      193.986     415.0612    17.060977   -442.42621   -425.36523   -6373.0425   -4110.1903   -1540.3266    -13468.61    15.410831    13.346195     27.29151    5613.2077 
  194500      194.486    446.12919    18.338018   -443.67641   -425.33839   -7746.0365   -5232.6733   -2026.2179   -15979.218    15.410834    13.346197    27.291493    5613.2058 
  195000      194.986    403.91542    16.602833     -441.914   -425.31117   -6353.7229   -3206.7539   -1997.1777   -13857.237    15.410836    13.346199    27.291475     5613.204 
  195500      195.486    403.91512     16.60282   -441.88807   -425.28524    -7046.924   -2783.8013   -4358.8509    -13998.12    15.410838    13.346201    27.291458    5613.2021 
  196000      195.986    408.08017    16.774024   -442.03352    -425.2595   -5913.8104   -4313.1327    -854.7951   -12573.503    15.410841    13.346204     27.29144    5613.2002 
  196500      196.486    424.04255    17.430153   -442.66303   -425.23288   -6955.0361   -1787.7627   -2348.8622   -16728.483    15.410843    13.346206    27.291423    5613.1984 
  197000      196.986    378.69516    15.566161   -440.77218   -425.20602    -6008.576    -3650.064   -2348.7925   -12026.872    15.410846    13.346208    27.291405    5613.1965 
  197500      197.486    398.09259    16.363487   -441.54288   -425.17939   -5835.4136   -4029.6977    481.54781   -13958.091    15.410848     13.34621    27.291388    5613.1947 
  198000      197.986    426.84406    17.545308   -442.69855   -425.15324   -5973.0969   -5578.1941    1058.5331    -13399.63     15.41085    13.346212     27.29137    5613.1928 
  198500      198.486    412.72436    16.964922   -442.09078   -425.12586   -5635.0973   -5226.5771    456.05768   -12134.772    15.410853    13.346214    27.291353    5613.1909 
  199000      198.986    411.18197    16.901522   -442.00062    -425.0991   -6718.1431   -5173.2288    -983.0219   -13998.179    15.410855    13.346216    27.291335    5613.1891 
  199500      199.486     427.9388    17.590307   -442.66297   -425.07266   -5903.8492   -3195.0229   -3059.8204   -11456.704    15.410858    13.346218    27.291318    5613.1872 
  200000      199.986    402.28126    16.535661   -441.58141   -425.04575    -5027.161   -4060.7828    422.44367   -11443.144     15.41086     13.34622      27.2913    5613.1853 
  200500      200.486     401.4117    16.499918   -441.51872    -425.0188   -5907.8479   -5258.2192   -574.20077   -11891.124    15.410862    13.346222    27.291283    5613.1835 
  201000      200.986     433.9567    17.837671    -442.8305   -424.99282   -6394.4836   -2830.5622   -1619.0559   -14733.833    15.410865    13.346224    27.291265    5613.1816 
  201500      201.486    409.76675     16.84335   -441.80889   -424.96554   -6626.1509   -3379.7745    -482.4645   -16016.214    15.410867    13.346226    27.291248    5613.1797 
  202000      201.986    422.37192    17.361482    -442.3012   -424.93972   -6778.8288   -4709.4838   -687.47537   -14939.527     15.41087    13.346228     27.29123    5613.1779 
  202500      202.486    446.81304    18.366128   -443.27901   -424.91288   -7061.3361   -5076.4721   -2680.3126   -13427.223    15.410872     13.34623    27.291213     5613.176 
  203000      202.986    410.71797     16.88245   -441.76795    -424.8855   -5986.4578   -5034.2912   -2170.2833   -10754.799    15.410874    13.346232    27.291195    5613.1742 
  203500      203.486    416.82379    17.133428   -441.99182    -424.8584   -5736.7652   -4438.3184    4254.5611   -17026.538    15.410877    13.346234    27.291178    5613.1723 
  204000      203.986    412.03262    16.936488   -441.76738    -424.8309   -5488.1594   -4282.1781     659.0396    -12841.34    15.410879    13.346236     27.29116    5613.1704 
  204500      204.486     427.6674    17.579151   -442.38347   -424.80432   -5837.5444   -3165.8197    1837.5043   -16184.318    15.410882    13.346238    27.291143    5613.1686 
  205000      204.986    427.46688    17.570909   -442.34898   -424.77807   -6824.7102   -4576.1703    -1958.266   -13939.694    15.410884     13.34624    27.291125    5613.1667 
  205500      205.486    438.91417    18.041447   -442.79235    -424.7509   -6439.1865   -6359.6048    -599.9658   -12357.989    15.410886    13.346242    27.291108    5613.1648 
  206000      205.986     397.6695    16.346096   -441.06976   -424.72367   -6666.7291    -5286.101   -2521.9049   -12192.181    15.410889    13.346245     27.29109     5613.163 
  206500      206.486    421.33459    17.318843   -442.01566   -424.69682   -4876.8156   -829.76105    231.49317   -14032.179    15.410891    13.346247    27.291073    5613.1611 
  207000      206.986    435.04779     17.88252   -442.55234   -424.66982    -5911.216   -3776.1557   -608.75575   -13348.737    15.410894    13.346249    27.291055    5613.1593 
  207500      207.486    431.21729    17.725068   -442.36796   -424.64289   -5838.6881   -5775.9119    967.93535   -12708.088    15.410896    13.346251    27.291038    5613.1574 
  208000      207.986    423.87891    17.423427   -442.03897   -424.61554   -5077.7273   -2853.1317   -2741.6218   -9638.4284    15.410898    13.346253     27.29102    5613.1555 
  208500      208.486    424.72683     17.45828   -442.04662   -424.58834   -5364.2498   -3188.2709   -1086.1665   -11818.312    15.410901    13.346255    27.291003    5613.1537 
  209000      208.986    419.70651    17.251921   -441.81284   -424.56092   -6709.3256   -4949.4962    600.56299   -15779.044    15.410903    13.346257    27.290985    5613.1518 
  209500      209.486    421.67671    17.332906   -441.86667   -424.53376   -6075.1688   -1905.4992   -2664.8087   -13655.199    15.410906    13.346259    27.290968    5613.1499 
  210000      209.986    425.34443    17.483666   -441.98978   -424.50612    -5058.653   -2106.4808   -1945.5617   -11123.916    15.410908    13.346261     27.29095    5613.1481 
  210500      210.486    439.57551    18.068631   -442.54812   -424.47949   -6372.0812   -5225.6752   -3128.7786    -10761.79     15.41091    13.346263    27.290933    5613.1462 
  211000      210.986    452.70384    18.608268   -443.06152   -424.45325   -6587.6646   -4110.1248   -957.17503   -14695.694    15.410913    13.346265    27.290915    5613.1444 
  211500      211.486    450.06138     18.49965   -442.92476   -424.42511   -6656.8407   -2683.3488   -1436.9702   -15850.203    15.410915    13.346267    27.290898    5613.1425 
  212000      211.986    435.39316    17.896717   -442.29505   -424.39834   -6846.9505   -5379.6474   -5593.8255   -9567.3787    15.410918    13.346269     27.29088    5613.1406 
[...]
  948500      948.486    564.67914    23.210981   -436.74172   -413.53074    731.11349    5389.0529    5306.8875      -8502.6    15.414453    13.349289    27.265103    5610.3943 
  949000      948.986    585.97405    24.086303   -437.61567   -413.52937   -758.48955    1280.8466    3888.8293   -7445.1445    15.414455    13.349291    27.265085    5610.3924 
  949500      949.486     592.2853    24.345725   -437.87121   -413.52548    -2712.073   -2472.8306     2331.284   -7994.6724    15.414458    13.349293    27.265068    5610.3905 
  950000      949.986    590.13799     24.25746   -437.77969   -413.52223     -659.208    200.56586    3236.0649   -5414.2547     15.41446    13.349295     27.26505    5610.3887 
  950500      950.486    559.94216    23.016269    -436.5347   -413.51843    119.89867    1595.5388   -21.827795   -1214.0151    15.414462    13.349297    27.265033    5610.3868 
  951000      950.986    567.72332    23.336111   -436.85056   -413.51444   -515.64297    4935.0691    5743.6753   -12225.673    15.414465    13.349299    27.265015    5610.3849 
  951500      951.486    538.58763    22.138497   -435.64917   -413.51067    206.01333    396.97114    5050.5537   -4829.4849    15.414467    13.349301    27.264998    5610.3831 
  952000      951.986    580.13471    23.846278   -437.35533   -413.50906   -920.77609    1362.8974    3748.9705   -7874.1961     15.41447    13.349303     27.26498    5610.3812 
  952500      952.486    577.72432      23.7472   -437.25239   -413.50519   -451.02847       2796.1     2729.104   -6878.2894    15.414472    13.349305    27.264963    5610.3793 
  953000      952.986    581.90835    23.919183   -437.42147   -413.50229   -1227.2349    656.75415    3392.6853   -7731.1441    15.414474    13.349307    27.264945    5610.3775 
  953500      953.486    565.66725    23.251597   -436.74895   -413.49735   -1067.5471    -159.4505     4479.055   -7522.2457    15.414477    13.349309    27.264928    5610.3756 
  954000      953.986    563.73962    23.172363   -436.66519   -413.49283   -1039.6705    2503.9677    2170.7366   -7793.7157    15.414479    13.349311     27.26491    5610.3737 
  954500      954.486    568.36684    23.362563   -436.85131   -413.48875   -1158.5403    941.90078    5041.1563    -9458.678    15.414482    13.349313    27.264893    5610.3719 
  955000      954.986    572.91624    23.549565   -437.03365   -413.48409   -809.36529    4596.6086    5178.4769   -12203.181    15.414484    13.349315    27.264875      5610.37 
  955500      955.486    556.16171    22.860875   -436.34117    -413.4803   -568.45414    3074.6127    4255.0125   -9034.9876    15.414486    13.349317    27.264858    5610.3681 
  956000      955.986     553.1696    22.737885   -436.21368    -413.4758   -652.28626     1756.616     2267.053   -5980.5277    15.414489     13.34932     27.26484    5610.3663 
  956500      956.486    558.81567    22.969965   -436.44093   -413.47097   -693.18421    1333.0322    2609.2767   -6021.8615    15.414491    13.349322    27.264823    5610.3644 
  957000      956.986    609.03632    25.034271   -438.50357   -413.46929   -1418.9642    182.08351    5399.8868    -9838.863    15.414494    13.349324    27.264805    5610.3625 
  957500      957.486    561.18867    23.067507   -436.53075   -413.46325   -125.13016    -1338.559    3766.2217   -2803.0532    15.414496    13.349326    27.264788    5610.3607 
  958000      957.986    554.88678    22.808469   -436.26679   -413.45832   -1530.5734    2806.3672    986.69115   -8384.7787    15.414498    13.349328     27.26477    5610.3588 
  958500      958.486    595.52602    24.478934   -437.93269   -413.45376   -1767.9341    526.47136    2715.9567   -8546.2305    15.414501     13.34933    27.264753    5610.3569 
  959000      958.986    558.10847    22.940896   -436.38985   -413.44895    1558.9832    2059.8888    6633.1245   -4016.0637    15.414503    13.349332    27.264735    5610.3551 
  959500      959.486       580.39    23.856772   -437.30225   -413.44548    -915.7728    1413.2953    3571.9619   -7732.5755    15.414506    13.349334    27.264718    5610.3532 
  960000      959.986    543.14412     22.32579   -435.76696   -413.44117   -226.52778    3213.2256     6410.057   -10302.866    15.414508    13.349336      27.2647    5610.3513 
  960500      960.486    534.70157    21.978761   -435.41402   -413.43526   -2223.6507    3158.5937   -2274.6242   -7554.9218     15.41451    13.349338    27.264683    5610.3495 
  961000      960.986    571.69687    23.499443   -436.93183   -413.43239    129.22181    3575.9776    1889.2185   -5077.5306    15.414513     13.34934    27.264665    5610.3476 
  961500      961.486    603.88433      24.8225   -438.24961   -413.42711   -1630.3341    1835.7397    2811.2291   -9537.9713    15.414515    13.349342    27.264648    5610.3457 
  962000      961.986    568.22174    23.356599   -436.77742   -413.42082   -891.61393    2788.8606    4156.5977      -9620.3    15.414518    13.349344     27.26463    5610.3439 
  962500      962.486    566.58813     23.28945   -436.70599   -413.41654    907.19357    5052.6331    4678.2204   -7009.2728     15.41452    13.349346    27.264613     5610.342 
  963000      962.986    587.78376     24.16069    -437.5718   -413.41111     -868.758   -2482.6058    5216.3725   -5340.0407    15.414522    13.349348    27.264595    5610.3401 
  963500      963.486    556.70196    22.883082   -436.28866   -413.40558   -1482.6441    1111.9835     1546.482   -7106.3979    15.414525     13.34935    27.264578    5610.3383 
  964000      963.986    569.01749    23.389308   -436.79045   -413.40114    -467.9271    1135.9533    5677.0211   -8216.7557    15.414527    13.349352     27.26456    5610.3364 
  964500      964.486    598.93212    24.618941   -438.01462   -413.39568    -1640.522   -126.56775    3012.7717   -7807.7701     15.41453    13.349354    27.264543    5610.3345 
  965000      964.986    594.20833    24.424771   -437.81455   -413.38978     -1026.76   -2253.1414    7726.6592   -8553.7977    15.414532    13.349356    27.264525    5610.3327 
  965500      965.486    563.26303    23.152773   -436.53688   -413.38411   -102.55897    1310.9738    5124.9737   -6743.6244    15.414534    13.349358    27.264508    5610.3308 
  966000      965.986    553.45606     22.74966   -436.12748   -413.37782   -1236.2538    1936.9445    4870.1005   -10515.806    15.414537    13.349361     27.26449    5610.3289 
  966500      966.486    581.67571    23.909621   -437.28445   -413.37483   -1535.6112    1073.4526    3569.5085   -9249.7947    15.414539    13.349363    27.264473    5610.3271 
  967000      966.986    570.02495     23.43072   -436.79873   -413.36801   -175.92233    2341.8609    3886.7024   -6756.3303    15.414542    13.349365    27.264455    5610.3252 
  967500      967.486    554.67038    22.799574   -436.16344   -413.36386   -414.10535    658.93245    64.279707   -1965.5282    15.414544    13.349367    27.264438    5610.3234 
  968000      967.986    569.72861    23.418538   -436.77369   -413.35515   -111.20076    2273.4202    5926.6066   -8533.6291    15.414546    13.349369     27.26442    5610.3215 
  968500      968.486    535.90283    22.028139   -435.37738   -413.34924   -61.261486    1675.9279    4203.3407   -6063.0531    15.414549    13.349371    27.264403    5610.3196 
  969000      968.986    543.83691    22.354267   -435.69765   -413.34339   -1224.7025    567.32643    1910.7999   -6152.2338    15.414551    13.349373    27.264385    5610.3178 
  969500      969.486    552.21143      22.6985   -436.03595   -413.33745    -803.0754    3028.3657    1119.2243   -6556.8162    15.414554    13.349375    27.264368    5610.3159 
  970000      969.986    556.31848    22.867319   -436.20003   -413.33271   -359.27712     3025.605    3157.8652   -7261.3016    15.414556    13.349377     27.26435     5610.314 
  970500      970.486     547.5027    22.504949   -435.83029   -413.32534   -8.9178703    1783.2526    2396.8841   -4206.8904    15.414558    13.349379    27.264333    5610.3122 
  971000      970.986    563.25488    23.152438   -436.47434    -413.3219   -353.69955    1535.4886    981.47143   -3578.0586    15.414561    13.349381    27.264315    5610.3103 
  971500      971.486    557.83297    22.929572   -436.24404   -413.31447   -1013.6903    3629.4017   -1597.6153   -5072.8575    15.414563    13.349383    27.264298    5610.3084 
  972000      971.986    558.51922     22.95778   -436.26539   -413.30761   -789.80361    3917.7634    645.87083   -6933.0451    15.414566    13.349385     27.26428    5610.3066 
  972500      972.486    518.55098    21.314896   -434.61513   -413.30023    30.947536    106.93302    651.99639    -666.0868    15.414568    13.349387    27.264263    5610.3047 
  973000      972.986    568.97498    23.387561   -436.68202   -413.29445   -773.61731    1182.0835    261.43835   -3764.3738     15.41457    13.349389    27.264245    5610.3028 
  973500      973.486    559.87688    23.013586   -436.30331   -413.28972   -1686.9833    1934.5825    1594.0183   -8589.5509    15.414573    13.349391    27.264228     5610.301 
  974000      973.986    578.61432    23.783783   -437.06543   -413.28164   -1252.8806    2411.1412    369.73779   -6539.5208    15.414575    13.349393     27.26421    5610.2991 
  974500      974.486    586.17731    24.094658   -437.37054   -413.27588   -2114.2958    2975.0401   -2468.0688   -6849.8586    15.414578    13.349395    27.264193    5610.2972 
  975000      974.986    558.27482    22.947733   -436.21678   -413.26904     169.8969    5387.1895     1282.767   -6160.2658     15.41458    13.349397    27.264175    5610.2954 
  975500      975.486    558.85993    22.971784   -436.23429   -413.26251   -722.84614    2068.7477    526.59065   -4763.8768    15.414582    13.349399    27.264158    5610.2935 
  976000      975.986    591.47929    24.312594    -437.5699    -413.2573   -1600.4921    2665.9189    392.99868    -7860.394    15.414585    13.349402     27.26414    5610.2916 
  976500      976.486    595.24009    24.467181   -437.71714   -413.24996   -1516.3608    2905.6107    1473.2757   -8927.9689    15.414587    13.349404    27.264123    5610.2898 
  977000      976.986    603.15001    24.792316   -438.03666   -413.24434   -2257.0715     491.6938    1050.4054   -8313.3137     15.41459    13.349406    27.264105    5610.2879 
  977500      977.486    560.40035    23.035103   -436.27058   -413.23548   -374.22759    4439.6795    508.35401   -6070.7163    15.414592    13.349408    27.264088     5610.286 
  978000      977.986    576.47912    23.696016   -436.92667   -413.23066   -23.695019    3021.7019    1265.5995   -4358.3864    15.414594     13.34941     27.26407    5610.2842 
  978500      978.486    581.37539    23.897276   -437.12044   -413.22316    -666.3497    4690.7723   -1170.8422   -5518.9793    15.414597    13.349412    27.264053    5610.2823 
  979000      978.986    592.57353    24.357573   -437.57489   -413.21732   -1705.6257    4430.0162   -1157.8357   -8389.0576    15.414599    13.349414    27.264035    5610.2804 
  979500      979.486    549.30219    22.578916   -435.78765   -413.20873    358.01511    8282.3418    3692.6879   -10900.984    15.414602    13.349416    27.264018    5610.2786 
  980000      979.986    583.36834    23.979196   -437.18112   -413.20192   -2066.7712     1071.088   -694.43638   -6576.9653    15.414604    13.349418       27.264    5610.2767 
  980500      980.486    579.99475    23.840526     -437.037   -413.19647   -793.42975      3536.63    52.163154   -5969.0824    15.414606     13.34942    27.263983    5610.2748 
  981000      980.986    547.16171    22.490932   -435.67834   -413.18741   -809.21417    7884.9579   -1539.1353   -8773.4652    15.414609    13.349422    27.263965     5610.273 
  981500      981.486    614.71631    25.267746   -438.44946   -413.18172   -1450.1364    -379.6043     4467.149   -8437.9538    15.414611    13.349424    27.263948    5610.2711 
  982000      981.986    576.46344    23.695372   -436.86976   -413.17439   -1144.0275    3404.4397   -1422.9373   -5413.5849    15.414614    13.349426     27.26393    5610.2692 
  982500      982.486    575.72223    23.664904   -436.83103   -413.16613   -1114.8658     3715.529   -2579.3076   -4480.8188    15.414616    13.349428    27.263913    5610.2674 
  983000      982.986    577.72842    23.747368   -436.90582   -413.15845   -587.94618    2534.4494   -937.27191    -3361.016    15.414618     13.34943    27.263895    5610.2655 
  983500      983.486    597.44155    24.557671   -437.70911   -413.15144   -1332.6006    3937.4657   -2201.5563   -5733.7112    15.414621    13.349432    27.263878    5610.2636 
  984000      983.986    572.41242    23.528856    -436.6724   -413.14355    -2332.884    945.61515    1343.9843   -9288.2513    15.414623    13.349434     27.26386    5610.2618 
  984500      984.486    559.37317    22.992881   -436.12974   -413.13686   -1297.9019    2592.1084    1524.5303   -8010.3443    15.414626    13.349436    27.263843    5610.2599 
  985000      984.986    592.40818    24.350776   -437.48123   -413.13045   -1664.3709   -772.20085    2233.0874   -6453.9993    15.414628    13.349438    27.263825     5610.258 
  985500      985.486    550.11113    22.612167   -435.73331   -413.12114   -557.50662    3760.9855    2521.1325   -7954.6379     15.41463     13.34944    27.263808    5610.2562 
  986000      985.986    591.98988    24.333582   -437.44636   -413.11277   -2092.2991    1265.9873    267.47616   -7810.3607    15.414633    13.349443     27.26379    5610.2543 
  986500      986.486    545.13768    22.407735   -435.51176   -413.10402   -1547.2542    1862.1719     -484.069   -6019.8654    15.414635    13.349445    27.263773    5610.2524 
  987000      986.986    576.46327    23.695365    -436.7925   -413.09713   -110.71706    327.44402    4240.6691   -4900.2643    15.414638    13.349447    27.263755    5610.2506 
  987500      987.486    582.98739    23.963537   -437.05301   -413.08947   -681.02665    5554.2992   -1204.4494   -6392.9298     15.41464    13.349449    27.263738    5610.2487 
  988000      987.986    531.74753    21.857337   -434.93775   -413.08041   -347.13727    2586.3564    2477.0182   -6104.7863    15.414642    13.349451     27.26372    5610.2468 
  988500      988.486    533.26069    21.919534    -434.9916   -413.07207    822.86407    6688.3367    1974.4404   -6194.1849    15.414645    13.349453    27.263703     5610.245 
  989000      988.986      568.935    23.385917   -436.44976   -413.06384   -1143.1149     722.2447    209.71139   -4361.3009    15.414647    13.349455    27.263685    5610.2431 
  989500      989.486    614.90419    25.275468   -438.33093   -413.05546   -2730.4896    -975.9237     2809.913   -10025.458     15.41465    13.349457    27.263668    5610.2412 
  990000      989.986    589.80895    24.243935    -437.2914   -413.04746   -2029.6407   -600.23497     1591.564   -7080.2512    15.414652    13.349459     27.26365    5610.2394 
  990500      990.486    583.40825    23.980836   -437.01846   -413.03763   -2204.3372   -1641.4077    4850.5007   -9822.1047    15.414654    13.349461    27.263633    5610.2375 
  991000      990.986    573.89486    23.589791   -436.61957   -413.02978   -1155.3637   -242.40544    3816.9183    -7040.604    15.414657    13.349463    27.263615    5610.2356 
  991500      991.486    576.55132    23.698984   -436.72053   -413.02154   -1026.3354   -144.03973    5218.3303   -8153.2966    15.414659    13.349465    27.263598    5610.2338 
  992000      991.986    576.49116    23.696511   -436.70725   -413.01074   -152.11395    571.43775    4508.3192   -5536.0989    15.414662    13.349467     27.26358    5610.2319 
  992500      992.486    536.93995     22.07077   -435.07317    -413.0024    514.65995     2176.232    3747.8182   -4380.0703    15.414664    13.349469    27.263563      5610.23 
  993000      992.986    573.89083    23.589625    -436.5842   -412.99457   -58.044312    3813.4513    2995.5252   -6983.1094    15.414666    13.349471    27.263545    5610.2282 
  993500      993.486     584.3153    24.018121   -437.00326   -412.98514   -1843.8286   -1559.0713    3061.8366   -7034.2512    15.414669    13.349473    27.263528    5610.2263 
  994000      993.986    550.56977     22.63102    -435.6077   -412.97668    428.79273    1269.3223    7456.0828   -7439.0269    15.414671    13.349475     27.26351    5610.2245 
  994500      994.486     578.0886    23.762174    -436.7302   -412.96803    -268.2465    3062.5855   -85.903567   -3781.4214    15.414674    13.349477    27.263493    5610.2226 
  995000      994.986    589.25102    24.221002   -437.18039   -412.95939   -1874.4928    2357.9552   -1587.6352   -6393.7983    15.414676    13.349479    27.263475    5610.2207 
  995500      995.486    569.73351     23.41874   -436.36902   -412.95028    -1463.125   -1414.4202    4490.3267   -7465.2816    15.414678    13.349481    27.263458    5610.2189 
  996000      995.986    592.15616    24.340417   -437.28299   -412.94258   -2314.8232   -3729.9102    6869.6729   -10084.232    15.414681    13.349484     27.26344     5610.217 
  996500      996.486    593.97343    24.415115   -437.34943   -412.93431    246.63881    2285.1199    4381.6537   -5926.8571    15.414683    13.349486    27.263423    5610.2151 
  997000      996.986    564.25253    23.193446   -436.11643   -412.92298    85.541045    965.23088    4067.6698   -4776.2775    15.414686    13.349488    27.263405    5610.2133 
  997500      997.486    575.96295    23.674799    -436.5907    -412.9159   -1236.5003   -1969.9637     3814.901   -5554.4383    15.414688     13.34949    27.263388    5610.2114 
  998000      997.986    587.70624    24.157504   -437.06356   -412.90606   -540.17569    651.88296    4547.1803   -6819.5903     15.41469    13.349492     27.26337    5610.2095 
  998500      998.486     566.1058    23.269624   -436.16573    -412.8961   -956.49842    1593.3339    3715.3568   -8178.1859    15.414693    13.349494    27.263353    5610.2077 
  999000      998.986    586.45235    24.105963   -436.99233   -412.88637   -517.03918    363.44814    6410.2963   -8324.8619    15.414695    13.349496    27.263335    5610.2058 
  999500      999.486    599.14658    24.627756   -437.50441   -412.87666   -719.77259    926.62927    5829.0792   -8915.0262    15.414698    13.349498    27.263318    5610.2039 
 1000000      999.986    559.86869    23.013249   -435.87938   -412.86613   -960.40299   -231.44963    3178.1866   -5827.9459      15.4147      13.3495      27.2633    5610.2021 
 1000014         1000    555.04575    22.815003   -435.68066   -412.86566   -1174.7811   -572.86606    3212.3205   -6163.7977      15.4147      13.3495      27.2633     5610.202 
Loop time of 895.329 on 28 procs for 1000000 steps with 319 atoms

Performance: 96.501 ns/day, 0.249 hours/ns, 1116.908 timesteps/s
87.0% CPU use with 28 MPI tasks x no OpenMP threads

MPI task timing breakdown:
Section |  min time  |  avg time  |  max time  |%varavg| %total
---------------------------------------------------------------
Pair    | 729.86     | 779.03     | 810.3      |  68.0 | 87.01
Neigh   | 0.013554   | 0.020818   | 0.027122   |   2.5 |  0.00
Comm    | 74.781     | 104.4      | 152.38     | 178.7 | 11.66
Output  | 0.10017    | 0.10205    | 0.12328    |   1.3 |  0.01
Modify  | 4.7136     | 6.6791     | 9.4372     |  50.4 |  0.75
Other   |            | 5.096      |            |       |  0.57

Nlocal:    11.3929 ave 16 max 6 min
Histogram: 2 1 2 3 2 3 5 2 3 5
Nghost:    641.25 ave 678 max 590 min
Histogram: 6 1 1 0 2 2 0 4 5 7
Neighs:    711.143 ave 1008 max 370 min
Histogram: 3 1 2 4 2 4 3 4 1 4
FullNghs:  1422.29 ave 1984 max 747 min
Histogram: 2 2 4 2 2 2 5 2 2 5

Total # of neighbors = 39824
Ave neighs/atom = 124.84
Neighbor list builds = 311
Dangerous builds = 0

write_restart   POSCAR_1x1x1.rest

#unfix    1
#undump   1
Total wall time: 0:14:55
