LAMMPS (7 Dec 2015)
#----------- Initialize Simulation ------------ restart01
#processors	2 2 2
units		metal
boundary	p p p     ## periodic boundary condition  on x y z axis ##
atom_style atomic
#atom_modify map array sort 0 0.0

read_data	POSCAR_1x1x1.lammps
  triclinic box = (0 0 0) to (15.6573 13.5596 25.4788) with tilt (-7.82855 0 0)
  2 by 2 by 7 MPI processor grid
  reading atoms ...
  319 atoms

#----------- Define Potential -----------------
pair_style meam
pair_coeff * * MgAlZn.library.meam Mg Al Zn MgAlZn.parameter.meam Mg Al Zn 	#1=Mg 2=Al 3=Zn	#atoms/mass

#----------- Neighbor List --------------------
neighbor 2.0 bin
neigh_modify delay 10 check yes

#--------------  Run a simulation (minimization) ---------------------------------------
minimize       1.0e-4   1.0e-6   100   1000          #結構優化的條件
WARNING: Resetting reneighboring criteria during minimization (../min.cpp:168)
Neighbor list info ...
  2 neighbor list requests
  update every 1 steps, delay 0 steps, check yes
  max neighbors/atom: 2000, page size: 100000
  master list distance cutoff = 8
  ghost atom cutoff = 8
  binsize = 4 -> bins = 6 4 7
Memory usage per processor = 8.65401 Mbytes
Step Temp E_pair E_mol TotEng Press 
       0            0   -434.69692            0   -434.69692    7153.1364 
      14            0   -459.79097            0   -459.79097   -10672.801 
Loop time of 0.02174 on 28 procs for 14 steps with 319 atoms

83.9% CPU use with 28 MPI tasks x no OpenMP threads

Minimization stats:
  Stopping criterion = energy tolerance
  Energy initial, next-to-last, final = 
        -434.696922827     -459.751614485     -459.790967061
  Force two-norm initial, final = 25.5929 0.704732
  Force max component initial, final = 6.63557 0.0979341
  Final line search alpha, max atom move = 0.476629 0.0466782
  Iterations, force evaluations = 14 21

MPI task timing breakdown:
Section |  min time  |  avg time  |  max time  |%varavg| %total
---------------------------------------------------------------
Pair    | 0.016684   | 0.017972   | 0.019683   |   0.5 | 82.67
Neigh   | 0          | 0          | 0          |   0.0 |  0.00
Comm    | 0.001213   | 0.0028989  | 0.004163   |   1.2 | 13.33
Output  | 0          | 0          | 0          |   0.0 |  0.00
Modify  | 0          | 0          | 0          |   0.0 |  0.00
Other   |            | 0.0008692  |            |       |  4.00

Nlocal:    11.3929 ave 17 max 6 min
Histogram: 4 0 3 2 5 5 3 1 4 1
Nghost:    686.214 ave 754 max 647 min
Histogram: 3 4 6 7 1 2 2 1 0 2
Neighs:    728.893 ave 1058 max 386 min
Histogram: 4 0 1 4 4 6 2 3 3 1
FullNghs:  1457.79 ave 2187 max 776 min
Histogram: 4 0 3 2 5 5 3 1 4 1

Total # of neighbors = 40818
Ave neighs/atom = 127.956
Neighbor list builds = 0
Dangerous builds = 0
velocity all  create 600.0 4928459 #rot yes dist gaussian

#--------------  Run a simulation (Relaxation)  ----------------------------------------
fix  1  all  nvt   temp  600.0  600.0  100				#damping constant
#fix  2  all  npt   temp  393.0  393.0  50 iso 0.0 0.0 1000.0
fix  2  all deform 1 x final 0 15.662 y final 0 13.5637 z final 0 25.4439 xy final -7.8309 units lattice
#fix  3  all  npt   temp  393.0  393.0  50 z 0.0 0.0 1000.0

#variable b equal 1
#fix 2 all efield  0.0  0.0  v_b
#compute pot all pe/atom


#----------- Output --------------------------
thermo	 500
timestep  0.001		#1.0 fs
thermo_style	custom step time temp ke pe etotal press pxx pyy pzz lx ly lz vol

dump 1 all custom 10000 dump.eq id type x y z
dump_modify 1 sort  id

run        1000000	#1000 ps
Neighbor list info ...
  2 neighbor list requests
  update every 1 steps, delay 10 steps, check yes
  max neighbors/atom: 2000, page size: 100000
  master list distance cutoff = 8
  ghost atom cutoff = 8
  binsize = 4 -> bins = 6 4 7
Memory usage per processor = 7.55995 Mbytes
Step Time Temp KinEng PotEng TotEng Press Pxx Pyy Pzz Lx Ly Lz Volume 
      14            0          600    24.662836   -459.79097   -435.12813   -5802.9082   -13347.045    -12727.34    8665.6604      15.6573      13.5596      25.4788    5409.3206 
     500        0.486    303.71472    12.484111   -447.60602   -435.12191    293.72082   -8910.8161   -6281.4249    16073.403    15.657302    13.559602    25.478783    5409.3186 
    1000        0.986    321.01686     13.19531   -448.31746   -435.12215    660.62271   -10110.002   -5000.4639    17092.335    15.657305    13.559604    25.478766    5409.3165 
    1500        1.486    310.99269    12.783269   -447.90459   -435.12132    516.05593   -6785.9573   -7517.6348     15851.76    15.657307    13.559606    25.478748    5409.3144 
    2000        1.986    325.66661    13.386437   -448.50708   -435.12064    1037.8521    -7722.901    -8643.204    19479.661    15.657309    13.559608    25.478731    5409.3123 
    2500        2.486    321.92727    13.232732   -448.35216   -435.11942   -967.03893   -9954.9849   -8003.7527    15057.621    15.657312     13.55961    25.478713    5409.3103 
    3000        2.986     318.1732    13.078422   -448.19582    -435.1174    546.58653   -8200.7905   -8772.5013    18613.051    15.657314    13.559612    25.478696    5409.3082 
    3500        3.486    325.31063    13.371804    -448.4877   -435.11589    441.71812   -7358.3487   -8548.0158    17231.519    15.657316    13.559614    25.478678    5409.3061 
    4000        3.986    331.94384    13.644461   -448.75814   -435.11368    66.724306   -9168.6887   -6861.6663    16230.528    15.657319    13.559616    25.478661     5409.304 
    4500        4.486    342.32653    14.071238   -449.18211   -435.11087   -774.63401    -11866.78   -7705.8322     17248.71    15.657321    13.559618    25.478643     5409.302 
    5000        4.986     332.6775    13.674617   -448.78193   -435.10731   -353.26825   -10038.425   -8059.6472    17038.268    15.657323     13.55962    25.478626    5409.2999 
    5500        5.486    317.62381     13.05584   -448.15935   -435.10351    254.70643   -8567.6832   -6988.3531    16320.156    15.657326    13.559622    25.478609    5409.2978 
    6000        5.986    299.74505    12.320938    -447.4212   -435.10026    977.73837   -10279.033   -6806.2595    20018.507    15.657328    13.559625    25.478591    5409.2957 
    6500        6.486    325.85475     13.39417   -448.49104   -435.09687    421.02169   -10612.479    -6194.658    18070.202     15.65733    13.559627    25.478574    5409.2937 
    7000        6.986     317.2178    13.039151   -448.13186   -435.09271    829.51814   -7613.9411   -7684.5773    17787.073    15.657333    13.559629    25.478556    5409.2916 
    7500        7.486    359.00909     14.75697   -449.84518   -435.08821    -761.7906   -9825.2878   -8516.1127    16056.029    15.657335    13.559631    25.478539    5409.2895 
    8000        7.986    320.72826    13.183447   -448.26661   -435.08316    287.50981   -11990.734   -5246.4756    18099.739    15.657338    13.559633    25.478521    5409.2874 
    8500        8.486    343.76718    14.130456   -449.20942   -435.07897   -613.25454   -10699.538   -10856.367    19716.142     15.65734    13.559635    25.478504    5409.2854 
    9000        8.986    320.25158    13.163854   -448.23714   -435.07329   -290.61714   -6513.0869   -9999.0686    15640.304    15.657342    13.559637    25.478486    5409.2833 
    9500        9.486    319.34992    13.126791   -448.19386   -435.06707    661.26358   -8754.8544    -5311.615     16050.26    15.657345    13.559639    25.478469    5409.2812 
   10000        9.986    331.96143    13.645184   -448.70633   -435.06114    569.55536   -11767.803    -4633.148    18109.617    15.657347    13.559641    25.478451    5409.2791 
   10500       10.486    346.80564    14.255351   -449.31042   -435.05507   -194.34681   -10009.406   -8687.2672    18113.633    15.657349    13.559643    25.478434    5409.2771 
   11000       10.986     336.5475    13.833693   -448.88189    -435.0482    354.65066   -9410.5708   -7066.6282    17541.151    15.657352    13.559645    25.478417     5409.275 
   11500       11.486    343.23523     14.10859   -449.14997   -435.04138    149.27051   -10998.418   -9794.8798    21241.109    15.657354    13.559647    25.478399    5409.2729 
   12000       11.986     324.5805    13.341793   -448.37525   -435.03346    723.88842   -8233.9321   -7150.5749    17556.172    15.657356    13.559649    25.478382    5409.2708 
   12500       12.486    311.93957    12.822191     -447.848   -435.02581     2727.098   -10306.091    -5616.513    24103.897    15.657359    13.559651    25.478364    5409.2688 
   13000       12.986    338.03366    13.894781   -448.91169   -435.01691    1634.4584    -8739.312     -5311.27    18953.957    15.657361    13.559653    25.478347    5409.2667 
   13500       13.486    332.30216    13.659189   -448.66727   -435.00808    1460.0881   -6908.8832   -7348.1904    18637.338    15.657363    13.559655    25.478329    5409.2646 
   14000       13.986    344.50768    14.160894   -449.16121   -435.00031    1017.5566   -6907.7707   -7956.7966    17917.237    15.657366    13.559657    25.478312    5409.2625 
   14500       14.486    323.64814    13.303468   -448.29437    -434.9909    1491.5339   -7183.1513   -7998.3491    19656.102    15.657368    13.559659    25.478294    5409.2605 
   15000       14.986    327.21931     13.45026   -448.43168   -434.98142    667.73198   -10147.269   -5720.6175    17871.083     15.65737    13.559661    25.478277    5409.2584 
   15500       15.486    311.63051    12.809487   -447.78205   -434.97256    2208.1043   -5081.5689   -8637.4027    20343.285    15.657373    13.559663     25.47826    5409.2563 
   16000       15.986    320.74744    13.184236   -448.14644    -434.9622    1345.6005   -7878.8332   -6091.8292    18007.464    15.657375    13.559666    25.478242    5409.2542 
   16500       16.486    320.25311    13.163916   -448.11693   -434.95301    1974.9985   -6166.8879   -6734.8988    18826.782    15.657377    13.559668    25.478225    5409.2522 
   17000       16.986    338.38915    13.909393   -448.85145   -434.94206    152.92907   -7566.7047   -8964.8581     16990.35     15.65738     13.55967    25.478207    5409.2501 
   17500       17.486    328.68426    13.510476   -448.44191   -434.93143     1351.741   -9089.4566   -6609.8526    19754.532    15.657382    13.559672     25.47819     5409.248 
   18000       17.986    326.68665    13.428365   -448.34804   -434.91968    937.20501   -9763.8416   -8864.2008    21439.657    15.657385    13.559674    25.478172    5409.2459 
   18500       18.486    338.51028    13.914372   -448.82346   -434.90909    964.21955   -9498.2548   -5882.4372    18273.351    15.657387    13.559676    25.478155    5409.2439 
   19000       18.986    334.30613    13.741562   -448.63838   -434.89682    1184.1555   -10582.787   -6319.0916    20454.345    15.657389    13.559678    25.478137    5409.2418 
   19500       19.486    334.26356    13.739812   -448.62468   -434.88486    125.19204   -14443.139   -4794.6597    19613.374    15.657392     13.55968     25.47812    5409.2397 
   20000       19.986    328.19508    13.490369   -448.36271   -434.87234    520.68057   -8816.7294   -6617.3786     16996.15    15.657394    13.559682    25.478102    5409.2376 
   20500       20.486    327.68364    13.469346   -448.32952   -434.86018    1530.3697   -7758.3432   -8961.3561    21310.808    15.657396    13.559684    25.478085    5409.2356 
   21000       20.986    307.49884    12.639655   -447.48712   -434.84747    774.43327   -8916.6811   -7772.5377    19012.519    15.657399    13.559686    25.478068    5409.2335 
   21500       21.486    314.43196     12.92464   -447.75869   -434.83405    1117.2556   -6924.9161   -7642.8669     17919.55    15.657401    13.559688     25.47805    5409.2314 
   22000       21.986    334.70081    13.757785   -448.57959    -434.8218    1592.6207   -10853.046   -5527.0367    21157.945    15.657403     13.55969    25.478033    5409.2293 
   22500       22.486    305.45539     12.55566   -447.36283   -434.80717    1022.1952   -5721.4316   -8135.8775    16923.895    15.657406    13.559692    25.478015    5409.2273 
   23000       22.986    316.32658    13.002517   -447.79545   -434.79293    2438.5919   -7288.7478   -4389.3797    18993.903    15.657408    13.559694    25.477998    5409.2252 
   23500       23.486    334.13004    13.734324   -448.51335   -434.77903    473.75447   -9438.3667   -7839.5697      18699.2     15.65741    13.559696     25.47798    5409.2231 
   24000       23.986    324.98438    13.358394    -448.1229   -434.76451    698.84079   -9275.9594   -8578.9379     19951.42    15.657413    13.559698    25.477963     5409.221 
   24500       24.486    326.93534    13.438588   -448.18921   -434.75062    1996.0659    -7689.468   -7220.6324    20898.298    15.657415      13.5597    25.477945     5409.219 
   25000       24.986    317.75267    13.061137   -447.79652   -434.73539    2563.7301   -8118.5242   -5658.2844    21467.999    15.657417    13.559702    25.477928    5409.2169 
   25500       25.486    334.65822    13.756035   -448.47617   -434.72013    570.98061   -5088.8488   -10209.826    17011.617     15.65742    13.559704    25.477911    5409.2148 
   26000       25.986    329.21764    13.532401   -448.23688   -434.70448     1560.323   -8564.5687   -3810.9749    17056.513    15.657422    13.559707    25.477893    5409.2127 
   26500       26.486    330.54462    13.586946   -448.27586   -434.68892    1554.8179   -5332.2963   -7491.1714    17487.921    15.657424    13.559709    25.477876    5409.2107 
   27000       26.986    328.26086    13.493073   -448.16646   -434.67338    11.104775   -8604.9969   -7673.4564    16311.768    15.657427    13.559711    25.477858    5409.2086 
   27500       27.486    353.86025    14.545329    -449.2039   -434.65857   -186.37976    -7839.316   -8464.8046    15744.981    15.657429    13.559713    25.477841    5409.2065 
   28000       27.986    335.53377    13.792024   -448.43301   -434.64099    628.15798   -8172.0833   -9797.8895    19854.447    15.657432    13.559715    25.477823    5409.2044 
   28500       28.486    318.59303    13.095679   -447.71984   -434.62416      3025.17   -9339.3062   -6247.9433    24662.759    15.657434    13.559717    25.477806    5409.2024 
   29000       28.986    349.27007    14.356651   -448.96456   -434.60791    1371.6862   -7504.9628   -10493.696    22113.717    15.657436    13.559719    25.477788    5409.2003 
   29500       29.486    321.74467    13.225227   -447.81539   -434.59017     2637.018    -9604.847   -6463.8672    23979.768    15.657439    13.559721    25.477771    5409.1982 
   30000       29.986    342.58647    14.081923   -448.65529   -434.57337    404.71237   -6703.6871   -6397.3272    14315.151    15.657441    13.559723    25.477753    5409.1961 
   30500       30.486     328.4949    13.502693   -448.05832   -434.55562     1606.794   -6526.1884   -6114.5297      17461.1    15.657443    13.559725    25.477736    5409.1941 
   31000       30.986    324.58357    13.341919   -447.88018   -434.53826    933.49333   -7516.1309   -7357.4887      17674.1    15.657446    13.559727    25.477719     5409.192 
   31500       31.486     335.9868    13.810645   -448.33028   -434.51964   -61.987161   -10743.697   -5060.4402    15618.176    15.657448    13.559729    25.477701    5409.1899 
   32000       31.986    338.27934     13.90488   -448.40666   -434.50178    110.33541   -12955.554   -6124.9245    19411.485     15.65745    13.559731    25.477684    5409.1878 
   32500       32.486    333.22984    13.697321   -448.18072   -434.48339    1860.4481   -8997.8756   -6205.1909    20784.411    15.657453    13.559733    25.477666    5409.1858 
   33000       32.986    338.33079    13.906994   -448.37279    -434.4658    1069.8856   -8210.8791   -6075.3697    17495.905    15.657455    13.559735    25.477649    5409.1837 
   33500       33.486    340.46374    13.994669   -448.44118   -434.44651    605.56263   -9608.8014   -6333.0135    17758.503    15.657457    13.559737    25.477631    5409.1816 
   34000       33.986     319.0963    13.116366   -447.54462   -434.42826    1675.7689   -6065.9712   -8854.3255    19947.603     15.65746    13.559739    25.477614    5409.1795 
   34500       34.486    335.67877    13.797984   -448.20747   -434.40949    1454.9654   -5612.4105   -7517.5198    17494.826    15.657462    13.559741    25.477596    5409.1775 
   35000       34.986    339.30354    13.946979    -448.3383   -434.39132    1321.7093    -6742.194   -8447.9695    19155.291    15.657464    13.559743    25.477579    5409.1754 
   35500       35.486    327.54915    13.463818   -447.83518   -434.37136    1094.5023   -5862.0989   -10612.862    19758.468    15.657467    13.559745    25.477562    5409.1733 
   36000       35.986    348.41412    14.321467   -448.67342   -434.35196      1604.56   -5694.5714   -5370.6692    15878.921    15.657469    13.559748    25.477544    5409.1712 
   36500       36.486    346.76279    14.253589    -448.5865   -434.33291    1514.5278   -6575.5297   -8019.5896    19138.703    15.657471     13.55975    25.477527    5409.1692 
   37000       36.986    334.87053    13.764762   -448.07777   -434.31301    1476.3525   -5344.2889    -5842.269    15615.615    15.657474    13.559752    25.477509    5409.1671 
   37500       37.486    339.44325    13.952722   -448.24636   -434.29363    1680.0512   -7273.4119   -5677.5101    17991.076    15.657476    13.559754    25.477492     5409.165 
   38000       37.986    326.70636    13.429175   -447.70374   -434.27457    2362.8608   -9970.7245   -4903.5754    21962.882    15.657479    13.559756    25.477474    5409.1629 
   38500       38.486      340.454    13.994269   -448.25006    -434.2558     1629.911   -8660.5778   -7459.9475    21010.258    15.657481    13.559758    25.477457    5409.1609 
   39000       38.986    326.69682    13.428783   -447.66466   -434.23588    694.18158   -8216.9208   -8178.6099    18478.075    15.657483     13.55976    25.477439    5409.1588 
   39500       39.486    342.80744    14.091006   -448.30835   -434.21735    460.41421   -9897.5807   -7340.3297    18619.153    15.657486    13.559762    25.477422    5409.1567 
   40000       39.986    339.33947    13.948456   -448.14516   -434.19671    1483.4793   -6702.8188   -6827.9996    17981.256    15.657488    13.559764    25.477404    5409.1546 
   40500       40.486    353.92117    14.547833   -448.72583     -434.178    1081.1084   -10710.524   -5974.4322    19928.282     15.65749    13.559766    25.477387    5409.1526 
   41000       40.986    330.10889    13.569036   -447.72669   -434.15766    2021.2917    -6065.409   -8197.9368    20327.221    15.657493    13.559768     25.47737    5409.1505 
   41500       41.486    338.92823    13.931552   -448.06969   -434.13814    1251.6397   -7640.5576   -8252.1448    19647.621    15.657495     13.55977    25.477352    5409.1484 
   42000       41.986    337.12133     13.85728   -447.97597   -434.11869    698.89082   -9577.0443   -6528.3366    18202.053    15.657497    13.559772    25.477335    5409.1463 
   42500       42.486    338.99077    13.934123   -448.03324   -434.09912    969.79749     -9496.33   -8935.9119    21341.634      15.6575    13.559774    25.477317    5409.1443 
   43000       42.986    348.85891     14.33975   -448.42008   -434.08033    1335.6446   -10383.761   -6038.8568    20429.551    15.657502    13.559776      25.4773    5409.1422 
   43500       43.486    341.96455    14.056359   -448.11608   -434.05972    235.02941   -14323.021    -5909.915    20938.024    15.657504    13.559778    25.477282    5409.1401 
   44000       43.986     340.3826    13.991334   -448.03254   -434.04121   -207.01736   -10308.911   -7112.9852    16800.844    15.657507     13.55978    25.477265     5409.138 
   44500       44.486    315.95089    12.987075   -447.00788   -434.02081    856.33922   -10413.643   -6990.4889     19973.15    15.657509    13.559782    25.477247     5409.136 
   45000       44.986    329.01873    13.524225   -447.52605   -434.00183    2269.7896   -5455.4254   -6482.1604    18746.955    15.657511    13.559784     25.47723    5409.1339 
   45500       45.486    335.79795    13.802883   -447.78592   -433.98304    509.08121   -7204.5081   -9434.7189    18166.471    15.657514    13.559786    25.477213    5409.1318 
   46000       45.986    333.74301    13.718415   -447.68263   -433.96422    1554.8727   -8874.4077   -5642.6658    19181.691    15.657516    13.559789    25.477195    5409.1297 
   46500       46.486    330.07747    13.567744   -447.51211   -433.94436    591.47045   -7078.6226   -7370.5209    16223.555    15.657518    13.559791    25.477178    5409.1277 
   47000       46.986    348.43086    14.322155   -448.24815     -433.926   -806.83087   -8082.0333    -8508.224    14169.765    15.657521    13.559793     25.47716    5409.1256 
   47500       47.486    338.34339    13.907512   -447.81366   -433.90614    1023.2519   -7102.1047   -9598.9816    19770.842    15.657523    13.559795    25.477143    5409.1235 
   48000       47.986    346.46274    14.241256   -448.12825     -433.887   -89.192737   -7507.4462   -9491.0032    16730.871    15.657526    13.559797    25.477125    5409.1214 
   48500       48.486    359.70245     14.78547   -448.65478   -433.86931    210.27278   -8381.1677     -7754.58    16766.566    15.657528    13.559799    25.477108    5409.1194 
   49000       48.986    338.93532    13.931843   -447.78223   -433.85039    1036.8784   -8126.0441   -5383.1462    16619.825     15.65753    13.559801     25.47709    5409.1173 
   49500       49.486    362.40954    14.896745   -448.72886   -433.83211    541.43466   -7414.4878   -9865.3163    18904.108    15.657533    13.559803    25.477073    5409.1152 
   50000       49.986    366.89454      15.0811   -448.89476   -433.81366    1837.3353   -6098.2714   -6400.4403    18010.717    15.657535    13.559805    25.477055    5409.1131 
   50500       50.486    328.51295    13.503435   -447.29716   -433.79373     1865.166   -6817.6862   -6130.5918    18543.776    15.657537    13.559807    25.477038    5409.1111 
   51000       50.986    366.56708    15.067639   -448.84492   -433.77728    1694.8626   -5528.3027   -7548.6355    18161.526     15.65754    13.559809    25.477021     5409.109 
   51500       51.486    332.60014    13.671438   -447.42934    -433.7579    3479.9416   -8120.6785   -7225.0861    25785.589    15.657542    13.559811    25.477003    5409.1069 
   52000       51.986    361.65608    14.865774   -448.60587    -433.7401    1367.9985   -9111.9557   -8092.0778    21308.029    15.657544    13.559813    25.476986    5409.1048 
   52500       52.486    338.13933    13.899125    -447.6214   -433.72228    2210.6203   -4448.0347   -9438.0508    20517.946    15.657547    13.559815    25.476968    5409.1028 
   53000       52.986    335.15022    13.776258   -447.48041   -433.70415     3370.609    -3601.448   -5941.3475    19654.622    15.657549    13.559817    25.476951    5409.1007 
   53500       53.486    353.10889    14.514444   -448.19943   -433.68499    4018.6328    -7206.895   -5436.0126    24698.806    15.657551    13.559819    25.476933    5409.0986 
   54000       53.986     343.7442    14.129511   -447.79615   -433.66664    1036.3391   -8371.9476   -8227.6385    19708.603    15.657554    13.559821    25.476916    5409.0965 
   54500       54.486    334.14508    13.734942   -447.38401   -433.64907    1515.2709   -7433.7774   -8527.9449    20507.535    15.657556    13.559823    25.476898    5409.0945 
   55000       54.986    342.95715     14.09716   -447.72882   -433.63166    620.86259   -10125.149   -5518.9318    17506.668    15.657558    13.559825    25.476881    5409.0924 
   55500       55.486    348.28096    14.315994   -447.93012   -433.61413    1399.4937    -9203.326   -7383.7637    20785.571    15.657561    13.559827    25.476864    5409.0903 
   56000       55.986    362.83317    14.914158    -448.5115   -433.59734    2701.6397   -4941.7632   -7720.5632    20767.246    15.657563     13.55983    25.476846    5409.0882 
   56500       56.486     354.8993    14.588039   -448.16753   -433.57949    779.29682   -7925.2866   -8548.0712    18811.248    15.657565    13.559832    25.476829    5409.0862 
   57000       56.986    338.39472    13.909622   -447.47001   -433.56039    223.05558   -7703.4325   -7109.9202    15482.519    15.657568    13.559834    25.476811    5409.0841 
   57500       57.486    353.55137    14.532632    -448.0781   -433.54546    997.53535   -10443.378   -6753.2156      20189.2     15.65757    13.559836    25.476794     5409.082 
   58000       57.986    345.30199    14.193544   -447.72031   -433.52677    197.36345   -8126.9427   -10020.178    18739.211    15.657573    13.559838    25.476776    5409.0799 
   58500       58.486    381.81964    15.694592   -449.20632   -433.51173    773.07092   -7502.5658   -8557.8842    18379.663    15.657575     13.55984    25.476759    5409.0778 
   59000       58.986    328.44411    13.500605   -446.99292   -433.49231    2611.0847   -6905.2098   -8179.4664     22917.93    15.657577    13.559842    25.476741    5409.0758 
   59500       59.486    350.03471    14.388081   -447.86455   -433.47647    2537.6797   -6546.2966   -6405.7973    20565.133     15.65758    13.559844    25.476724    5409.0737 
   60000       59.986    336.63769      13.8374    -447.2967    -433.4593    1861.1622   -8039.1253   -4665.5081     18288.12    15.657582    13.559846    25.476706    5409.0716 
   60500       60.486    345.02691    14.182237   -447.62601   -433.44377    3035.1498   -10083.516   -5738.6113    24927.577    15.657584    13.559848    25.476689    5409.0695 
   61000       60.986    340.09171    13.979377   -447.40533   -433.42595    2763.1442   -7896.1864   -6148.4651    22334.084    15.657587     13.55985    25.476672    5409.0675 
   61500       61.486    347.62053    14.288847   -447.69766   -433.40881    601.57462   -9131.7089   -6695.6094    17632.042    15.657589    13.559852    25.476654    5409.0654 
   62000       61.986     356.0353    14.634734   -448.02767   -433.39294    1914.1269   -5372.8415    -7300.115    18415.337    15.657591    13.559854    25.476637    5409.0633 
   62500       62.486    352.41633    14.485977   -447.86253   -433.37655    1791.8159   -8423.4991   -6027.5422    19826.489    15.657594    13.559856    25.476619    5409.0612 
   63000       62.986    336.06074    13.813684   -447.17391   -433.36023    2156.5525   -7423.8747   -5033.3621    18926.894    15.657596    13.559858    25.476602    5409.0592 
   63500       63.486    338.49558    13.913768   -447.25724   -433.34347    1588.7623   -9146.5402    -9046.338    22959.165    15.657598     13.55986    25.476584    5409.0571 
   64000       63.986    352.08565    14.472384   -447.79927   -433.32688    770.44807   -9172.0225   -8636.5551    20119.922    15.657601    13.559862    25.476567     5409.055 
   64500       64.486    347.29742    14.275565    -447.5867   -433.31114    1477.4007   -10496.615   -5391.4927    20320.309    15.657603    13.559864    25.476549    5409.0529 
   65000       64.986    351.97638    14.467893   -447.76284   -433.29494    739.79207   -8314.4659   -8401.8456    18935.688    15.657605    13.559866    25.476532    5409.0509 
   65500       65.486    344.90292     14.17714   -447.45567   -433.27853    3228.8558   -6989.1231    -7309.129     23984.82    15.657608    13.559868    25.476515    5409.0488 
   66000       65.986    341.33481    14.030474   -447.29348     -433.263    601.48776   -6225.2511   -8987.8741    17017.589     15.65761    13.559871    25.476497    5409.0467 
   66500       66.486    350.95508    14.425912   -447.67286   -433.24695    1372.2778   -6067.7344   -7880.2222     18064.79    15.657612    13.559873     25.47648    5409.0446 
   67000       66.986    356.15196    14.639529   -447.86984   -433.23031    1473.1476   -9329.0669   -3859.7021    17608.212    15.657615    13.559875    25.476462    5409.0426 
   67500       67.486    347.01482    14.263949   -447.47775    -433.2138    1888.5029   -6916.8507   -9541.0879    22123.447    15.657617    13.559877    25.476445    5409.0405 
   68000       67.986    334.87835    13.765083   -446.96291   -433.19782    3440.7341   -5310.5783   -6743.5452    22376.326     15.65762    13.559879    25.476427    5409.0384 
   68500       68.486    331.28034    13.617188   -446.79951   -433.18232    2097.4649   -9910.6819   -5437.4525    21640.529    15.657622    13.559881     25.47641    5409.0363 
   69000       68.986    337.34987    13.866674   -447.03257   -433.16589    1912.8026   -7615.2977   -9001.0281    22354.734    15.657624    13.559883    25.476392    5409.0343 
   69500       69.486    339.74514    13.965131   -447.11516   -433.15003    1829.5752   -9651.5111   -4349.0014    19489.238    15.657627    13.559885    25.476375    5409.0322 
   70000       69.986    366.69107    15.072736   -448.20786   -433.13512   -797.17837   -11269.362   -7650.0408    16527.868    15.657629    13.559887    25.476357    5409.0301 
   70500       70.486    349.28262    14.357167   -447.47532   -433.11815      1098.22   -9169.2709   -5613.0715    18077.003    15.657631    13.559889     25.47634     5409.028 
   71000       70.986    352.92758    14.506992   -447.60887   -433.10187    2159.4579   -9492.1645   -3970.7433    19941.282    15.657634    13.559891    25.476323     5409.026 
   71500       71.486     340.1692    13.982562   -447.06831   -433.08575    2942.4687   -8244.6225   -3634.6688    20706.697    15.657636    13.559893    25.476305    5409.0239 
   72000       71.986    343.37311    14.114257   -447.18399   -433.06974     1175.405   -11642.885   -4086.0663    19255.166    15.657638    13.559895    25.476288    5409.0218 
   72500       72.486    315.76822    12.979566   -446.03255   -433.05299     3052.045   -8087.1705   -6887.8649     24131.17    15.657641    13.559897     25.47627    5409.0197 
   73000       72.986    355.13187    14.597598   -447.63566   -433.03806    343.14881   -10023.088    -5508.806     16561.34    15.657643    13.559899    25.476253    5409.0177 
   73500       73.486     357.5101    14.695355   -447.71757   -433.02222    2098.2091   -9170.9136   -2337.6196    17803.161    15.657645    13.559901    25.476235    5409.0156 
   74000       73.986    327.83946    13.475751   -446.48118   -433.00543     1889.932   -4901.2408   -8222.3788    18793.415    15.657648    13.559903    25.476218    5409.0135 
   74500       74.486    334.30352    13.741455   -446.72998   -432.98853    2119.5365   -6626.7243   -4699.7413    17685.075     15.65765    13.559905      25.4762    5409.0114 
   75000       74.986    347.68255    14.291396   -447.26466   -432.97327    741.22801    -9219.572   -7592.9042     19036.16    15.657652    13.559907    25.476183    5409.0094 
   75500       75.486    355.43485    14.610052   -447.56691   -432.95686    1807.5086   -8007.3949   -4580.1241    18010.045    15.657655    13.559909    25.476166    5409.0073 
   76000       75.986    365.51018    15.024196   -447.96563   -432.94143    1300.4304   -8016.2456   -5618.0776    17535.614    15.657657    13.559912    25.476148    5409.0052 
   76500       76.486    336.03665    13.812694    -446.7363   -432.92361    2198.3128   -9741.0624   -3528.6073    19864.608    15.657659    13.559914    25.476131    5409.0031 
   77000       76.986    363.21393    14.929809   -447.83827   -432.90846    1997.9219   -3506.7377   -10659.969    20160.473    15.657662    13.559916    25.476113    5409.0011 
   77500       77.486    359.23529    14.766268   -447.65792   -432.89165    2702.2851   -6105.2177   -7643.7818    21855.855    15.657664    13.559918    25.476096     5408.999 
   78000       77.986    357.29477    14.686504   -447.56164   -432.87513    2097.7612   -8155.0129   -6101.0996    20549.396    15.657667     13.55992    25.476078    5408.9969 
   78500       78.486    347.79192    14.295892   -447.15391   -432.85802    2078.9853   -8900.9603   -4486.8394    19624.755    15.657669    13.559922    25.476061    5408.9948 
   79000       78.986    367.11827    15.090296   -447.93271   -432.84242   -199.45055   -11519.466   -6648.1584    17569.273    15.657671    13.559924    25.476043    5408.9928 
   79500       79.486     346.5728     14.24578   -447.07063   -432.82485    3221.2355   -6016.4758   -3935.3238    19615.506    15.657674    13.559926    25.476026    5408.9907 
   80000       79.986    349.60086    14.370248   -447.17819   -432.80795    2109.2919   -8633.2377   -3442.0416    18403.155    15.657676    13.559928    25.476008    5408.9886 
   80500       80.486    342.53004    14.079604    -446.8705    -432.7909    1724.4543   -9229.1218    -5503.212    19905.697    15.657678     13.55993    25.475991    5408.9865 
   81000       80.986    351.00605    14.428008   -447.20257   -432.77456    2678.9701   -9431.5589   -3596.3722    21064.841    15.657681    13.559932    25.475974    5408.9845 
   81500       81.486    343.29722    14.111138   -446.86936   -432.75822    1736.2612   -10935.486   -7161.2117    23305.481    15.657683    13.559934    25.475956    5408.9824 
   82000       81.986     369.5335    15.189573   -447.93092   -432.74135    1098.2125   -8590.5264   -6761.5895    18646.753    15.657685    13.559936    25.475939    5408.9803 
   82500       82.486    364.85306    14.997185    -447.7223   -432.72512    1744.9873   -9618.9385   -5161.5428    20015.443    15.657688    13.559938    25.475921    5408.9782 
   83000       82.986    360.62423     14.82336   -447.53108   -432.70772    2253.3174   -3191.5069    -7710.372    17661.831     15.65769     13.55994    25.475904    5408.9762 
   83500       83.486    355.60635    14.617102   -447.30792   -432.69082     1068.395   -7160.9461   -7308.5753    17674.706    15.657692    13.559942    25.475886    5408.9741 
   84000       83.986     364.0466    14.964036   -447.63828   -432.67424    1788.3187   -10557.098   -6308.7829    22230.837    15.657695    13.559944    25.475869     5408.972 
   84500       84.486    351.44284    14.445962   -447.10204   -432.65608    2246.1895   -6746.7547   -5619.1864     19104.51    15.657697    13.559946    25.475851    5408.9699 
   85000       84.986    344.33008    14.153594   -446.79241   -432.63881     2038.347   -10145.826   -4792.4723    21053.339    15.657699    13.559948    25.475834    5408.9679 
   85500       85.486    366.43524     15.06222   -447.68353   -432.62131    1593.0066   -7700.7591   -7178.5525    19658.331    15.657702     13.55995    25.475817    5408.9658 
   86000       85.986      352.829    14.502939   -447.10671   -432.60377    1724.9384   -8915.7072   -8031.9357    22122.458    15.657704    13.559953    25.475799    5408.9637 
   86500       86.486    372.96752    15.330728   -447.91807   -432.58735    1600.5746   -10364.543   -4721.2868    19887.553    15.657706    13.559955    25.475782    5408.9616 
   87000       86.986    347.43497    14.281219   -446.85002    -432.5688    2003.4727   -6080.1683   -8148.1053    20238.692    15.657709    13.559957    25.475764    5408.9596 
   87500       87.486    367.04842    15.087425   -447.63901   -432.55158    2575.7094   -8103.7469   -5910.4375    21741.313    15.657711    13.559959    25.475747    5408.9575 
   88000       87.986    347.26051    14.274048   -446.80645    -432.5324    3226.1804   -5412.2319   -8078.5424    23169.315    15.657714    13.559961    25.475729    5408.9554 
   88500       88.486    350.36078    14.401484   -446.91588   -432.51439    3601.8952   -4905.8841   -6087.4532    21799.023    15.657716    13.559963    25.475712    5408.9533 
   89000       88.986    367.56334    15.108591   -447.60534   -432.49675    1194.0356   -8692.0056   -3505.4398    15779.552    15.657718    13.559965    25.475694    5408.9513 
   89500       89.486    337.81614     13.88584   -446.36372   -432.47788    3299.1564   -6887.4787   -3948.0652    20733.013    15.657721    13.559967    25.475677    5408.9492 
   90000       89.986    365.47466    15.022736   -447.48319   -432.46046    1881.1582   -6921.5487   -7635.6245    20200.648    15.657723    13.559969    25.475659    5408.9471 
   90500       90.486    356.91419     14.67086   -447.11272   -432.44186    249.79865   -9619.4603   -5984.1558    16353.012    15.657725    13.559971    25.475642     5408.945 
   91000       90.986    360.70062      14.8265   -447.25014   -432.42364     1767.628   -3302.9411   -8431.2359    17037.061    15.657728    13.559973    25.475625     5408.943 
   91500       91.486    363.55077    14.943655   -447.34865   -432.40499    2690.7087   -3796.6217   -5721.3961    17590.144     15.65773    13.559975    25.475607    5408.9409 
   92000       91.986    363.34447    14.935175    -447.3227   -432.38753    2600.1166   -4727.5891   -8671.7248    21199.664    15.657732    13.559977     25.47559    5408.9388 
   92500       92.486    362.09163    14.883677   -447.25208    -432.3684    2431.9477   -3193.8696   -5900.1613    16389.874    15.657735    13.559979    25.475572    5408.9367 
   93000       92.986    374.60318    15.397961   -447.74874   -432.35078     451.5836   -7062.8977   -10104.515    18522.163    15.657737    13.559981    25.475555    5408.9346 
   93500       93.486    390.56563    16.054093    -448.3859    -432.3318    2682.0234   -6034.2442   -6622.9739    20703.288    15.657739    13.559983    25.475537    5408.9326 
   94000       93.986    355.60665    14.617114   -446.92947   -432.31235     754.6118   -6836.6365   -9595.5309    18696.003    15.657742    13.559985     25.47552    5408.9305 
   94500       94.486    359.58959    14.780831   -447.07382   -432.29299    1504.5624   -7033.3594   -8584.1171    20131.164    15.657744    13.559987    25.475502    5408.9284 
   95000       94.986    384.30056    15.796569   -448.07209   -432.27552    1788.8629    -7235.613   -10399.129    23001.331    15.657746    13.559989    25.475485    5408.9263 
   95500       95.486    351.91551    14.465391   -446.72041   -432.25502    2338.9678    -9013.405   -6122.9506    22153.259    15.657749    13.559991    25.475468    5408.9243 
   96000       95.986    355.45872    14.611033   -446.84707   -432.23604    3084.8504   -5141.9694   -8351.8302    22748.351    15.657751    13.559994     25.47545    5408.9222 
   96500       96.486    363.66175    14.948217   -447.16478   -432.21656    2115.1115   -9164.1464   -5666.4027    21175.884    15.657753    13.559996    25.475433    5408.9201 
   97000       96.986    371.55248    15.272563   -447.47014   -432.19758    540.25447   -9557.9613   -3934.4203    15113.145    15.657756    13.559998    25.475415     5408.918 
   97500       97.486     362.0915    14.883672    -447.0612   -432.17753    1542.7905   -10330.139   -7452.8096     22411.32    15.657758        13.56    25.475398     5408.916 
   98000       97.986    373.72811    15.361991   -447.52033   -432.15834    765.48836   -9348.4245   -7249.9555    18894.845    15.657761    13.560002     25.47538    5408.9139 
   98500       98.486    369.52996    15.189428   -447.32856   -432.13913    3934.8905   -3696.5663    -7185.349    22686.587    15.657763    13.560004    25.475363    5408.9118 
   99000       98.986    349.55643    14.368421   -446.48718   -432.11876    2762.4986   -4986.2309   -4062.4968    17336.224    15.657765    13.560006    25.475345    5408.9097 
   99500       99.486    344.86761    14.175689   -446.27525   -432.09956    2147.6275   -8922.2981   -8150.2972    23515.478    15.657768    13.560008    25.475328    5408.9077 
  100000       99.986    337.47809    13.871945   -445.95204   -432.08009    1999.3298   -8134.9196   -5367.6911      19500.6     15.65777     13.56001     25.47531    5408.9056 
  100500      100.486    352.99934    14.509941   -446.57044   -432.06049    2399.5055   -5705.0396   -9640.6203    22544.177    15.657772    13.560012    25.475293    5408.9035 
  101000      100.986     374.6174    15.398546   -447.43954   -432.04099    2452.0308   -7051.4517   -7621.3849    22028.929    15.657775    13.560014    25.475276    5408.9014 
  101500      101.486    352.24473    14.478923   -446.49882    -432.0199    1852.9612   -7357.3831    -6380.669    19296.936    15.657777    13.560016    25.475258    5408.8994 
  102000      101.986    346.82388    14.256101    -446.2563    -432.0002    2257.1487   -7266.8056   -9370.1468    23408.399    15.657779    13.560018    25.475241    5408.8973 
  102500      102.486    356.41515    14.650347   -446.63053   -431.98018    1940.5119   -4133.5688    -8694.928    18650.032    15.657782     13.56002    25.475223    5408.8952 
  103000      102.986    351.51058    14.448746   -446.40829   -431.95955    1819.7537   -3454.8095   -9005.8283    17919.899    15.657784    13.560022    25.475206    5408.8931 
  103500      103.486    370.92873    15.246924   -447.18622    -431.9393    212.92463   -9494.4025   -6185.2025    16318.379    15.657786    13.560024    25.475188    5408.8911 
  104000      103.986    356.60577    14.658183    -446.5767   -431.91852    1554.5809   -7733.7702   -5445.4698    17842.983    15.657789    13.560026    25.475171     5408.889 
  104500      104.486    370.89557    15.245561   -447.14408   -431.89852    1505.2449   -8646.8926    -8089.084    21251.711    15.657791    13.560028    25.475153    5408.8869 
  105000      104.986    359.50486    14.777349   -446.65462   -431.87727    884.36762   -5662.9695   -10117.502    18433.574    15.657793     13.56003    25.475136    5408.8848 
  105500      105.486    345.89502     14.21792    -446.0755   -431.85758    1803.7694   -8112.8788   -7384.7187    20908.906    15.657796    13.560032    25.475119    5408.8828 
  106000      105.986     353.5758    14.533637   -446.36982   -431.83618    1965.1417   -6815.8048   -6662.4519    19373.682    15.657798    13.560035    25.475101    5408.8807 
  106500      106.486      359.382    14.772299   -446.58716   -431.81486    2253.6678   -5272.2122   -10247.371    22280.586      15.6578    13.560037    25.475084    5408.8786 
  107000      106.986    348.76772    14.336002   -446.13056   -431.79456     1814.742   -7635.9875   -7995.5839    21075.797    15.657803    13.560039    25.475066    5408.8765 
  107500      107.486    352.18177    14.476335   -446.25047   -431.77413    3525.8186   -7877.5519   -6213.6666    24668.674    15.657805    13.560041    25.475049    5408.8745 
  108000      107.986    348.26728    14.315431   -446.06749   -431.75206    997.68114   -5208.9538    -7687.833     15889.83    15.657808    13.560043    25.475031    5408.8724 
  108500      108.486    368.28972    15.138448   -446.87124   -431.73279    2552.2669   -5724.7267   -8358.0809    21739.608     15.65781    13.560045    25.475014    5408.8703 
  109000      108.986    357.11749    14.679217   -446.38991    -431.7107    1519.2874   -6597.2475   -5793.1878    16948.298    15.657812    13.560047    25.474996    5408.8682 
  109500      109.486    363.37435    14.936403   -446.62567   -431.68926    1094.8374   -6299.5183   -11513.025    21097.055    15.657815    13.560049    25.474979    5408.8662 
  110000      109.986    369.43923    15.185698   -446.85359   -431.66789    1681.0847   -5169.0277   -9080.5492    19292.831    15.657817    13.560051    25.474961    5408.8641 
  110500      110.486    378.87919    15.573725   -447.22029   -431.64657    2912.6104   -4850.5901     -7320.88    20909.301    15.657819    13.560053    25.474944     5408.862 
  111000      110.986    372.19383    15.298925   -446.92386   -431.62493    1483.6703   -6726.6179   -7615.5902    18793.219    15.657822    13.560055    25.474927    5408.8599 
  111500      111.486    369.77617    15.199548   -446.80231   -431.60276    1579.0624    -8885.732   -7226.3793    20849.299    15.657824    13.560057    25.474909    5408.8579 
  112000      111.986    360.32946    14.811244   -446.39205    -431.5808    2554.5231   -10930.905   -5355.0774    23949.551    15.657826    13.560059    25.474892    5408.8558 
  112500      112.486    359.52153    14.778034   -446.33811   -431.56007     1154.346   -7840.2341   -7751.0896    19054.362    15.657829    13.560061    25.474874    5408.8537 
  113000      112.986    355.31343    14.605061   -446.14298   -431.53792    1757.1906   -6365.5787   -6432.5931    18069.744    15.657831    13.560063    25.474857    5408.8516 
  113500      113.486    374.88946    15.409729    -446.9263   -431.51657    2197.5919   -7483.8723   -6220.3312    20296.979    15.657833    13.560065    25.474839    5408.8496 
  114000      113.986    363.33767    14.934895   -446.42975   -431.49486    2296.0161   -6434.5412   -7894.9617    21217.551    15.657836    13.560067    25.474822    5408.8475 
  114500      114.486    374.66348     15.40044   -446.87403   -431.47359    1977.8289   -7593.1724   -7526.4119    21053.071    15.657838    13.560069    25.474804    5408.8454 
  115000      114.986    362.46028    14.898831   -446.34928   -431.45045    2998.1383   -6126.1936   -5954.8141    21075.422     15.65784    13.560071    25.474787    5408.8433 
  115500      115.486    387.72078    15.937157   -447.36677   -431.42961    2203.2734   -10342.062   -3366.6119    20318.494    15.657843    13.560073     25.47477    5408.8413 
  116000      115.986    341.05923    14.019146   -445.42405   -431.40491    4120.0054   -5627.6871   -2681.8206    20669.524    15.657845    13.560076    25.474752    5408.8392 
  116500      116.486    373.69024    15.360435   -446.74438   -431.38395    2573.3867   -7829.5672    -4931.198    20480.925    15.657847    13.560078    25.474735    5408.8371 
  117000      116.986    355.63303    14.618198   -445.98033   -431.36213     3028.054   -8384.0133   -3922.9115    21391.087     15.65785     13.56008    25.474717     5408.835 
  117500      117.486    355.79783    14.624972   -445.96465   -431.33968    2797.7913   -6863.1656    -3876.295    19132.835    15.657852    13.560082      25.4747     5408.833 
  118000      117.986    386.49639    15.886828   -447.20427   -431.31744     1944.713   -7669.4731   -6888.1156    20391.728    15.657855    13.560084    25.474682    5408.8309 
  118500      118.486    380.57169    15.643295   -446.93746   -431.29416    2804.5151   -7096.7392   -4591.5489    20101.833    15.657857    13.560086    25.474665    5408.8288 
  119000      118.986    392.31731    16.126096   -447.39801   -431.27192    3398.8438   -3795.9537   -5560.0683    19552.553    15.657859    13.560088    25.474647    5408.8267 
  119500      119.486    377.93094    15.534748   -446.78394   -431.24919    1936.5768   -7133.3746   -9736.2567    22679.362    15.657862     13.56009     25.47463    5408.8246 
  120000      119.986    366.93638     15.08282    -446.3082   -431.22538    2162.6063   -6835.7934   -7573.0835    20896.696    15.657864    13.560092    25.474612    5408.8226 
  120500      120.486    389.75397     16.02073   -447.22508   -431.20435    1419.4682   -6689.9182   -6484.2048    17432.527    15.657866    13.560094    25.474595    5408.8205 
  121000      120.986     392.2226    16.122203   -447.30315   -431.18095    1750.7025   -5183.3796   -5967.7727     16403.26    15.657869    13.560096    25.474578    5408.8184 
  121500      121.486    394.05806    16.197649   -447.35575    -431.1581    1626.6292   -7923.1099   -6509.5267    19312.524    15.657871    13.560098     25.47456    5408.8163 
  122000      121.986    382.83321    15.736254    -446.8714   -431.13515    2925.1519   -6647.4845   -7501.7499     22924.69    15.657873      13.5601    25.474543    5408.8143 
  122500      122.486    377.47206    15.515885   -446.62896   -431.11307    2669.1255   -3897.8585   -6861.0702    18766.305    15.657876    13.560102    25.474525    5408.8122 
  123000      122.986    357.17719    14.681671   -445.77041   -431.08874     3069.554   -6646.4561   -2887.7547    18742.873    15.657878    13.560104    25.474508    5408.8101 
  123500      123.486    386.15089    15.872627   -446.93958   -431.06696    2944.3253   -8547.9476   -2907.4245    20288.348     15.65788    13.560106     25.47449     5408.808 
  124000      123.986    381.94879    15.699901   -446.74343   -431.04353    3724.7003   -6753.1472   -2265.2514      20192.5    15.657883    13.560108    25.474473     5408.806 
  124500      124.486    369.68789    15.195919   -446.21706   -431.02114    2283.1729   -5973.4942   -8105.8263    20928.839    15.657885     13.56011    25.474455    5408.8039 
  125000      124.986    377.62949    15.522357   -446.52207   -430.99971    2909.2453   -4494.1936   -5868.6781    19090.608    15.657887    13.560112    25.474438    5408.8018 
  125500      125.486    392.32725    16.126504   -447.10257   -430.97606   -566.56377   -9837.7939   -10003.977     18142.08     15.65789    13.560114    25.474421    5408.7997 
  126000      125.986     369.9696    15.207499   -446.15945   -430.95195    2883.0185   -4979.2584   -5988.1139    19616.428    15.657892    13.560117    25.474403    5408.7977 
  126500      126.486    384.68761    15.812479   -446.74144   -430.92897    2631.5798   -6646.6275   -5719.8465    20261.214    15.657894    13.560119    25.474386    5408.7956 
  127000      126.986    383.02544    15.744156   -446.65056   -430.90641    1686.0488   -7522.3525   -7148.3095    19728.808    15.657897    13.560121    25.474368    5408.7935 
  127500      127.486    383.33136    15.756731   -446.64002   -430.88329    4481.6259   -5359.8223   -3114.4231    21919.123    15.657899    13.560123    25.474351    5408.7914 
  128000      127.986    385.14856    15.831426   -446.69117   -430.85974    3206.2962    -6406.526   -8077.0723    24102.487    15.657902    13.560125    25.474333    5408.7894 
  128500      128.486    384.40243    15.800757   -446.63751   -430.83675    4080.9814   -5666.4544   -4176.5758    22085.974    15.657904    13.560127    25.474316    5408.7873 
  129000      128.986     392.1153    16.117792   -446.93181   -430.81401    3062.7105   -5065.5795   -6292.8372    20546.548    15.657906    13.560129    25.474298    5408.7852 
  129500      129.486    365.66878    15.030715   -445.82223   -430.79151    3197.7306   -3979.8491   -6270.2432    19843.284    15.657909    13.560131    25.474281    5408.7831 
  130000      129.986    401.73717    16.513297   -447.28171   -430.76841    3775.9146   -6734.7329   -3726.6154    21789.092    15.657911    13.560133    25.474263    5408.7811 
  130500      130.486    366.77703    15.076269   -445.82029   -430.74402    2917.8496   -4802.3573    -8916.066    22471.972    15.657913    13.560135    25.474246     5408.779 
  131000      130.986     388.1313    15.954031   -446.67546   -430.72143    1928.7665   -6912.9217   -8307.2506    21006.472    15.657916    13.560137    25.474229    5408.7769 
  131500      131.486    381.05257    15.663062   -446.36133   -430.69826    4156.6444   -7611.4954   -3821.6808    23903.109    15.657918    13.560139    25.474211    5408.7748 
  132000      131.986    388.86978    15.984386   -446.65892   -430.67453    2765.1379   -7435.0493   -7286.5399    23017.003     15.65792    13.560141    25.474194    5408.7728 
  132500      132.486    367.01998    15.086256     -445.737   -430.65075    3587.7956   -6262.9286   -3630.0978    20656.413    15.657923    13.560143    25.474176    5408.7707 
  133000      132.986    375.16865    15.421205   -446.04819   -430.62699    3421.2037   -6171.8513   -5349.6506    21785.113    15.657925    13.560145    25.474159    5408.7686 
  133500      133.486    383.31477    15.756048   -446.36005   -430.60401    3215.7127   -5951.2897   -6302.0337    21900.462    15.657927    13.560147    25.474141    5408.7665 
  134000      133.986    382.87994    15.738175   -446.31762   -430.57945    5047.9891   -4414.0066     -3683.92    23241.894     15.65793    13.560149    25.474124    5408.7645 
  134500      134.486    370.06446    15.211398   -445.76726   -430.55586    4131.9087   -6323.9816    -5605.485    24325.193    15.657932    13.560151    25.474106    5408.7624 
  135000      134.986    382.18226    15.709497   -446.24214   -430.53265    3361.7917   -5536.0161   -5992.5943    21613.985    15.657934    13.560153    25.474089    5408.7603 
  135500      135.486    385.28867    15.837185   -446.34593   -430.50875    2420.2674   -7198.9251   -6112.6321    20572.359    15.657937    13.560155    25.474072    5408.7582 
  136000      135.986     386.9822    15.906797   -446.39238   -430.48558     2902.118   -7240.0891   -5178.4272     21124.87    15.657939    13.560158    25.474054    5408.7562 
  136500      136.486    379.23564    15.588377   -446.05015   -430.46177    3187.2708    -7059.692   -2484.6825    19106.187    15.657941     13.56016    25.474037    5408.7541 
  137000      136.986    378.21723    15.546515   -445.98524   -430.43872    2820.9448   -2887.3302   -8389.1782    19739.343    15.657944    13.560162    25.474019     5408.752 
  137500      137.486    383.10143    15.747279   -446.16285   -430.41557    1745.8305    -6265.113   -6499.7727    18002.377    15.657946    13.560164    25.474002    5408.7499 
  138000      137.986    379.20498    15.587117   -445.97731    -430.3902    2534.6945   -4283.3779   -7313.8787     19201.34    15.657949    13.560166    25.473984    5408.7479 
  138500      138.486    389.75488    16.020768   -446.38873   -430.36796    3041.5408   -9661.1581   -5412.9635    24198.744    15.657951    13.560168    25.473967    5408.7458 
  139000      138.986    386.25224    15.876793    -446.2207   -430.34391    2538.3862   -6898.2925   -5499.8998    20013.351    15.657953     13.56017    25.473949    5408.7437 
  139500      139.486    385.94294    15.864079   -446.18331   -430.31923    2309.5559   -5875.6023   -7045.1379    19849.408    15.657956    13.560172    25.473932    5408.7416 
  140000      139.986    372.17515    15.298157   -445.59376    -430.2956    3105.5478   -8084.2438   -4732.8936    22133.781    15.657958    13.560174    25.473914    5408.7395 
  140500      140.486    375.44877    15.432719   -445.70389   -430.27117    1683.7185   -7634.9087   -5886.2121    18572.276     15.65796    13.560176    25.473897    5408.7375 
  141000      140.986    386.50879    15.887338   -446.13475   -430.24741    2409.9867   -6327.4258   -6610.0711    20167.457    15.657963    13.560178     25.47388    5408.7354 
  141500      141.486    374.05952    15.375614   -445.59829   -430.22267     3082.221   -6248.0404    -6356.795    21851.498    15.657965     13.56018    25.473862    5408.7333 
  142000      141.986    372.78335    15.323158   -445.52282   -430.19966    1598.1962   -8129.1309    -5202.567    18126.287    15.657967    13.560182    25.473845    5408.7312 
  142500      142.486    380.88726    15.656266   -445.83283   -430.17657    2956.9885   -7671.8517   -3422.1756    19964.993     15.65797    13.560184    25.473827    5408.7292 
  143000      142.986    399.66565    16.428147   -446.58186   -430.15371    3333.6164    -7648.325   -3719.5459     21368.72    15.657972    13.560186     25.47381    5408.7271 
  143500      143.486     394.9652    16.234937    -446.3635   -430.12856    4035.7238    -5816.924   -5041.3919    22965.487    15.657974    13.560188    25.473792     5408.725 
  144000      143.986    386.99717    15.907413   -446.01175   -430.10433    3547.2047   -6922.6486   -4985.9553    22550.218    15.657977     13.56019    25.473775    5408.7229 
  144500      144.486    396.33911     16.29141   -446.37193   -430.08052    3029.8797   -4983.9108   -6755.5004     20829.05    15.657979    13.560192    25.473757    5408.7209 
  145000      144.986    386.17354    15.873557   -445.92946    -430.0559    3263.9849   -5252.3901   -7420.9266    22465.271    15.657981    13.560194     25.47374    5408.7188 
  145500      145.486    403.38065    16.580851   -446.61362   -430.03277    2519.0362   -3906.6191   -7255.8232    18719.551    15.657984    13.560196    25.473723    5408.7167 
  146000      145.986    383.05724    15.745463   -445.75357   -430.00811     4456.407   -6519.0914   -4648.8933    24537.206    15.657986    13.560199    25.473705    5408.7146 
  146500      146.486    402.74183    16.554593   -446.53825   -429.98366    2827.4532   -9390.5574   -7299.0377    25171.955    15.657988    13.560201    25.473688    5408.7126 
  147000      146.986    386.91635    15.904091   -445.86395   -429.95986    4178.2115   -6575.5726   -4635.2485    23745.456    15.657991    13.560203     25.47367    5408.7105 
  147500      147.486    422.43604    17.364118   -447.30087   -429.93675    1976.2315   -5849.3489   -6939.8919    18717.935    15.657993    13.560205    25.473653    5408.7084 
  148000      147.986    378.08732    15.541176   -445.45213   -429.91095     2359.232   -5912.6884    -7360.892    20351.277    15.657996    13.560207    25.473635    5408.7063 
  148500      148.486    364.45702    14.980906   -444.86672   -429.88582    3241.1227   -6285.8431   -6095.1802    22104.392    15.657998    13.560209    25.473618    5408.7043 
  149000      148.986     392.3341    16.126786   -445.98824   -429.86145    3225.3878   -8559.9441   -5128.7515    23364.859       15.658    13.560211      25.4736    5408.7022 
  149500      149.486    387.85152     15.94253    -445.7793   -429.83677    2679.7681   -5393.8299   -6713.4025    20146.537    15.658003    13.560213    25.473583    5408.7001 
  150000      149.986    403.82579    16.599149   -446.41231   -429.81316    3493.5188   -9199.8747   -4736.1321    24416.563    15.658005    13.560215    25.473565     5408.698 
  150500      150.486    373.96678    15.371802   -445.15894   -429.78714    3373.0391   -6280.9571   -3561.5355     19961.61    15.658007    13.560217    25.473548     5408.696 
  151000      150.986    409.50199    16.832467   -446.59611   -429.76364    1873.9862   -8973.3642   -6673.2844    21268.607     15.65801    13.560219    25.473531    5408.6939 
  151500      151.486    385.01128    15.825783   -445.56503   -429.73925    2551.6757   -6521.9104    -5759.319    19936.257    15.658012    13.560221    25.473513    5408.6918 
  152000      151.986    388.52153    15.970071   -445.68442   -429.71435    1392.1065   -6199.1274   -9303.4301    19678.877    15.658014    13.560223    25.473496    5408.6897 
  152500      152.486    376.27014    15.466481   -445.15591   -429.68943    1729.2397   -6477.0615   -7747.6297     19412.41    15.658017    13.560225    25.473478    5408.6877 
  153000      152.986    374.57833     15.39694   -445.06277   -429.66583    3258.6255   -7894.6471   -4714.1773    22384.701    15.658019    13.560227    25.473461    5408.6856 
  153500      153.486    384.91431    15.821797   -445.46136   -429.63957    4911.3626   -8722.7137   -1087.9559    24544.757    15.658021    13.560229    25.473443    5408.6835 
  154000      153.986    381.40611    15.677594   -445.29318   -429.61559    2960.2852   -5036.7683   -9920.7343    23838.358    15.658024    13.560231    25.473426    5408.6814 
  154500      154.486    394.37187    16.210548    -445.8027   -429.59215    3829.0961   -5022.5323   -6659.3891     23169.21    15.658026    13.560233    25.473408    5408.6794 
  155000      154.986    364.55045    14.984746    -444.5511   -429.56636    3249.9682   -7357.0896   -4636.9519    21743.946    15.658028    13.560235    25.473391    5408.6773 
  155500      155.486    396.51952    16.298826   -445.84128   -429.54245    4082.3065   -10530.292    -2491.992    25269.203    15.658031    13.560237    25.473374    5408.6752 
  156000      155.986    410.00445    16.853121   -446.37221   -429.51909    1697.6309   -9438.6363   -3752.3327    18283.862    15.658033     13.56024    25.473356    5408.6731 
  156500      156.486    409.34957    16.826202   -446.32213   -429.49593    1585.3862   -7538.5636   -7425.5314    19720.254    15.658035    13.560242    25.473339    5408.6711 
  157000      156.986    387.84625    15.942314    -445.4139   -429.47158    3700.3087   -5443.4898   -2548.7643     19093.18    15.658038    13.560244    25.473321     5408.669 
  157500      157.486    391.64318    16.098386   -445.54435   -429.44596    4704.3633   -4687.9108   -4716.5492     23517.55     15.65804    13.560246    25.473304    5408.6669 
  158000      157.986    388.16699    15.955498   -445.37692   -429.42142    4245.9351   -7850.4178   -5602.3779    26190.601    15.658043    13.560248    25.473286    5408.6648 
  158500      158.486    402.72915    16.554071   -445.95101   -429.39694    4178.6485   -3337.2262   -6689.6744    22562.846    15.658045     13.56025    25.473269    5408.6627 
  159000      158.986    401.29601    16.495163   -445.86604   -429.37088    3671.7857   -7543.0043   -4702.3923    23260.754    15.658047    13.560252    25.473251    5408.6607 
  159500      159.486    404.11467    16.611023   -445.95794   -429.34691    3018.8681    -8128.664   -3624.3041    20809.572     15.65805    13.560254    25.473234    5408.6586 
  160000      159.986    405.74893    16.678199   -445.99891   -429.32071    3979.4717   -4043.5868   -8081.5731    24063.575    15.658052    13.560256    25.473216    5408.6565 
  160500      160.486    409.19885    16.820007   -446.11653   -429.29652    1849.4085   -8754.5692   -9349.0995    23651.894    15.658054    13.560258    25.473199    5408.6544 
  161000      160.986    383.13622    15.748709   -445.02066   -429.27195    4221.5445   -4143.6796   -5246.4698    22054.783    15.658057     13.56026    25.473182    5408.6524 
  161500      161.486    400.24348    16.451899   -445.69835   -429.24645    3830.3875   -7709.1969   -5534.8402      24735.2    15.658059    13.560262    25.473164    5408.6503 
  162000      161.986    411.45645    16.912805   -446.13488   -429.22207    3874.1124    -6791.332   -3003.4235    21417.093    15.658061    13.560264    25.473147    5408.6482 
  162500      162.486    405.19165    16.655292   -445.85251   -429.19722    1834.9757   -8076.3733   -4951.8113    18533.112    15.658064    13.560266    25.473129    5408.6461 
  163000      162.986    413.07426    16.979304   -446.15247   -429.17316    3747.1925   -6201.5596   -6749.3445    24192.482    15.658066    13.560268    25.473112    5408.6441 
  163500      163.486    405.93638    16.685904   -445.83455   -429.14865    2361.1992   -6746.9732   -3891.0619    17721.633    15.658068     13.56027    25.473094     5408.642 
  164000      163.986    405.66508    16.674752   -445.79717   -429.12241    3586.4731    -11011.84   -3242.1581    25013.417    15.658071    13.560272    25.473077    5408.6399 
  164500      164.486    393.61873     16.17959   -445.27661   -429.09702     3253.155   -7020.9068   -3174.6489    19955.021    15.658073    13.560274    25.473059    5408.6378 
  165000      164.986    407.90141    16.766676   -445.83882   -429.07215    3523.6889   -7391.9386   -4418.9493    22381.955    15.658075    13.560276    25.473042    5408.6358 
  165500      165.486    412.65997    16.962275    -446.0096   -429.04733    1704.2173   -9360.6467   -3560.2335    18033.532    15.658078    13.560278    25.473025    5408.6337 
  166000      165.986    408.57742    16.794463   -445.81721   -429.02274    3016.1089   -7647.3677   -682.48909    17378.183     15.65808    13.560281    25.473007    5408.6316 
  166500      166.486     402.0959    16.528042   -445.52555   -428.99751    2641.1585   -4300.8116   -7039.2812    19263.568    15.658082    13.560283     25.47299    5408.6295 
  167000      166.986    379.13994    15.584444   -444.55609   -428.97164    2081.0824   -8633.8467   -6242.9428    21120.037    15.658085    13.560285    25.472972    5408.6275 
  167500      167.486     392.7869    16.145398   -445.09079    -428.9454    3368.2354   -7093.6548   -6372.8597    23571.221    15.658087    13.560287    25.472955    5408.6254 
  168000      167.986    414.07315    17.020364   -445.94119   -428.92083    2929.3976   -9157.9299   -3986.2082    21932.331     15.65809    13.560289    25.472937    5408.6233 
  168500      168.486    403.22348    16.574391   -445.47116   -428.89677    2895.8357    -6825.085   -4194.8518    19707.444    15.658092    13.560291     25.47292    5408.6212 
  169000      168.986    417.55419    17.163451   -446.03549   -428.87203    1474.6057   -5952.8942   -7982.8358    18359.547    15.658094    13.560293    25.472902    5408.6192 
  169500      169.486    411.24985    16.904313   -445.75073   -428.84642    3947.4113    -5058.693    -5986.253     22887.18    15.658097    13.560295    25.472885    5408.6171 
  170000      169.986    402.56551    16.547345   -445.36785   -428.82051    3832.7008   -9059.1782   -4209.6873    24766.968    15.658099    13.560297    25.472867     5408.615 
  170500      170.486    401.20931    16.491599   -445.28739   -428.79579    4632.7377   -4179.9784   -6339.9506    24418.142    15.658101    13.560299     25.47285    5408.6129 
  171000      170.986    411.04799    16.896015   -445.66566   -428.76965    2944.4537   -1279.4753   -7933.7732    18046.609    15.658104    13.560301    25.472833    5408.6109 
  171500      171.486    409.43056    16.829531   -445.57421   -428.74468    4365.3543   -2422.0131   -5377.0619    20895.138    15.658106    13.560303    25.472815    5408.6088 
  172000      171.986    384.74972    15.815032   -444.53482   -428.71979    4131.0222   -6870.5108   -3254.3269    22517.904    15.658108    13.560305    25.472798    5408.6067 
  172500      172.486    403.76349    16.596587   -445.29071   -428.69412    2711.1321   -7922.0018   -4852.5266    20907.925    15.658111    13.560307     25.47278    5408.6046 
  173000      172.986    403.47436    16.584703   -445.25465   -428.66994    4175.6641   -8199.5291   -4318.9978    25045.519    15.658113    13.560309    25.472763    5408.6026 
  173500      173.486     394.2451    16.205337   -444.84963   -428.64429    3100.5763   -4621.1194    -5462.866    19385.714    15.658115    13.560311    25.472745    5408.6005 
  174000      173.986    423.30522    17.399845   -446.02037   -428.62053    3964.0952   -6260.2959   -4317.4151    22469.997    15.658118    13.560313    25.472728    5408.5984 
  174500      174.486    383.74227    15.773621   -444.36807   -428.59445    5009.1295   -5513.8932   -2716.6457    23257.927     15.65812    13.560315     25.47271    5408.5963 
  175000      174.986     411.4988    16.914545   -445.48412   -428.56957    3252.1398    -7823.992   -6426.7214    24007.133    15.658122    13.560317    25.472693    5408.5943 
  175500      175.486    384.55502    15.807029   -444.34948   -428.54245    4516.1205   -7091.2031    27.819067    20611.746    15.658125    13.560319    25.472676    5408.5922 
  176000      175.986    406.63599    16.714661   -445.23318   -428.51852    2775.8932   -5823.6991   -2506.2971    16657.676    15.658127    13.560322    25.472658    5408.5901 
  176500      176.486    425.33091    17.483111   -445.97627   -428.49316    3345.3966   -4847.5674   -5573.9885    20457.746    15.658129    13.560324    25.472641     5408.588 
  177000      176.986    413.01815    16.976998   -445.44381   -428.46681    3902.8038   -3276.8948    -8931.467    23916.773    15.658132    13.560326    25.472623    5408.5859 
  177500      177.486    397.92043     16.35641   -444.79768   -428.44127    3594.9546   -7862.7121   -5506.8546    24154.431    15.658134    13.560328    25.472606    5408.5839 
  178000      177.986    397.53936    16.340746   -444.75725   -428.41651    2478.3696   -5161.6358   -5973.4472    18570.192    15.658137     13.56033    25.472588    5408.5818 
  178500      178.486    398.52059     16.38108   -444.77204   -428.39096    5050.0736   -3480.8013    -7719.322    26350.344    15.658139    13.560332    25.472571    5408.5797 
  179000      178.986    390.85361    16.065931   -444.42979   -428.36386    3797.4848    -6454.222   -6142.6965    23989.373    15.658141    13.560334    25.472553    5408.5776 
  179500      179.486    403.51188    16.586245   -444.92507   -428.33882    4186.9005    -6184.763   -3510.8637    22256.328    15.658144    13.560336    25.472536    5408.5756 
  180000      179.986    433.30288    17.810796   -446.12436   -428.31356    3035.0841   -7355.1275   -5382.6934    21843.073    15.658146    13.560338    25.472518    5408.5735 
  180500      180.486    410.93956    16.891558   -445.17953   -428.28798    3620.0917   -3915.7083   -6581.9383    21357.922    15.658148     13.56034    25.472501    5408.5714 
  181000      180.986    412.21779    16.944099   -445.20606   -428.26196    5292.7493   -3549.8737   -6006.3301    25434.452    15.658151    13.560342    25.472484    5408.5693 
  181500      181.486    420.60562    17.288879   -445.52496   -428.23608    3149.9155   -8290.7585   -3751.3254     21491.83    15.658153    13.560344    25.472466    5408.5673 
  182000      181.986    392.06078    16.115551   -444.32542   -428.20987    3961.3555   -4334.6436   -4639.8295     20858.54    15.658155    13.560346    25.472449    5408.5652 
  182500      182.486    417.90122    17.177715   -445.36255   -428.18484    4551.6383    -3427.254   -2393.4393    19475.608    15.658158    13.560348    25.472431    5408.5631 
  183000      182.986    411.35763    16.908743   -445.06782   -428.15907     3545.262   -6263.9673   -2299.1969     19198.95     15.65816     13.56035    25.472414     5408.561 
  183500      183.486     411.7973    16.926815    -445.0598   -428.13299    4160.1328   -6507.0488   -4368.9108    23356.358    15.658162    13.560352    25.472396     5408.559 
  184000      183.986    429.02269     17.63486   -445.74283   -428.10797    3574.8001   -5822.5419   -5417.6474     21964.59    15.658165    13.560354    25.472379    5408.5569 
  184500      184.486    428.24734    17.602989    -445.6846   -428.08161    3805.9343   -7865.3624   -3144.7655    22427.931    15.658167    13.560356    25.472361    5408.5548 
  185000      184.986    430.09143     17.67879   -445.73396   -428.05517    3317.6236    -5671.597   -6265.1968    21889.664    15.658169    13.560358    25.472344    5408.5527 
  185500      185.486    411.02011    16.894869   -444.92478   -428.02991    3899.4125   -4238.1056   -5798.5545    21734.898    15.658172     13.56036    25.472327    5408.5507 
  186000      185.986    409.57831    16.835604   -444.83949   -428.00388    3549.6489   -5209.5213   -6867.5797    22726.048    15.658174    13.560363    25.472309    5408.5486 
  186500      186.486    408.18029    16.778139   -444.75662   -427.97848    3770.4573   -6231.5054   -4754.2499    22297.127    15.658176    13.560365    25.472292    5408.5465 
  187000      186.986    382.62084    15.727525   -443.67919   -427.95167    3888.8004   -2142.4055   -5639.9107    19448.717    15.658179    13.560367    25.472274    5408.5444 
  187500      187.486    386.53265    15.888319   -443.81254   -427.92422    3861.1699   -6230.7195   -7336.4853    25150.714    15.658181    13.560369    25.472257    5408.5424 
  188000      187.986    390.80088    16.063763    -443.9628   -427.89904    4399.5391   -8492.0322    1259.7717    20430.878    15.658184    13.560371    25.472239    5408.5403 
  188500      188.486    415.16968    17.065436   -444.93992   -427.87448    4227.5991   -6323.0409   -4010.8158    23016.654    15.658186    13.560373    25.472222    5408.5382 
  189000      188.986    427.42909    17.569356   -445.41829   -427.84894    4344.2293   -8113.9338   -3619.3556    24765.977    15.658188    13.560375    25.472204    5408.5361 
  189500      189.486    405.72847    16.677357   -444.49894   -427.82158    5665.1833   -4003.3281   -3045.9214    24044.799    15.658191    13.560377    25.472187    5408.5341 
  190000      189.986    419.78968     17.25534   -445.05243   -427.79709    3212.2635   -8267.8771   -4481.8279    22386.496    15.658193    13.560379    25.472169     5408.532 
  190500      190.486     418.8751    17.217746   -444.98859   -427.77085    4903.9412   -5030.3611   -5474.9079    25217.093    15.658195    13.560381    25.472152    5408.5299 
  191000      190.986     416.6314     17.12552   -444.86973   -427.74421    3127.5754   -4979.8619   -4864.4166    19227.005    15.658198    13.560383    25.472135    5408.5278 
  191500      191.486    382.76704    15.733534   -443.45139   -427.71785    4615.1482   -7205.2293   -3543.8772    24594.551      15.6582    13.560385    25.472117    5408.5257 
  192000      191.986    409.41161    16.828752   -444.52138   -427.69263    4214.5101   -8766.0458   -1934.3907    23343.967    15.658202    13.560387      25.4721    5408.5237 
  192500      192.486    420.19967    17.272192   -444.93967   -427.66748    3682.5265   -2769.9815   -6228.0753    20045.636    15.658205    13.560389    25.472082    5408.5216 
  193000      192.986    441.53797    18.149297   -445.79016   -427.64087     3123.187   -7258.5738   -4679.4031    21307.538    15.658207    13.560391    25.472065    5408.5195 
  193500      193.486    411.50419    16.914767   -444.52839   -427.61362    3824.4756   -5646.7435    -6901.329    24021.499    15.658209    13.560393    25.472047    5408.5174 
  194000      193.986    425.52951    17.491274   -445.07936   -427.58808      3518.27   -8779.2497   -3752.8941    23086.954    15.658212    13.560395     25.47203    5408.5154 
  194500      194.486    435.28336    17.892203   -445.45527   -427.56307    3750.6493   -6327.3079   -2569.5977    20148.854    15.658214    13.560397    25.472012    5408.5133 
  195000      194.986    416.58764    17.123721   -444.65775   -427.53403    4633.8307   -6766.1439   -2599.3724    23267.008    15.658216    13.560399    25.471995    5408.5112 
  195500      195.486    427.86941    17.587455   -445.09395   -427.50649    4855.0453   -5242.1162   -2892.2593    22699.511    15.658219    13.560401    25.471978    5408.5091 
  196000      195.986    421.35613    17.319728   -444.79976   -427.48003    4206.3625    -7241.658   -6023.1921    25883.938    15.658221    13.560404     25.47196    5408.5071 
  196500      196.486    439.84177    18.079575    -445.5345   -427.45492    3945.5022   -4603.8119   -4874.8515     21315.17    15.658223    13.560406    25.471943     5408.505 
  197000      196.986    457.06033     18.78734   -446.21653   -427.42919    2335.7854    -6158.108   -6087.6053     19253.07    15.658226    13.560408    25.471925    5408.5029 
  197500      197.486    421.08684    17.308659    -444.7098   -427.40114    3377.2064   -10044.437   -74.075975    20250.133    15.658228     13.56041    25.471908    5408.5008 
  198000      197.986    435.12634    17.885749   -445.25955    -427.3738     3907.883   -4404.1966   -5662.8135    21790.659    15.658231    13.560412     25.47189    5408.4988 
  198500      198.486    434.05295    17.841627   -445.18937   -427.34775    2942.7539   -9167.4847   -3982.0006    21977.747    15.658233    13.560414    25.471873    5408.4967 
  199000      198.986    420.58758    17.288137    -444.6089   -427.32077    4535.9698   -3915.3185   -5137.1375    22660.365    15.658235    13.560416    25.471855    5408.4946 
  199500      199.486    426.13047    17.515976   -444.81095   -427.29497    3630.9502   -3533.6175   -5982.6089    20409.077    15.658238    13.560418    25.471838    5408.4925 
  200000      199.986    400.51803    16.463184   -443.73025   -427.26707    4996.0982   -3704.3418   -2514.4432     21207.08     15.65824     13.56042     25.47182    5408.4905 
  200500      200.486     407.5927    16.753986   -443.99452   -427.24054    4375.0625   -4410.8184   -5412.1218    22948.128    15.658242    13.560422    25.471803    5408.4884 
  201000      200.986     445.3886    18.307577   -445.52391   -427.21634    3279.2839   -7288.0857    -3410.363      20536.3    15.658245    13.560424    25.471786    5408.4863 
  201500      201.486    426.84929    17.545523   -444.73378   -427.18826    4371.2286   -2683.5795   -3817.3803    19614.645    15.658247    13.560426    25.471768    5408.4842 
  202000      201.986    415.64337    17.084907   -444.24601   -427.16111    3624.7772   -8799.5659   -608.32267     20282.22    15.658249    13.560428    25.471751    5408.4822 
  202500      202.486    433.37972    17.813955   -444.94813   -427.13417     4320.712   -5954.3957   -2024.6881     20941.22    15.658252     13.56043    25.471733    5408.4801 
  203000      202.986    431.23388    17.725751   -444.83298   -427.10723    5084.7752   -7456.4545   -2390.2877    25101.068    15.658254    13.560432    25.471716     5408.478 
  203500      203.486    438.16239    18.010545   -445.09135   -427.08081    4518.0991   -3346.8001   -5470.0174    22371.115    15.658256    13.560434    25.471698    5408.4759 
  204000      203.986    427.85534    17.586876   -444.63887     -427.052    4508.4071   -5269.3152   -4971.8647    23766.401    15.658259    13.560436    25.471681    5408.4739 
  204500      204.486    435.48786    17.900609   -444.92737   -427.02677    4835.7738   -8848.8765   -602.20754    23958.406    15.658261    13.560438    25.471663    5408.4718 
  205000      204.986    415.14442    17.064398   -444.06326   -426.99886     4012.257   -5489.9421   -5516.1285    23042.842    15.658263     13.56044    25.471646    5408.4697 
  205500      205.486     414.2619    17.028122   -444.00128   -426.97315    3510.6925   -3892.6031   -8325.7312    22750.412    15.658266    13.560442    25.471629    5408.4676 
  206000      205.986    410.67225     16.88057   -443.82492   -426.94435     4834.347    -2040.874    -4790.117    21334.032    15.658268    13.560445    25.471611    5408.4656 
  206500      206.486    410.24185    16.862879   -443.78102   -426.91814    3519.1411   -6619.4771   -2158.0115    19334.912     15.65827    13.560447    25.471594    5408.4635 
  207000      206.986    440.66841    18.113554   -445.00505    -426.8915    3859.6869    -7378.493   -4070.2246    23027.778    15.658273    13.560449    25.471576    5408.4614 
  207500      207.486    417.45483    17.159366   -444.02414   -426.86477    4239.4144   -6268.3959   -2859.0903     21845.73    15.658275    13.560451    25.471559    5408.4593 
  208000      207.986    422.60373    17.371011   -444.20789   -426.83688    3332.6805   -4394.5533   -8121.3962    22513.991    15.658278    13.560453    25.471541    5408.4572 
  208500      208.486    436.33843    17.935571   -444.74586   -426.81029    3919.4127    -6969.829   -5066.3137    23794.381     15.65828    13.560455    25.471524    5408.4552 
  209000      208.986    445.66394    18.318894    -445.1025   -426.78361    5729.3513   -5279.2641   -5562.5953    28029.913    15.658282    13.560457    25.471506    5408.4531 
  209500      209.486    413.68466    17.004395   -443.76031   -426.75591    6889.8503   -3672.6667   -5187.2375    29529.455    15.658285    13.560459    25.471489     5408.451 
  210000      209.986     423.0859     17.39083   -444.11908   -426.72825    4346.3812    875.93713   -9459.5404    21622.747    15.658287    13.560461    25.471471    5408.4489 
  210500      210.486    435.28449     17.89225   -444.59306   -426.70081    4608.1123   -4380.1346   -4110.9549    22315.426    15.658289    13.560463    25.471454    5408.4469 
  211000      210.986    415.85695    17.093686   -443.76883   -426.67514    4584.1585   -6610.9661   -6991.2982     27354.74    15.658292    13.560465    25.471437    5408.4448 
  211500      211.486     436.0027    17.921772   -444.57029   -426.64852    3897.3845   -4812.7378   -3235.6709    19740.562    15.658294    13.560467    25.471419    5408.4427 
  212000      211.986    441.59997    18.151846   -444.77353   -426.62168    4973.2442   -6065.1205   -3637.8025    24622.656    15.658296    13.560469    25.471402    5408.4406 
[...]
  948500      948.486    611.04447    25.116815   -438.57169   -413.45487    5160.5141   -6109.7551   -2205.0857    23796.383    15.661758    13.563489    25.445698    5405.3807 
  949000      948.986    600.75015     24.69367    -438.1517   -413.45803    8305.8622   -282.79749    232.39055    24967.993     15.66176    13.563491     25.44568    5405.3786 
  949500      949.486    561.79706    23.092514   -436.55565   -413.46314    7808.1658     -3170.31   -1909.1763    28503.984    15.661763    13.563493    25.445663    5405.3765 
  950000      949.986    591.68137    24.320901    -437.7918    -413.4709    5897.1008   -503.21305   -1060.5049     19255.02    15.661765    13.563495    25.445645    5405.3744 
  950500      950.486    567.48501    23.326316   -436.80253   -413.47621    7461.9312    2600.2189    665.16223    19120.412    15.661767    13.563497    25.445628    5405.3724 
  951000      950.986    536.16857    22.039062   -435.51809   -413.47903     7769.904   -214.33996   -3598.7228    27122.775     15.66177    13.563499    25.445611    5405.3703 
  951500      951.486     585.0809     24.04959   -437.53341   -413.48382    5677.9819   -2530.9765   -1104.6816    20669.604    15.661772    13.563501    25.445593    5405.3682 
  952000      951.986    590.28535    24.263518   -437.75113   -413.48762    7353.6453    -36.78752   -222.29952    22320.023    15.661774    13.563503    25.445576    5405.3661 
  952500      952.486    546.36277    22.458092   -435.95174   -413.49365    8822.0376    427.47016   -1738.2224    27776.865    15.661777    13.563505    25.445558     5405.364 
  953000      952.986    580.19878    23.848912   -437.34835   -413.49944    6696.2906   -4028.8261    28.576153    24089.122    15.661779    13.563507    25.445541     5405.362 
  953500      953.486    559.27259    22.988746   -436.49429   -413.50554    5762.9198   -855.29792   -1509.6637    19653.721    15.661781    13.563509    25.445523    5405.3599 
  954000      953.986    596.55912    24.521399   -438.03443   -413.51303    6469.6449   -1885.4095    -4873.542    26167.886    15.661784    13.563511    25.445506    5405.3578 
  954500      954.486    605.44255     24.88655   -438.40375    -413.5172    5179.0712   -3228.6461   -3469.0796    22234.939    15.661786    13.563513    25.445488    5405.3557 
  955000      954.986    592.18706    24.341687   -437.86332   -413.52163    8100.0308    197.37477   -875.28938    24978.007    15.661788    13.563515    25.445471    5405.3536 
  955500      955.486    588.94385    24.208376   -437.73377   -413.52539     6359.808   -1027.3306   -1170.3012    21277.056    15.661791    13.563517    25.445454    5405.3516 
  956000      955.986    581.69076    23.910239   -437.44089   -413.53065    6972.6996     3807.384   -2217.5405    19328.255    15.661793     13.56352    25.445436    5405.3495 
  956500      956.486    580.56157    23.863824    -437.4002   -413.53638    6584.8788    3154.4808    240.69847    16359.457    15.661795    13.563522    25.445419    5405.3474 
  957000      956.986     580.2125    23.849476    -437.3893   -413.53983    7176.4885   -2108.0815   -658.30522    24295.852    15.661798    13.563524    25.445401    5405.3453 
  957500      957.486     570.8437    23.464374   -437.00818   -413.54381    6445.0493    653.36032    -2124.063    20805.851      15.6618    13.563526    25.445384    5405.3433 
  958000      957.986    581.05419    23.884073   -437.43151   -413.54743    7427.8999    1100.4567   -2653.8458    23837.089    15.661803    13.563528    25.445366    5405.3412 
  958500      958.486    580.89609    23.877575   -437.42763   -413.55006    7193.4395    2721.5694   -2323.1235    21181.872    15.661805     13.56353    25.445349    5405.3391 
  959000      958.986    564.75266    23.214004   -436.76798   -413.55398      7841.18    696.42294   -1150.2259    23977.343    15.661807    13.563532    25.445331     5405.337 
  959500      959.486    569.64242    23.414996   -436.97199   -413.55699    8076.7896   -2206.1439    1663.9844    24772.528     15.66181    13.563534    25.445314    5405.3349 
  960000      959.986    629.43514    25.872759   -439.43604   -413.56328    6066.6639   -2493.6953    -1255.599    21949.286    15.661812    13.563536    25.445296    5405.3329 
  960500      960.486    553.70573    22.759922   -436.32516   -413.56524     8779.463    -1262.852    3655.9956    23945.245    15.661814    13.563538    25.445279    5405.3308 
  961000      960.986    556.43755    22.872213   -436.44241   -413.57019     5798.963    121.30171   -5172.7507    22448.338    15.661817     13.56354    25.445262    5405.3287 
  961500      961.486    578.94808    23.797502   -437.37033   -413.57283    6566.0245    1463.7657    -2426.642     20660.95    15.661819    13.563542    25.445244    5405.3266 
  962000      961.986    595.08531    24.460819   -438.03696   -413.57614     6592.341   -430.81311    825.13637      19382.7    15.661821    13.563544    25.445227    5405.3245 
  962500      962.486    573.82504    23.586921   -437.16862    -413.5817    7735.2671    3958.4871   -5005.0438    24252.358    15.661824    13.563546    25.445209    5405.3225 
  963000      962.986     557.0362     22.89682   -436.48067   -413.58385    8021.0472    1442.7691   -1279.8131    23900.186    15.661826    13.563548    25.445192    5405.3204 
  963500      963.486    598.23726    24.590379    -438.1795   -413.58912    5513.3443   -1051.4233   -5119.9508    22711.407    15.661828     13.56355    25.445174    5405.3183 
  964000      963.986    568.58564    23.371557    -436.9649   -413.59334    8127.5046    2145.8667     1049.605    21187.042    15.661831    13.563552    25.445157    5405.3162 
  964500      964.486    574.65565    23.621063   -437.21587   -413.59481    8911.3249    565.38244   -12.067099    26180.659    15.661833    13.563554    25.445139    5405.3141 
  965000      964.986    558.31828     22.94952   -436.54822    -413.5987     7968.401    2934.2801    267.06533    20703.857    15.661835    13.563556    25.445122    5405.3121 
  965500      965.486    559.52912    22.999291   -436.60288   -413.60359    8430.3406    1254.0034    859.92238    23177.096    15.661838    13.563558    25.445105      5405.31 
  966000      965.986    563.64175     23.16834   -436.77602   -413.60768    6693.8252   -802.74206   -4482.8706    25367.088     15.66184    13.563561    25.445087    5405.3079 
  966500      966.486    565.23891    23.233991   -436.84385   -413.60986    8094.0989    8213.1543   -5413.4863    21482.629    15.661842    13.563563     25.44507    5405.3058 
  967000      966.986    544.67749    22.388819    -436.0038   -413.61499    7028.8057    -177.8313   -3757.6477    25021.896    15.661845    13.563565    25.445052    5405.3038 
  967500      967.486    589.62934    24.236553   -437.85638   -413.61983    7029.6877    1391.0582   -5458.7956    25156.801    15.661847    13.563567    25.445035    5405.3017 
  968000      967.986    550.99021    22.648301   -436.27019   -413.62188     8235.831     4794.696    -4515.408    24428.205     15.66185    13.563569    25.445017    5405.2996 
  968500      968.486    547.38727    22.500204   -436.12508   -413.62488    7169.5148    2883.7068   -763.72444    19388.562    15.661852    13.563571       25.445    5405.2975 
  969000      968.986    581.73255    23.911957   -437.54029   -413.62834    5233.9144   -4379.4759   -170.13979    20251.359    15.661854    13.563573    25.444982    5405.2954 
  969500      969.486    590.75776    24.282936   -437.91414    -413.6312    6900.8615   -2761.9802   -3629.6961    27094.261    15.661857    13.563575    25.444965    5405.2934 
  970000      969.986    577.43941    23.735489   -437.36986   -413.63438    5096.5198   -4168.3463   -1470.2335    20928.139    15.661859    13.563577    25.444947    5405.2913 
  970500      970.486    573.58906    23.577221   -437.21511   -413.63789    9478.9182    3796.5124   -1556.4135    26196.656    15.661861    13.563579     25.44493    5405.2892 
  971000      970.986    590.64287    24.278213   -437.91899   -413.64078    5235.7881     396.9357   -1317.4224    16627.851    15.661864    13.563581    25.444913    5405.2871 
  971500      971.486    595.32632    24.470725   -438.11365   -413.64293    7562.7405   -2919.9111   -2611.7821    28219.915    15.661866    13.563583    25.444895     5405.285 
  972000      971.986    575.87714    23.671272    -437.3166   -413.64533    9248.7429    2975.5403    702.51679    24068.172    15.661868    13.563585    25.444878     5405.283 
  972500      972.486    579.50446    23.820372   -437.46855   -413.64818    5863.2021   -687.59917   -976.68931    19253.895    15.661871    13.563587     25.44486    5405.2809 
  973000      972.986     526.2577    21.631678   -435.28032   -413.64864    7984.5512    1726.2543    592.82957     21634.57    15.661873    13.563589    25.444843    5405.2788 
  973500      973.486    535.54764    22.013539   -435.66645   -413.65292    8216.3481    962.96683    669.33676    23016.741    15.661875    13.563591    25.444825    5405.2767 
  974000      973.986    558.38466    22.952249   -436.60782   -413.65557    7578.1502    3320.6734   -2637.4549    22051.232    15.661878    13.563593    25.444808    5405.2747 
  974500      974.486    551.71222     22.67798   -436.33523   -413.65725     5985.088   -1817.4985   -2780.1836    22552.946     15.66188    13.563595     25.44479    5405.2726 
  975000      974.986    572.72602    23.541746   -437.20376   -413.66202    5850.6488    516.04002   -2014.9244    19050.831    15.661882    13.563597    25.444773    5405.2705 
  975500      975.486    551.02996    22.649936   -436.31329   -413.66335    8930.0346    85.416618    920.31068    25784.376    15.661885    13.563599    25.444756    5405.2684 
  976000      975.986    581.43907    23.899894   -437.56695   -413.66706     6961.436    4419.6582   -3272.9586    19737.608    15.661887    13.563602    25.444738    5405.2663 
  976500      976.486    572.21011     23.52054   -437.18886   -413.66832    5994.5142    -2473.373   -4053.4256    24510.341    15.661889    13.563604    25.444721    5405.2643 
  977000      976.986     564.4493    23.201534   -436.87188   -413.67035    6827.6945    1817.7914   -4224.5347    22889.827    15.661892    13.563606    25.444703    5405.2622 
  977500      977.486    592.51569    24.355195   -438.02805   -413.67286    5584.2988   -3812.6562   -4999.7213    25565.274    15.661894    13.563608    25.444686    5405.2601 
  978000      977.986    544.73747    22.391285   -436.06342   -413.67214    6277.6873   -2716.3062   -2586.1707    24135.539    15.661897     13.56361    25.444668     5405.258 
  978500      978.486    567.94773    23.345336   -437.02016   -413.67482    8694.3389   -1263.2852    1014.5294    26331.772    15.661899    13.563612    25.444651    5405.2559 
  979000      978.986    561.32868    23.073262   -436.75059   -413.67733    8207.9155   -41.308058   -1912.4458      26577.5    15.661901    13.563614    25.444633    5405.2539 
  979500      979.486    539.84226    22.190068   -435.87251   -413.68244    7148.0696    62.670473   -5357.0059    26738.544    15.661904    13.563616    25.444616    5405.2518 
  980000      979.986    559.38297    22.993284   -436.67711   -413.68382     6778.457    1010.7014    -4631.775    23956.445    15.661906    13.563618    25.444598    5405.2497 
  980500      980.486    564.87295    23.218948   -436.90626   -413.68731    5631.2665    3545.4941   -6185.3789    19533.684    15.661908     13.56362    25.444581    5405.2476 
  981000      980.986    589.53572    24.232704   -437.92003   -413.68733    6323.4273    -1490.488    100.35683    20360.413    15.661911    13.563622    25.444564    5405.2455 
  981500      981.486    573.27145    23.564166   -437.25354   -413.68937    7368.7968    1826.3084    -2129.468     22409.55    15.661913    13.563624    25.444546    5405.2435 
  982000      981.986    557.27309    22.906558   -436.59866    -413.6921    7442.9454    1164.6681   -2934.5655    24098.733    15.661915    13.563626    25.444529    5405.2414 
  982500      982.486    594.51409    24.437339   -438.13232   -413.69498    5735.0216   -4208.5154   -4611.1263    26024.706    15.661918    13.563628    25.444511    5405.2393 
  983000      982.986     536.7027    22.061017   -435.75748   -413.69646     7653.967    1562.6522    805.88906     20593.36     15.66192     13.56363    25.444494    5405.2372 
  983500      983.486    589.68708    24.238926   -437.93971   -413.70078    9791.6965    1366.5216   -2172.6452    30181.213    15.661922    13.563632    25.444476    5405.2352 
  984000      983.986    593.83551    24.409446   -438.11274   -413.70329    7192.7094   -2157.8878   -6587.4575    30323.473    15.661925    13.563634    25.444459    5405.2331 
  984500      984.486    551.86399    22.684218   -436.38614   -413.70192    7239.7711    -1642.907     -3447.39     26809.61    15.661927    13.563636    25.444441     5405.231 
  985000      984.986     570.1881    23.437426   -437.14289   -413.70546    7616.6769   -2189.3655      1263.97    23775.426    15.661929    13.563638    25.444424    5405.2289 
  985500      985.486    612.71539    25.185498   -438.89364   -413.70814    6386.3677   -900.36267   -1234.6682    21294.134    15.661932     13.56364    25.444407    5405.2268 
  986000      985.986     549.4489    22.584946   -436.29313   -413.70819    8297.7235    2275.5925   -2014.3345    24631.912    15.661934    13.563643    25.444389    5405.2248 
  986500      986.486    548.24886    22.535619   -436.24418   -413.70856    6962.7629   -5674.3275    5099.0205    21463.596    15.661936    13.563645    25.444372    5405.2227 
  987000      986.986    567.72946    23.336364    -437.0456   -413.70924    6765.9856   -5836.3691    385.82747    25748.499    15.661939    13.563647    25.444354    5405.2206 
  987500      987.486    557.99342    22.936167    -436.6456   -413.70943     8066.866   -3065.2422   -446.60353    27712.444    15.661941    13.563649    25.444337    5405.2185 
  988000      987.986    601.70902    24.733084   -438.44357   -413.71048    5773.6586   -4498.0455   -6682.1336    28501.155    15.661944    13.563651    25.444319    5405.2164 
  988500      988.486    563.41184    23.158889   -436.86835   -413.70946     6063.996   -1816.6311    2147.5671    17861.052    15.661946    13.563653    25.444302    5405.2144 
  989000      988.986    600.15487    24.669202   -438.38148   -413.71228    5886.3465   -4269.9207   -1664.9097     23593.87    15.661948    13.563655    25.444284    5405.2123 
  989500      989.486    614.04186    25.240023   -438.95427   -413.71425    6416.1547   -5742.2852    493.79902     24496.95    15.661951    13.563657    25.444267    5405.2102 
  990000      989.986     600.0679    24.665627   -438.38145   -413.71582     7495.068    1244.4751   -3291.1875    24531.916    15.661953    13.563659    25.444249    5405.2081 
  990500      990.486    586.55079     24.11001   -437.82405   -413.71404    7526.3826   -395.45521    -5611.046    28585.649    15.661955    13.563661    25.444232     5405.206 
  991000      990.986    567.19968    23.314588   -437.02903   -413.71444    7088.1321    947.44507   -2458.5258    22775.477    15.661958    13.563663    25.444215     5405.204 
  991500      991.486    603.38243    24.801869    -438.5157   -413.71383    6889.0662   -5134.3445   -616.56598    26418.109     15.66196    13.563665    25.444197    5405.2019 
  992000      991.986    596.50385    24.519127   -438.23548   -413.71635    5988.6651   -10336.398   -2237.3105    30539.704    15.661962    13.563667     25.44418    5405.1998 
  992500      992.486    589.05475    24.212934   -437.92937   -413.71644     8102.145   -7005.3688    5418.4249    25893.379    15.661965    13.563669    25.444162    5405.1977 
  993000      992.986     594.9511    24.455302   -438.17209   -413.71679    7871.6073   -3343.1047    1485.3674    25472.559    15.661967    13.563671    25.444145    5405.1956 
  993500      993.486    592.29146    24.345978   -438.05872   -413.71274    4685.6272   -5408.4996   -2930.0964    22395.478    15.661969    13.563673    25.444127    5405.1936 
  994000      993.986    602.67934    24.772969   -438.48798   -413.71501    6803.1092   -7041.8251   -480.37742     27931.53    15.661972    13.563675     25.44411    5405.1915 
  994500      994.486    584.56058    24.028202   -437.74174   -413.71354    7009.4702   -1889.9658   -5922.0269    28840.403    15.661974    13.563677    25.444092    5405.1894 
  995000      994.986    553.32649    22.744334   -436.45892   -413.71459     8694.552   -3835.8982    -995.9756     30915.53    15.661976    13.563679    25.444075    5405.1873 
  995500      995.486    543.92679    22.357962    -436.0705   -413.71254    7270.2289   -2355.7531   -2094.5494    26260.989    15.661979    13.563681    25.444058    5405.1853 
  996000      995.986    556.13904    22.859943   -436.57357   -413.71363    6387.6114   -5247.7117   -81.552857    24492.099    15.661981    13.563684     25.44404    5405.1832 
  996500      996.486    634.60525    26.085275   -439.79849   -413.71322    4512.4478   -70.855634   -2168.7004    15776.899    15.661983    13.563686    25.444023    5405.1811 
  997000      996.986    599.61745    24.647111    -438.3611   -413.71398    5083.1636    -7364.233   -4602.7676    27216.491    15.661986    13.563688    25.444005     5405.179 
  997500      997.486    567.49537    23.326742   -437.04065   -413.71391    6571.4438    -3973.375   -988.72284    24676.429    15.661988     13.56369    25.443988    5405.1769 
  998000      997.986    572.84961    23.546826   -437.26122   -413.71439    5131.1403   -8403.5302   -3214.8935    27011.845    15.661991    13.563692     25.44397    5405.1749 
  998500      998.486    588.62613    24.195316   -437.90993   -413.71462    6054.8579   -2344.3433   -2236.7314    22745.649    15.661993    13.563694    25.443953    5405.1728 
  999000      998.986     583.6673    23.991485    -437.7061   -413.71461    7831.5259   -5766.0699    -1253.093    30513.741    15.661995    13.563696    25.443935    5405.1707 
  999500      999.486    605.70206    24.897217   -438.61342    -413.7162    7417.5052   -2640.2724   -2933.3696    27826.158    15.661998    13.563698    25.443918    5405.1686 
 1000000      999.986    566.39763    23.281619   -437.00012    -413.7185    6477.9148   -4815.9957   -4922.4404     29172.18       15.662      13.5637      25.4439    5405.1665 
 1000014         1000    604.57596    24.850929   -438.57108   -413.72015      5746.87   -2278.2171   -4214.7884    23733.615       15.662      13.5637      25.4439    5405.1665 
Loop time of 974.428 on 28 procs for 1000000 steps with 319 atoms

Performance: 88.667 ns/day, 0.271 hours/ns, 1026.243 timesteps/s
87.4% CPU use with 28 MPI tasks x no OpenMP threads

MPI task timing breakdown:
Section |  min time  |  avg time  |  max time  |%varavg| %total
---------------------------------------------------------------
Pair    | 770.05     | 831.91     | 899.21     | 102.6 | 85.37
Neigh   | 0.04584    | 0.07563    | 0.09854    |   5.6 |  0.01
Comm    | 64.408     | 130.94     | 191.82     | 252.4 | 13.44
Output  | 0.10069    | 0.10314    | 0.12384    |   1.3 |  0.01
Modify  | 4.7755     | 6.2906     | 8.2905     |  40.2 |  0.65
Other   |            | 5.11       |            |       |  0.52

Nlocal:    11.3929 ave 15 max 6 min
Histogram: 1 1 4 2 2 0 8 4 2 4
Nghost:    691.429 ave 745 max 661 min
Histogram: 4 6 4 5 1 3 1 0 0 4
Neighs:    728.893 ave 985 max 386 min
Histogram: 1 4 1 3 1 1 7 4 1 5
FullNghs:  1457.79 ave 1925 max 765 min
Histogram: 1 1 4 2 2 0 8 4 1 5

Total # of neighbors = 40818
Ave neighs/atom = 127.956
Neighbor list builds = 1088
Dangerous builds = 0

write_restart   POSCAR_1x1x1.rest

#unfix    1
#undump   1
Total wall time: 0:16:14
