LAMMPS (7 Dec 2015)
#----------- Initialize Simulation ------------ restart01
#processors	2 2 2
units		metal
boundary	p p p     ## periodic boundary condition  on x y z axis ##
atom_style atomic
#atom_modify map array sort 0 0.0

read_data	POSCAR_1x1x1.lammps
  triclinic box = (0 0 0) to (15.6145 13.5225 25.7937) with tilt (-7.80715 0 0)
  2 by 2 by 7 MPI processor grid
  reading atoms ...
  319 atoms

#----------- Define Potential -----------------
pair_style meam
pair_coeff * * MgAlZn.library.meam Mg Al Zn MgAlZn.parameter.meam Mg Al Zn 	#1=Mg 2=Al 3=Zn	#atoms/mass

#----------- Neighbor List --------------------
neighbor 2.0 bin
neigh_modify delay 10 check yes

#--------------  Run a simulation (minimization) ---------------------------------------
minimize       1.0e-4   1.0e-6   100   1000          #結構優化的條件
WARNING: Resetting reneighboring criteria during minimization (../min.cpp:168)
Neighbor list info ...
  2 neighbor list requests
  update every 1 steps, delay 0 steps, check yes
  max neighbors/atom: 2000, page size: 100000
  master list distance cutoff = 8
  ghost atom cutoff = 8
  binsize = 4 -> bins = 6 4 7
Memory usage per processor = 8.65346 Mbytes
Step Temp E_pair E_mol TotEng Press 
       0            0    -436.4659            0    -436.4659    7034.8997 
      13            0   -459.63956            0   -459.63956   -9733.9349 
Loop time of 0.0205537 on 28 procs for 13 steps with 319 atoms

88.2% CPU use with 28 MPI tasks x no OpenMP threads

Minimization stats:
  Stopping criterion = energy tolerance
  Energy initial, next-to-last, final = 
        -436.465903914     -459.610046314     -459.639555376
  Force two-norm initial, final = 22.5453 0.68108
  Force max component initial, final = 5.60047 0.134027
  Final line search alpha, max atom move = 0.713419 0.0956171
  Iterations, force evaluations = 13 20

MPI task timing breakdown:
Section |  min time  |  avg time  |  max time  |%varavg| %total
---------------------------------------------------------------
Pair    | 0.01597    | 0.017003   | 0.018505   |   0.5 | 82.73
Neigh   | 0          | 0          | 0          |   0.0 |  0.00
Comm    | 0.0012415  | 0.0027121  | 0.0036995  |   1.1 | 13.20
Output  | 0          | 0          | 0          |   0.0 |  0.00
Modify  | 0          | 0          | 0          |   0.0 |  0.00
Other   |            | 0.0008384  |            |       |  4.08

Nlocal:    11.3929 ave 16 max 6 min
Histogram: 2 1 4 0 1 6 6 0 2 6
Nghost:    667.5 ave 700 max 646 min
Histogram: 1 4 5 7 5 0 3 1 0 2
Neighs:    725.964 ave 1045 max 389 min
Histogram: 2 4 1 1 5 6 1 1 5 2
FullNghs:  1451.93 ave 2066 max 764 min
Histogram: 3 2 2 1 5 5 2 2 3 3

Total # of neighbors = 40654
Ave neighs/atom = 127.442
Neighbor list builds = 0
Dangerous builds = 0
velocity all  create 600.0 4928459 #rot yes dist gaussian

#--------------  Run a simulation (Relaxation)  ----------------------------------------
fix  1  all  nvt   temp  600.0  600.0  100				#damping constant
#fix  2  all  npt   temp  393.0  393.0  50 iso 0.0 0.0 1000.0
fix  2  all deform 1 x final 0 15.6192 y final 0 13.5266 z final 0 25.7588 xy final -7.8095 units lattice
#fix  3  all  npt   temp  393.0  393.0  50 z 0.0 0.0 1000.0

#variable b equal 1
#fix 2 all efield  0.0  0.0  v_b
#compute pot all pe/atom


#----------- Output --------------------------
thermo	 500
timestep  0.001		#1.0 fs
thermo_style	custom step time temp ke pe etotal press pxx pyy pzz lx ly lz vol

dump 1 all custom 10000 dump.eq id type x y z
dump_modify 1 sort  id

run        1000000	#1000 ps
Neighbor list info ...
  2 neighbor list requests
  update every 1 steps, delay 10 steps, check yes
  max neighbors/atom: 2000, page size: 100000
  master list distance cutoff = 8
  ghost atom cutoff = 8
  binsize = 4 -> bins = 6 4 7
Memory usage per processor = 7.56103 Mbytes
Step Time Temp KinEng PotEng TotEng Press Pxx Pyy Pzz Lx Ly Lz Volume 
      13            0          600    24.662836   -459.63956   -434.97672   -4897.0763   -11793.905   -15585.292    12687.969      15.6145      13.5225      25.7937    5446.2643 
     500        0.487    310.04644    12.744374   -447.71681   -434.97244    603.07723   -9365.8927   -12030.198    23205.322    15.614502    13.522502    25.793683    5446.2624 
    1000        0.987    342.21862    14.066803   -449.03922   -434.97242    1149.7495   -6517.3343   -10162.387     20128.97    15.614505    13.522504    25.793666    5446.2603 
    1500        1.487    316.88538    13.025487   -447.99635   -434.97086    2075.3459   -6133.8878   -9662.6561    22022.582    15.614507    13.522506    25.793648    5446.2583 
    2000        1.987    326.10797    13.404579   -448.37447   -434.96989    1576.6419   -7171.4494   -10200.625        22102    15.614509    13.522508    25.793631    5446.2562 
    2500        2.487    289.93075    11.917524   -446.88443   -434.96691    2326.9973   -7660.9728   -5978.7247    20620.689    15.614512     13.52251    25.793613    5446.2542 
    3000        2.987    332.73511    13.676986   -448.64231   -434.96532     633.5636   -8158.7052   -11167.053    21226.449    15.614514    13.522512    25.793596    5446.2522 
    3500        3.487    336.07774    13.814383   -448.77808   -434.96369    1469.4225   -9184.3474   -9787.8233    23380.438    15.614516    13.522514    25.793578    5446.2501 
    4000        3.987     310.7013    12.771292   -447.73221   -434.96092     2077.187   -7032.3161   -8123.9164    21387.793    15.614519    13.522516    25.793561    5446.2481 
    4500        4.487    332.10433    13.651058   -448.61021   -434.95915    2036.2075   -6878.2004   -9041.7817    22028.605    15.614521    13.522518    25.793543     5446.246 
    5000        4.987    334.36518    13.743989   -448.69934   -434.95535    1146.5221   -7582.5022   -11122.942     22145.01    15.614523     13.52252    25.793526     5446.244 
    5500        5.487    345.14301    14.187009   -449.13948   -434.95247    2011.4003   -8393.6203   -7603.4598    22031.281    15.614526    13.522522    25.793509     5446.242 
    6000        5.987    319.33008    13.125975   -448.07453   -434.94856    2667.3854   -7457.0747   -9025.7747    24485.006    15.614528    13.522525    25.793491    5446.2399 
    6500        6.487    336.62349    13.836816   -448.78162    -434.9448   -72.416758   -7516.6106   -13002.713    20302.073     15.61453    13.522527    25.793474    5446.2379 
    7000        6.987    339.33112    13.948113   -448.88922   -434.94111    748.70748   -9804.3546   -11042.217    23092.694    15.614533    13.522529    25.793456    5446.2358 
    7500        7.487    324.26385    13.328777   -448.26501   -434.93623    1689.4109   -8159.2221   -8582.1512    21809.606    15.614535    13.522531    25.793439    5446.2338 
    8000        7.987    319.42584    13.129911   -448.06148   -434.93157    2887.3487   -6668.8341   -8939.6296     24270.51    15.614538    13.522533    25.793421    5446.2318 
    8500        8.487    336.39645    13.827484   -448.75381   -434.92632    639.22237    -10923.27   -8573.3228    21414.259     15.61454    13.522535    25.793404    5446.2297 
    9000        8.987    345.06671    14.183873   -449.10496   -434.92109    1569.3184   -7136.4511   -10691.213    22535.619    15.614542    13.522537    25.793386    5446.2277 
    9500        9.487    321.50073      13.2152   -448.12998   -434.91478    2313.8993   -8061.8166   -7662.6807    22666.195    15.614545    13.522539    25.793369    5446.2256 
   10000        9.987    316.74402    13.019676   -447.92819   -434.90852    1797.5244   -7629.6821   -9139.9184    22162.174    15.614547    13.522541    25.793351    5446.2236 
   10500       10.487     326.4562    13.418893   -448.32111   -434.90222     1120.197   -7195.2363   -11415.226    21971.053    15.614549    13.522543    25.793334    5446.2216 
   11000       10.987    318.38152    13.086985   -447.98248    -434.8955    1341.6693   -10152.847   -7298.9141    21476.769    15.614552    13.522545    25.793317    5446.2195 
   11500       11.487    318.22121    13.080396   -447.96828   -434.88789    2016.3904   -10724.096    -6719.801    23493.068    15.614554    13.522547    25.793299    5446.2175 
   12000       11.987    308.83521    12.694587   -447.57566   -434.88107    2136.8736   -8820.5958   -7513.0583    22744.275    15.614556    13.522549    25.793282    5446.2155 
   12500       12.487    338.79831    13.926212   -448.79983   -434.87362    1522.4926   -8894.7907   -8716.8646    22179.133    15.614559    13.522551    25.793264    5446.2134 
   13000       12.987    302.63678    12.439802   -447.30435   -434.86455    1418.7702   -9448.0025   -6783.4129    20487.726    15.614561    13.522553    25.793247    5446.2114 
   13500       13.487    343.92255    14.136842   -448.99392   -434.85707    324.77927   -10606.652   -8525.0424    20106.032    15.614563    13.522555    25.793229    5446.2093 
   14000       13.987    316.56138    13.012169   -447.86106   -434.84889    1778.8767   -7761.4956   -6307.6272    19405.753    15.614566    13.522557    25.793212    5446.2073 
   14500       14.487    316.05342    12.991289   -447.83044   -434.83915    810.15005   -10853.211   -6098.4273    19382.088    15.614568    13.522559    25.793194    5446.2053 
   15000       14.987    336.25121    13.821514   -448.65174   -434.83022    1580.7089   -7321.7465   -7124.7354    19188.609     15.61457    13.522561    25.793177    5446.2032 
   15500       15.487    345.23395    14.190747   -449.01133   -434.82059   -511.81545   -10616.192    -10189.33    19270.076    15.614573    13.522563     25.79316    5446.2012 
   16000       15.987    312.98842    12.865303   -447.67625   -434.81095    957.95914    -8014.712   -11352.398    22240.988    15.614575    13.522566    25.793142    5446.1991 
   16500       16.487    349.69576    14.374149   -449.17619   -434.80204    248.79551    -7894.088    -8199.641    16840.116    15.614577    13.522568    25.793125    5446.1971 
   17000       16.987    315.24699    12.958141   -447.74867   -434.79053    1312.3718    -6956.568   -6951.3453    17845.029     15.61458     13.52257    25.793107    5446.1951 
   17500       17.487    323.21796    13.285786   -448.06563   -434.77984     965.0726    -8232.962   -6772.6753    17900.855    15.614582    13.522572     25.79309     5446.193 
   18000       17.987    297.13854    12.213798   -446.98247   -434.76867     3060.392   -6875.5908   -5788.8455    21845.612    15.614585    13.522574    25.793072     5446.191 
   18500       18.487    314.62182    12.932444   -447.69003   -434.75758    2265.4548   -7894.3686   -8115.2112    22805.944    15.614587    13.522576    25.793055    5446.1889 
   19000       18.987      338.367    13.908483   -448.65447   -434.74599    984.86435   -6257.7186   -13246.349    22458.661    15.614589    13.522578    25.793037    5446.1869 
   19500       19.487    334.69912    13.757716   -448.49139   -434.73367    2617.1122     -7346.34   -4130.0007    19327.677    15.614592     13.52258     25.79302    5446.1849 
   20000       19.987    322.78459    13.267972   -447.98969   -434.72172    1199.4622   -8702.0159   -9187.8779     21488.28    15.614594    13.522582    25.793002    5446.1828 
   20500       20.487    314.74644    12.937566   -447.64671   -434.70915    2452.1907   -6501.4478   -7557.7185    21415.738    15.614596    13.522584    25.792985    5446.1808 
   21000       20.987    342.17767    14.065119   -448.76214   -434.69702    1308.4208   -8122.3632   -9545.1258    21592.751    15.614599    13.522586    25.792968    5446.1787 
   21500       21.487    318.17591    13.078534   -447.76192   -434.68338    2789.1582   -5904.2048   -7468.5151    21740.195    15.614601    13.522588     25.79295    5446.1767 
   22000       21.987    328.00523    13.482565   -448.15248   -434.66992    1891.8426   -7458.8642   -9573.8207    22708.213    15.614603     13.52259    25.792933    5446.1747 
   22500       22.487    342.79999      14.0907   -448.74734   -434.65664    906.72564   -9560.3091   -9487.2316    21767.718    15.614606    13.522592    25.792915    5446.1726 
   23000       22.987    317.90288    13.067311   -447.70921    -434.6419    272.93702   -9668.1252   -12660.165    23147.102    15.614608    13.522594    25.792898    5446.1706 
   23500       23.487    337.23219    13.861837   -448.49012   -434.62829     1765.236   -9425.1959   -8591.4876    23312.392     15.61461    13.522596     25.79288    5446.1685 
   24000       23.987     335.8468    13.804891   -448.41923   -434.61434    1795.0163   -6684.9078    -8735.339    20805.296    15.614613    13.522598    25.792863    5446.1665 
   24500       24.487    318.52161    13.092744   -447.69154    -434.5988    1277.9055   -5957.2959   -10209.272    20000.284    15.614615      13.5226    25.792845    5446.1645 
   25000       24.987    310.56621    12.765739   -447.34984    -434.5841     2150.436   -6613.2571   -10290.516    23355.081    15.614617    13.522602    25.792828    5446.1624 
   25500       25.487    334.30436    13.741489   -448.31068   -434.56919     2657.139   -5780.8263   -9935.6743    23687.918     15.61462    13.522604    25.792811    5446.1604 
   26000       25.987    331.23041    13.615135   -448.16965   -434.55451    2164.6529   -8621.1634   -10223.465    25338.587    15.614622    13.522607    25.792793    5446.1584 
   26500       26.487    330.03749    13.566101     -448.105    -434.5389    2060.9792   -7904.0502   -10131.901    24218.889    15.614624    13.522609    25.792776    5446.1563 
   27000       26.987    338.53268    13.915293   -448.43729     -434.522    1106.0394   -9328.5273   -8929.7223    21576.368    15.614627    13.522611    25.792758    5446.1543 
   27500       27.487    323.19305    13.284762   -447.79122   -434.50646    2863.3545   -6132.0139   -11172.027    25894.104    15.614629    13.522613    25.792741    5446.1522 
   28000       27.987    333.88538    13.724267   -448.21402   -434.48976    2071.6444   -7780.1855   -11368.483    25363.602    15.614632    13.522615    25.792723    5446.1502 
   28500       28.487    322.02853    13.236894   -447.70978   -434.47288    2807.6947   -5444.8478   -12201.465    26069.396    15.614634    13.522617    25.792706    5446.1482 
   29000       28.987    333.14201    13.693711   -448.15066   -434.45695    1469.6985   -9644.2171   -9450.3276     23503.64    15.614636    13.522619    25.792688    5446.1461 
   29500       29.487     335.5069    13.790919   -448.23057   -434.43965    1766.4064   -5865.3722   -9922.9252    21087.517    15.614639    13.522621    25.792671    5446.1441 
   30000       29.987    331.15882    13.612193   -448.03436   -434.42217    1926.3471   -5979.0078   -7741.3214    19499.371    15.614641    13.522623    25.792653     5446.142 
   30500       30.487    358.91944    14.753285   -449.15822   -434.40494    441.72891   -8664.2426     -12392.6     22382.03    15.614643    13.522625    25.792636      5446.14 
   31000       30.987     317.9482    13.069174   -447.45586   -434.38668     2336.964   -6161.7448   -7669.9025    20842.539    15.614646    13.522627    25.792619     5446.138 
   31500       31.487    315.69901    12.976721   -447.34557   -434.36885    3152.1495   -8233.5722   -10676.337    28366.358    15.614648    13.522629    25.792601    5446.1359 
   32000       31.987    328.30431    13.494859   -447.84673   -434.35187    2165.8492   -7771.9477   -7688.1684    21957.664     15.61465    13.522631    25.792584    5446.1339 
   32500       32.487    322.15691    13.242171   -447.57569   -434.33352    1629.8129   -6889.9958    -8751.293    20530.728    15.614653    13.522633    25.792566    5446.1318 
   33000       32.987    329.16946    13.530421   -447.84584   -434.31542     1824.694   -6973.0707    -12803.32    25250.473    15.614655    13.522635    25.792549    5446.1298 
   33500       33.487    337.42468    13.869749    -448.1661   -434.29635     2073.239   -10058.311   -7982.2338    24260.262    15.614657    13.522637    25.792531    5446.1278 
   34000       33.987    346.22868    14.231635   -448.51027   -434.27864    2217.4878   -7383.9094   -7159.9642    21196.337     15.61466    13.522639    25.792514    5446.1257 
   34500       34.487    320.38631    13.169392   -447.42874   -434.25935    1580.4882   -8373.4618   -7112.8205    20227.747    15.614662    13.522641    25.792496    5446.1237 
   35000       34.987    324.24313    13.327925   -447.56883   -434.24091    996.35778   -11308.719   -10189.625    24487.418    15.614664    13.522643    25.792479    5446.1216 
   35500       35.487    342.89063    14.094426   -448.31708   -434.22265    2352.2721   -8641.3276   -7528.8159     23226.96    15.614667    13.522645    25.792462    5446.1196 
   36000       35.987    336.01845    13.811946   -448.01542   -434.20347    1573.1237   -10223.935   -9443.8928    24387.199    15.614669    13.522648    25.792444    5446.1176 
   36500       36.487    324.46729    13.337139   -447.52125   -434.18411    2183.8669   -7690.4029   -7565.0846    21807.088    15.614671     13.52265    25.792427    5446.1155 
   37000       36.987    328.81649    13.515912   -447.68082   -434.16491    1301.6989   -9279.5281   -9110.7982    22295.423    15.614674    13.522652    25.792409    5446.1135 
   37500       37.487    339.97129    13.974427   -448.11978   -434.14535    1801.9376   -8936.9372   -8574.8128    22917.563    15.614676    13.522654    25.792392    5446.1114 
   38000       37.987    326.87589    13.436144   -447.56218   -434.12604    1712.8704    -7585.698   -7336.5803    20060.889    15.614679    13.522656    25.792374    5446.1094 
   38500       38.487    328.03809    13.483916   -447.59057   -434.10665    2234.6899   -5538.5647   -10309.219    22551.853    15.614681    13.522658    25.792357    5446.1074 
   39000       38.987    364.67898     14.99003   -449.07745   -434.08742    1307.8154   -10564.807    -9066.597     23554.85    15.614683     13.52266    25.792339    5446.1053 
   39500       39.487    343.43181     14.11667   -448.18411   -434.06744    2749.2454   -7508.1656   -8302.2991    24058.201    15.614686    13.522662    25.792322    5446.1033 
   40000       39.987    336.14565    13.817175   -447.86521   -434.04803    2335.2556   -8128.2666   -7204.2834    22338.317    15.614688    13.522664    25.792304    5446.1013 
   40500       40.487    322.42077    13.253017   -447.28144   -434.02842    2053.9123   -7687.0872   -11297.556     25146.38     15.61469    13.522666    25.792287    5446.0992 
   41000       40.987    312.13305    12.830144   -446.83892   -434.00878       1827.8   -5630.2758    -9492.524      20606.2    15.614693    13.522668     25.79227    5446.0972 
   41500       41.487    336.37726    13.826695   -447.81619   -433.98949    2701.1428   -6444.8228   -7026.6918    21574.943    15.614695     13.52267    25.792252    5446.0951 
   42000       41.987    336.17786    13.818499   -447.78879   -433.97029    1841.1455    -8713.234   -8063.1486    22299.819    15.614697    13.522672    25.792235    5446.0931 
   42500       42.487    348.02799    14.305595   -448.25718   -433.95158    1743.8438   -8447.8834   -8438.7557    22118.171      15.6147    13.522674    25.792217    5446.0911 
   43000       42.987    325.65765    13.386068    -447.3168   -433.93073    2188.7874   -6761.7407   -8424.8582    21752.961    15.614702    13.522676      25.7922     5446.089 
   43500       43.487    330.29844    13.576827   -447.48787   -433.91104    335.59903   -8346.0363   -9466.9183    18819.752    15.614704    13.522678    25.792182     5446.087 
   44000       43.987    334.10492    13.733291   -447.62542   -433.89213    2552.4687    -8715.827   -9057.8374     25431.07    15.614707     13.52268    25.792165    5446.0849 
   44500       44.487     334.4638    13.748043   -447.62114    -433.8731    3714.9923   -6216.4709   -8111.2905    25472.738    15.614709    13.522682    25.792147    5446.0829 
   45000       44.987    356.09529      14.6372   -448.49112   -433.85393    2148.9171   -7941.0415   -6108.9834    20496.776    15.614711    13.522684     25.79213    5446.0809 
   45500       45.487    331.49532    13.626024   -447.46111   -433.83509    1494.3902   -9706.8405   -7429.8961    21619.907    15.614714    13.522686    25.792113    5446.0788 
   46000       45.987    319.76113    13.143694   -446.95875   -433.81506    2549.3171   -8909.4829   -11109.569    27667.003    15.614716    13.522689    25.792095    5446.0768 
   46500       46.487    306.92354    12.616008   -446.41163   -433.79562    3007.3931   -8952.5433   -7375.6195    25350.342    15.614718    13.522691    25.792078    5446.0747 
   47000       46.987    316.92707      13.0272   -446.80424   -433.77704    2601.5724    -5587.243   -8674.9779    22066.938    15.614721    13.522693     25.79206    5446.0727 
   47500       47.487     336.9142    13.848766   -447.60651   -433.75775    1010.8386   -7650.9934    -7781.675    18465.184    15.614723    13.522695    25.792043    5446.0707 
   48000       47.987      350.842    14.421264   -448.16073   -433.73946    1215.2719   -7064.2325   -9783.9939    20494.042    15.614726    13.522697    25.792025    5446.0686 
   48500       48.487     354.9883    14.591697   -448.31262   -433.72093    891.51815   -9269.4379   -9327.6334    21271.626    15.614728    13.522699    25.792008    5446.0666 
   49000       48.987    347.53689    14.285409    -447.9877   -433.70229    1501.2095   -8166.9011   -5360.1184    18030.648     15.61473    13.522701     25.79199    5446.0645 
   49500       49.487    338.67171    13.921008   -447.60445   -433.68344     1282.392   -5538.9442   -11158.965    20545.085    15.614733    13.522703    25.791973    5446.0625 
   50000       49.987    348.38635    14.320325   -447.98573   -433.66541    2751.8387   -7096.0854   -7076.7578    22428.359    15.614735    13.522705    25.791955    5446.0605 
   50500       50.487    348.32523    14.317813   -447.96432   -433.64651    3189.1945   -9156.6507   -7996.5106    26720.745    15.614737    13.522707    25.791938    5446.0584 
   51000       50.987    340.21647    13.984505   -447.61206   -433.62756    2291.8246   -7583.7222     -8579.88    23039.076     15.61474    13.522709    25.791921    5446.0564 
   51500       51.487     342.2739    14.069075   -447.67891   -433.60984       1839.4   -5382.0036   -9627.4618    20527.665    15.614742    13.522711    25.791903    5446.0543 
   52000       51.987    329.53154    13.545304   -447.13678   -433.59147    2709.0157   -7268.4438   -6340.5331    21736.024    15.614744    13.522713    25.791886    5446.0523 
   52500       52.487    332.00398    13.646933   -447.22059   -433.57366    1275.1666   -7924.1461   -9835.1999    21584.846    15.614747    13.522715    25.791868    5446.0503 
   53000       52.987    348.67511    14.332195   -447.88805   -433.55585    1910.8198   -6732.5095   -9891.7408     22356.71    15.614749    13.522717    25.791851    5446.0482 
   53500       53.487    344.48726    14.160055   -447.69825    -433.5382    2050.7806   -8185.2712   -8843.9442    23181.557    15.614751    13.522719    25.791833    5446.0462 
   54000       53.987    331.20018    13.613893   -447.13434   -433.52045    3039.4535   -7793.6997   -8535.9934    25448.054    15.614754    13.522721    25.791816    5446.0441 
   54500       54.487    339.18097    13.941941   -447.44454    -433.5026    1092.7025   -9129.0899   -10993.286    23400.483    15.614756    13.522723    25.791798    5446.0421 
   55000       54.987    353.36835    14.525109   -448.01022   -433.48511    2032.2689   -6880.7407   -9197.1471    22174.694    15.614758    13.522725    25.791781    5446.0401 
   55500       55.487    350.29561    14.398805   -447.86659   -433.46778    2256.2601    -7003.741    -9837.172    23609.693    15.614761    13.522727    25.791764     5446.038 
   56000       55.987    354.25245     14.56145    -448.0121   -433.45065    1337.7914   -8446.1851    -9004.889    21464.448    15.614763     13.52273    25.791746     5446.036 
   56500       56.487    322.96883    13.275545   -446.70821   -433.43266    2509.8465    -6378.845   -9282.3226    23190.707    15.614765    13.522732    25.791729     5446.034 
   57000       56.987    334.39914    13.745385   -447.16142   -433.41604    1072.1531   -11738.746   -8622.8534    23578.058    15.614768    13.522734    25.791711    5446.0319 
   57500       57.487    348.13727    14.310087   -447.70948    -433.3994    2112.9916     -5440.81   -10248.201    22027.986     15.61477    13.522736    25.791694    5446.0299 
   58000       57.987    369.19584    15.175694   -448.55822   -433.38252    1795.1777   -8106.6715   -7286.8221    20779.027    15.614773    13.522738    25.791676    5446.0278 
   58500       58.487    342.09551    14.061742   -447.42643   -433.36469    1424.5055   -8299.0347   -10340.582    22913.133    15.614775     13.52274    25.791659    5446.0258 
   59000       58.987    356.96768    14.673059   -448.02191   -433.34885    1860.9678   -7842.4996    -9482.118    22907.521    15.614777    13.522742    25.791641    5446.0238 
   59500       59.487    349.02995    14.346781   -447.67815   -433.33136    2642.8994   -6241.5487   -8298.5895    22468.837     15.61478    13.522744    25.791624    5446.0217 
   60000       59.987    343.26581    14.109847   -447.42447   -433.31462    3589.9101   -5898.4709   -9694.0573    26362.259    15.614782    13.522746    25.791606    5446.0197 
   60500       60.487    347.40396    14.279945   -447.57832   -433.29838    2491.4478   -5155.7528   -9217.2691    21847.365    15.614784    13.522748    25.791589    5446.0176 
   61000       60.987    353.91803    14.547704   -447.82954   -433.28184    2034.7662   -7802.0603   -6201.3791    20107.738    15.614787     13.52275    25.791572    5446.0156 
   61500       61.487    350.99523    14.427563   -447.69236    -433.2648     2208.505   -7060.8656   -8724.5001    22410.881    15.614789    13.522752    25.791554    5446.0136 
   62000       61.987    338.35164    13.907852    -447.1564   -433.24855    1957.2884   -8474.3514   -6885.3433     21231.56    15.614791    13.522754    25.791537    5446.0115 
   62500       62.487    345.92008     14.21895   -447.45131   -433.23236    1879.8783   -10281.321   -7171.2353    23092.191    15.614794    13.522756    25.791519    5446.0095 
   63000       62.987    335.99279    13.810892   -447.02738   -433.21649    2947.9572   -6532.2971   -8417.6586    23793.827    15.614796    13.522758    25.791502    5446.0074 
   63500       63.487    354.59585    14.575565   -447.77565   -433.20009    1666.6628   -10590.954   -7804.2046    23395.147    15.614798     13.52276    25.791484    5446.0054 
   64000       63.987     337.2037    13.860666   -447.04405   -433.18339    1560.2049   -8391.1423   -9025.9025     22097.66    15.614801    13.522762    25.791467    5446.0034 
   64500       64.487    355.98431    14.632638   -447.80041   -433.16777    1341.2744   -7637.0348   -7284.7054    18945.563    15.614803    13.522764    25.791449    5446.0013 
   65000       64.987    369.58477    15.191681   -448.34427   -433.15259    2258.8695   -8280.0377   -9965.1968    25021.843    15.614805    13.522766    25.791432    5445.9993 
   65500       65.487    361.77126    14.870509   -448.00738   -433.13687     1069.446   -8684.3187   -8517.8531     20410.51    15.614808    13.522768    25.791415    5445.9972 
   66000       65.987    340.46265    13.994624   -447.11529   -433.12066    2804.1144   -5404.8014   -10420.205     24237.35     15.61481    13.522771    25.791397    5445.9952 
   66500       66.487    353.98854    14.550602   -447.65497   -433.10437    1599.6313   -9710.8379   -9064.4194    23574.151    15.614812    13.522773     25.79138    5445.9932 
   67000       66.987    337.45304    13.870915   -446.95922    -433.0883    2562.1697   -6788.1061   -10938.973    25413.588    15.614815    13.522775    25.791362    5445.9911 
   67500       67.487    352.50938    14.489801    -447.5631    -433.0733    1005.1136     -9292.29   -8473.1485    20780.779    15.614817    13.522777    25.791345    5445.9891 
   68000       67.987    355.55851    14.615135   -447.67285   -433.05772    1659.8516   -6482.7674   -8325.6962    19788.018     15.61482    13.522779    25.791327     5445.987 
   68500       68.487    330.71779    13.594064   -446.63511   -433.04104    1928.1235   -6353.3886   -9531.3674    21669.127    15.614822    13.522781     25.79131     5445.985 
   69000       68.987     355.5209    14.613589   -447.63859     -433.025    1651.7591   -8118.9808   -8535.8939    21610.152    15.614824    13.522783    25.791292     5445.983 
   69500       69.487    360.52717     14.81937    -447.8283   -433.00892    1202.9069   -9605.1756   -6078.0337     19291.93    15.614827    13.522785    25.791275    5445.9809 
   70000       69.987    350.94759    14.425604   -447.41922   -432.99362    2401.2204   -6218.9645   -8801.4201    22224.046    15.614829    13.522787    25.791257    5445.9789 
   70500       70.487    363.36336    14.935951   -447.91407   -432.97812    1300.1074    -6929.963   -6073.0756    16903.361    15.614831    13.522789     25.79124    5445.9768 
   71000       70.987    345.67333    14.208808   -447.17163   -432.96282    3544.3575   -8911.7471   -5167.8421    24712.662    15.614834    13.522791    25.791223    5445.9748 
   71500       71.487    360.18971    14.805499   -447.75278   -432.94728     1366.948   -8801.3023   -5557.0291    18459.175    15.614836    13.522793    25.791205    5445.9728 
   72000       71.987    355.05715    14.594527   -447.52529   -432.93076    3049.8175   -7572.5025   -5123.1042    21845.059    15.614838    13.522795    25.791188    5445.9707 
   72500       72.487    339.18223    13.941993   -446.85657   -432.91458    1618.8971   -5569.7687   -10799.412    21225.872    15.614841    13.522797     25.79117    5445.9687 
   73000       72.987    349.55945    14.368545   -447.26742   -432.89887    2119.3503   -7974.0791   -7351.6649    21683.795    15.614843    13.522799    25.791153    5445.9666 
   73500       73.487    342.58997    14.082067   -446.96571   -432.88364    3201.4762   -6237.2754   -7289.6827    23131.387    15.614845    13.522801    25.791135    5445.9646 
   74000       73.987    355.12185    14.597186   -447.46336   -432.86618    3464.8904   -6993.2735   -5730.1199    23118.065    15.614848    13.522803    25.791118    5445.9626 
   74500       74.487    343.87502    14.134888   -446.98464   -432.84975    2374.4187   -5222.6771    -8787.657     21133.59     15.61485    13.522805      25.7911    5445.9605 
   75000       74.987    339.49488    13.954844   -446.78886   -432.83402    2507.7791   -6447.3031   -7049.4097     21020.05    15.614852    13.522807    25.791083    5445.9585 
   75500       75.487    354.76472    14.582507   -447.39997   -432.81746    1169.8493   -9377.7817   -6267.1619    19154.491    15.614855    13.522809    25.791066    5445.9565 
   76000       75.987    367.90228    15.122522   -447.92421   -432.80169    1544.9683   -6643.2088    -8068.254    19346.368    15.614857    13.522812    25.791048    5445.9544 
   76500       76.487    360.44866    14.816143   -447.60103   -432.78489    1670.3659   -9104.3965   -4928.4039    19043.898    15.614859    13.522814    25.791031    5445.9524 
   77000       76.987    364.76484    14.993559    -447.7622   -432.76864    794.35506     -13690.7   -4501.3497    20575.115    15.614862    13.522816    25.791013    5445.9503 
   77500       77.487    354.56635    14.574353   -447.32647   -432.75211    1586.7179   -7585.0648   -9555.4593    21900.678    15.614864    13.522818    25.790996    5445.9483 
   78000       77.987    339.35063    13.948915   -446.68399   -432.73507    2593.1092   -6943.0068   -8114.1178    22836.452    15.614867     13.52282    25.790978    5445.9463 
   78500       78.487    341.98762    14.057307   -446.77605   -432.71875    1259.5518   -8567.6548   -11564.933    23911.243    15.614869    13.522822    25.790961    5445.9442 
   79000       78.987    340.01396    13.976181   -446.67789   -432.70171    2886.7877    -5118.019   -11024.787    24803.169    15.614871    13.522824    25.790943    5445.9422 
   79500       79.487    366.64955    15.071029   -447.75778   -432.68675    1188.3629   -8849.4424   -9991.3127    22405.844    15.614874    13.522826    25.790926    5445.9401 
   80000       79.987    361.84059    14.873358   -447.54264   -432.66929    1507.2261   -9339.6785   -10806.767    24668.124    15.614876    13.522828    25.790908    5445.9381 
   80500       80.487    345.72049    14.210746   -446.86263   -432.65188    1223.8722   -10246.067    -7946.328    21864.012    15.614878     13.52283    25.790891    5445.9361 
   81000       80.987    346.45456     14.24092   -446.87652    -432.6356    3099.6413   -6049.3759    -7482.667    22830.967    15.614881    13.522832    25.790874     5445.934 
   81500       81.487    349.73192    14.375635   -446.99411   -432.61848    1431.2371   -7534.1285   -9890.6596    21718.499    15.614883    13.522834    25.790856     5445.932 
   82000       81.987    343.57179    14.122424   -446.72372   -432.60129    1421.5112   -8683.7734   -8113.4089    21061.716    15.614885    13.522836    25.790839    5445.9299 
   82500       82.487    339.28283    13.946128   -446.53014   -432.58402    2981.6618   -5940.0729   -7256.8992    22141.957    15.614888    13.522838    25.790821    5445.9279 
   83000       82.987    330.33608    13.578374   -446.14516   -432.56678    3965.0185   -4945.6601   -4551.9669    21392.683     15.61489     13.52284    25.790804    5445.9259 
   83500       83.487    360.39517    14.813945   -447.36401   -432.55007    2350.9342   -8979.1991   -8407.3471    24439.349    15.614892    13.522842    25.790786    5445.9238 
   84000       83.987    355.10603    14.596536   -447.12921   -432.53267    1821.9862   -6407.4698   -11609.998    23483.427    15.614895    13.522844    25.790769    5445.9218 
   84500       84.487    347.73575    14.293583   -446.80897   -432.51539    2481.8261   -6964.4718   -10581.918    24991.868    15.614897    13.522846    25.790751    5445.9197 
   85000       84.987    347.42344    14.280745   -446.77893   -432.49818    3768.9041   -6679.9366   -8511.4941    26498.143    15.614899    13.522848    25.790734    5445.9177 
   85500       85.487    357.75259    14.705322   -447.18684   -432.48152    2637.6084    -6502.158   -10746.041    25161.024    15.614902     13.52285    25.790717    5445.9157 
   86000       85.987    349.19607    14.353609   -446.81709   -432.46348    3639.5385   -8156.2758   -8069.0911    27143.983    15.614904    13.522853    25.790699    5445.9136 
   86500       86.487    345.04347    14.182917   -446.62797   -432.44505    3185.2574   -6134.8315    -7558.553    23249.157    15.614906    13.522855    25.790682    5445.9116 
   87000       86.987    369.80141    15.200586   -447.62846   -432.42787    2022.3516   -5807.1086   -6464.2555    18338.419    15.614909    13.522857    25.790664    5445.9095 
   87500       87.487    360.56205    14.820804   -447.23027   -432.40947    2089.5538   -10879.677     -6839.85    23988.188    15.614911    13.522859    25.790647    5445.9075 
   88000       87.987    361.72395    14.868564   -447.26099   -432.39243    1917.9747   -7709.3515   -7984.5228    21447.799    15.614914    13.522861    25.790629    5445.9055 
   88500       88.487    347.57942    14.287157   -446.66093   -432.37377    3022.4816    -7832.168   -7755.9716    24655.584    15.614916    13.522863    25.790612    5445.9034 
   89000       88.987    373.32779    15.345537   -447.70137   -432.35583    1602.8431   -8952.1424    -8828.135    22588.807    15.614918    13.522865    25.790594    5445.9014 
   89500       89.487    349.48169    14.365349   -446.70317   -432.33782    3784.6521   -6606.4732   -8070.6075    26031.037    15.614921    13.522867    25.790577    5445.8993 
   90000       89.987    350.77149    14.418366    -446.7379   -432.31954    2252.9817    -7519.431   -9890.4844    24168.861    15.614923    13.522869    25.790559    5445.8973 
   90500       90.487     357.1458     14.68038   -446.98149   -432.30111    2607.2086   -5059.3886   -9907.1654     22788.18    15.614925    13.522871    25.790542    5445.8953 
   91000       90.987    367.40633    15.102137   -447.38513   -432.28299    229.23463    -12216.37   -7519.2332    20423.307    15.614928    13.522873    25.790525    5445.8932 
   91500       91.487    350.16219    14.393321   -446.65761   -432.26429    2745.6404   -7346.4558   -7031.3752    22614.752     15.61493    13.522875    25.790507    5445.8912 
   92000       91.987    357.30365    14.686869   -446.93183   -432.24496    2762.7851   -6040.2308   -7501.9698    21830.556    15.614932    13.522877     25.79049    5445.8891 
   92500       92.487    358.47672    14.735087   -446.96142   -432.22633    2434.3153   -7653.3311   -9948.0927     24904.37    15.614935    13.522879    25.790472    5445.8871 
   93000       92.987    370.90808    15.246075     -447.454   -432.20792    2234.2126   -9502.7026   -8337.3854    24542.726    15.614937    13.522881    25.790455    5445.8851 
   93500       93.487    380.13888    15.625505   -447.81466   -432.18916    2224.9078    -8058.304   -6434.7625     21167.79    15.614939    13.522883    25.790437     5445.883 
   94000       93.987    374.59789    15.397744   -447.56873   -432.17099    2307.5071   -8416.9402   -10057.492    25396.954    15.614942    13.522885     25.79042     5445.881 
   94500       94.487    377.06718    15.499243   -447.65094   -432.15169    2245.7554   -10759.733    -6986.117    24483.116    15.614944    13.522887    25.790402    5445.8789 
   95000       94.987     354.9966    14.592038   -446.72375   -432.13171    2723.2845   -7742.3598   -7305.9104    23218.124    15.614946    13.522889    25.790385    5445.8769 
   95500       95.487    356.13806    14.638957   -446.75082   -432.11186     3406.473   -7268.6338    -7770.778    25258.831    15.614949    13.522891    25.790368    5445.8749 
   96000       95.987    362.21372    14.888696   -446.98115   -432.09245    3085.6104   -7413.3884   -8575.0937    25245.313    15.614951    13.522894     25.79035    5445.8728 
   96500       96.487     349.9925    14.386346   -446.45994    -432.0736    2531.2994   -7401.8783   -6753.0043    21748.781    15.614953    13.522896    25.790333    5445.8708 
   97000       96.987    358.12762    14.720738   -446.77455   -432.05381    1464.8654   -5373.1899   -11087.682    20855.468    15.614956    13.522898    25.790315    5445.8688 
   97500       97.487    358.48661    14.735494   -446.76951   -432.03402    3924.2841   -7805.9574   -6167.1758    25745.986    15.614958      13.5229    25.790298    5445.8667 
   98000       97.987    369.63529    15.193757   -447.20864   -432.01489    2263.4253   -8178.1938   -10268.954    25237.424    15.614961    13.522902     25.79028    5445.8647 
   98500       98.487    358.64728    14.742098   -446.73672   -431.99462    3074.6538   -9515.8329   -10892.604    29632.399    15.614963    13.522904    25.790263    5445.8626 
   99000       98.987    370.77705    15.240689   -447.21593   -431.97524    2791.8772   -6609.0369   -7893.3621     22878.03    15.614965    13.522906    25.790245    5445.8606 
   99500       99.487    371.43802    15.267858   -447.22323   -431.95537    3173.7775   -6913.5172   -6492.4152    22927.265    15.614968    13.522908    25.790228    5445.8586 
  100000       99.987    354.91069    14.588507   -446.52338   -431.93487    2348.2129   -8050.7535   -5789.9795    20885.372     15.61497     13.52291     25.79021    5445.8565 
  100500      100.487    339.72084    13.964132   -445.87842   -431.91429    4115.7105   -7362.1005   -8552.7771    28262.009    15.614972    13.522912    25.790193    5445.8545 
  101000      100.987    373.18307    15.339588   -447.23419    -431.8946    2451.5932   -7559.0855   -7268.8606    22182.726    15.614975    13.522914    25.790176    5445.8524 
  101500      101.487    353.08157    14.513321    -446.3871   -431.87378    3612.8145   -7324.8223   -6200.8463    24364.112    15.614977    13.522916    25.790158    5445.8504 
  102000      101.987    375.58356    15.438259   -447.29212   -431.85386    2353.3228   -6402.1007   -10281.891     23743.96    15.614979    13.522918    25.790141    5445.8484 
  102500      102.487    360.69524    14.826279   -446.65896   -431.83268    3334.9067   -5877.6722   -6606.4406    22488.833    15.614982     13.52292    25.790123    5445.8463 
  103000      102.987    358.53937    14.737663   -446.54926    -431.8116    3559.2988    -6269.616   -7470.7029    24418.215    15.614984    13.522922    25.790106    5445.8443 
  103500      103.487    359.38592     14.77246   -446.56353   -431.79107    3381.8305   -6615.8093   -9377.6832    26138.984    15.614986    13.522924    25.790088    5445.8422 
  104000      103.987    345.98966     14.22181   -445.99168   -431.76987    2207.7392   -10348.657    -6624.787    23596.662    15.614989    13.522926    25.790071    5445.8402 
  104500      104.487    348.26452    14.315318   -446.06463   -431.74932    3493.2868   -7626.9799   -7105.5603      25212.4    15.614991    13.522928    25.790053    5445.8382 
  105000      104.987     369.9196    15.205444   -446.93469   -431.72924    2528.3348   -7747.4993   -11493.378    26825.881    15.614993     13.52293    25.790036    5445.8361 
  105500      105.487    391.87195    16.107789    -447.8165   -431.70871    3138.9784   -7237.9379   -8236.2758    24891.149    15.614996    13.522932    25.790019    5445.8341 
  106000      105.987    356.11343    14.637945    -446.3252   -431.68726    2240.7318   -7502.4544   -6949.7251    21174.375    15.614998    13.522935    25.790001     5445.832 
  106500      106.487    379.38563    15.594542   -447.26134    -431.6668    2146.0815   -7827.6106   -6634.8729    20900.728       15.615    13.522937    25.789984      5445.83 
  107000      106.987    360.41054    14.814576   -446.45902   -431.64445    2126.0868   -5448.1722   -9743.7355    21570.168    15.615003    13.522939    25.789966     5445.828 
  107500      107.487    350.41736    14.403809   -446.02695   -431.62314    2840.7697   -6002.7364   -6721.3664    21246.412    15.615005    13.522941    25.789949    5445.8259 
  108000      107.987     370.1447    15.214697    -446.8167     -431.602    2951.2113   -6309.8792   -4999.3503    20162.863    15.615008    13.522943    25.789931    5445.8239 
  108500      108.487    381.27055    15.672022   -447.25294   -431.58092    1757.5356   -7230.3591   -8079.9248    20582.891     15.61501    13.522945    25.789914    5445.8218 
  109000      108.987    371.37533    15.265281   -446.82442   -431.55914    3951.5647   -4712.0089   -7287.1678    23853.871    15.615012    13.522947    25.789896    5445.8198 
  109500      109.487    360.81942    14.831384   -446.36879    -431.5374    3833.5674   -5910.3756   -9544.4897    26955.568    15.615015    13.522949    25.789879    5445.8178 
  110000      109.987    374.76424    15.404581   -446.92076   -431.51618     2274.699   -5475.0753    -9213.192    21512.364    15.615017    13.522951    25.789861    5445.8157 
  110500      110.487     366.5409    15.066563   -446.56138   -431.49482    3347.6876   -8519.1495   -6794.3767    25356.589    15.615019    13.522953    25.789844    5445.8137 
  111000      110.987    369.34642    15.181883   -446.65542   -431.47353    2488.9912   -7879.6196        -8468    23814.593    15.615022    13.522955    25.789827    5445.8116 
  111500      111.487    387.92323    15.945478   -447.39756   -431.45208    2203.2637   -9280.6259   -9718.8869    25609.304    15.615024    13.522957    25.789809    5445.8096 
  112000      111.987    353.42992     14.52764   -445.95677   -431.42913    2973.9717   -6829.6645   -6084.0613    21835.641    15.615026    13.522959    25.789792    5445.8076 
  112500      112.487    381.45396    15.679561   -447.08787   -431.40831    3956.8635   -9919.8613    -4743.777    26534.229    15.615029    13.522961    25.789774    5445.8055 
  113000      112.987    362.84935    14.914823   -446.30148   -431.38666     3740.864   -7354.4534   -4199.6688    22776.714    15.615031    13.522963    25.789757    5445.8035 
  113500      113.487    361.37268    14.854125   -446.21846   -431.36434    3094.7215   -6277.1778   -7511.7917    23073.134    15.615033    13.522965    25.789739    5445.8014 
  114000      113.987    374.57463    15.396788   -446.73878     -431.342    3318.2864   -6978.3672   -6677.4533     23610.68    15.615036    13.522967    25.789722    5445.7994 
  114500      114.487     362.3316    14.893541   -446.21331   -431.31977    2312.2614   -9413.6751   -7007.7663    23358.226    15.615038    13.522969    25.789704    5445.7974 
  115000      114.987    354.22999    14.560527    -445.8582   -431.29768    3929.9748   -6672.3099   -7814.9948    26277.229     15.61504    13.522971    25.789687    5445.7953 
  115500      115.487    398.05444    16.361919   -447.63809   -431.27617    1595.6903   -9193.3199   -7318.2288     21298.62    15.615043    13.522973     25.78967    5445.7933 
  116000      115.987    358.92708    14.753599   -446.00574   -431.25214    2499.9078   -6855.5657   -8033.7735    22389.063    15.615045    13.522976    25.789652    5445.7912 
  116500      116.487    360.23925    14.807536   -446.03698   -431.22944    2423.5684   -8934.9122   -5371.9484    21577.566    15.615047    13.522978    25.789635    5445.7892 
  117000      116.987     369.1337    15.173139   -446.38261   -431.20947    2793.1928   -11569.386   -5348.7345    25297.699     15.61505     13.52298    25.789617    5445.7872 
  117500      117.487    372.43455     15.30882    -446.4947   -431.18588     3214.807   -5956.2771   -9318.7894    24919.488    15.615052    13.522982      25.7896    5445.7851 
  118000      117.987    369.32292    15.180917   -446.34499   -431.16407    3063.3379   -7951.3233   -8051.2359    25192.573    15.615055    13.522984    25.789582    5445.7831 
  118500      118.487    365.74286     15.03376   -446.17509   -431.14133    2273.1186   -8280.7775   -7956.5541    23056.688    15.615057    13.522986    25.789565     5445.781 
  119000      118.987    393.86249     16.18961    -447.3094   -431.11979    2915.8007   -5427.1919   -7387.2395    21561.833    15.615059    13.522988    25.789547     5445.779 
  119500      119.487    378.97918    15.577836    -446.6739   -431.09607    2341.1955   -7346.5078   -9188.8727    23558.967    15.615062     13.52299     25.78953     5445.777 
  120000      119.987    343.92879    14.137099   -445.21045   -431.07335    3479.7571   -7061.6182   -7045.5401    24546.429    15.615064    13.522992    25.789512    5445.7749 
  120500      120.487    353.35215    14.524443   -445.57539   -431.05094    3486.2506   -7357.6282   -8424.9843    26241.364    15.615066    13.522994    25.789495    5445.7729 
  121000      120.987    380.26764    15.630797   -446.66004   -431.02924    2658.0803   -4457.6221   -10908.937      23340.8    15.615069    13.522996    25.789478    5445.7708 
  121500      121.487    393.66377    16.181442   -447.18855   -431.00711    2418.4891    -4285.984   -9948.8905    21490.342    15.615071    13.522998     25.78946    5445.7688 
  122000      121.987    386.32897    15.879947   -446.86431   -430.98436    1795.7667   -6815.6371   -9370.6062    21573.543    15.615073       13.523    25.789443    5445.7668 
  122500      122.487    361.85272    14.873857   -445.83521   -430.96135    2947.0372   -6761.8563   -9984.5364    25587.504    15.615076    13.523002    25.789425    5445.7647 
  123000      122.987    370.92731    15.246865   -446.18498   -430.93812    4136.5516   -7433.2874   -9423.8676     29266.81    15.615078    13.523004    25.789408    5445.7627 
  123500      123.487    352.16172    14.475511   -445.38991    -430.9144    3658.1118   -4967.9554   -8938.5673    24880.858     15.61508    13.523006     25.78939    5445.7607 
  124000      123.987    368.53115    15.148372   -446.04004   -430.89167    4265.3799   -4953.7755   -10093.474    27843.389    15.615083    13.523008    25.789373    5445.7586 
  124500      124.487    385.19437    15.833309   -446.70233   -430.86902    3812.5897   -5308.6114   -7327.4665    24073.847    15.615085     13.52301    25.789355    5445.7566 
  125000      124.987      368.408     15.14331   -445.98906   -430.84575    4341.1183   -4555.6978   -9918.0157    27497.068    15.615087    13.523012    25.789338    5445.7545 
  125500      125.487     391.6684    16.099422   -446.92293    -430.8235    2836.9859   -7212.2101   -9064.0827    24787.251     15.61509    13.523014    25.789321    5445.7525 
  126000      125.987    364.88378    14.998448   -445.79754   -430.79909     3513.266   -8074.2002   -5471.9904    24085.989    15.615092    13.523017    25.789303    5445.7505 
  126500      126.487    365.89641    15.040072   -445.81611   -430.77604    2935.6156   -7939.0229   -7315.5167    24061.386    15.615094    13.523019    25.789286    5445.7484 
  127000      126.987    385.34806    15.839626   -446.59329   -430.75366    2244.7159   -7311.2304   -8275.3444    22320.723    15.615097    13.523021    25.789268    5445.7464 
  127500      127.487    380.40781    15.636559   -446.36683   -430.73027    3338.5933   -4689.9317   -7989.6349    22695.347    15.615099    13.523023    25.789251    5445.7443 
  128000      127.987    360.31345    14.810586   -445.51745   -430.70687    3080.9722   -6905.6503   -13217.092    29365.659    15.615102    13.523025    25.789233    5445.7423 
  128500      128.487    356.82761    14.667301   -445.35024   -430.68294    4729.9129   -4038.2417   -6272.3405    24500.321    15.615104    13.523027    25.789216    5445.7403 
  129000      128.987    383.79999    15.775994    -446.4364   -430.66041    4335.7846   -5656.2625    -7145.923    25809.539    15.615106    13.523029    25.789198    5445.7382 
  129500      129.487    370.66143    15.235937   -445.87229   -430.63635    4629.6863   -3873.3325   -7413.2969    25175.688    15.615109    13.523031    25.789181    5445.7362 
  130000      129.987    381.01023    15.661321   -446.27488   -430.61356    2881.0313   -8540.0215   -9146.3266    26329.442    15.615111    13.523033    25.789163    5445.7341 
  130500      130.487    379.69673     15.60733   -446.19658   -430.58925    4186.0105   -7250.7855    -6152.197    25961.014    15.615113    13.523035    25.789146    5445.7321 
  131000      130.987     367.5126    15.106505    -445.6728    -430.5663      3466.17   -6477.7673   -6111.5016    22987.779    15.615116    13.523037    25.789129    5445.7301 
  131500      131.487    393.77513    16.186019   -446.72982    -430.5438    4576.9757   -7809.1282   -7432.7459    28972.801    15.615118    13.523039    25.789111     5445.728 
  132000      131.987    407.56633    16.752903   -447.27303   -430.52013    2246.1775   -8956.3094   -9667.2018    25362.044     15.61512    13.523041    25.789094     5445.726 
  132500      132.487     372.0523    15.293108   -445.78943   -430.49632    3536.3118   -7203.5028   -4703.1755    22515.614    15.615123    13.523043    25.789076    5445.7239 
  133000      132.987    378.93244    15.575914   -446.04911   -430.47319    3281.9993   -8443.5771    -6921.531    25211.106    15.615125    13.523045    25.789059    5445.7219 
  133500      133.487    392.83995    16.147578   -446.59605   -430.44848    4229.0748   -5037.1006   -5968.5401    23692.865    15.615127    13.523047    25.789041    5445.7199 
  134000      133.987    369.79622    15.200372   -445.62513   -430.42476     3256.282   -5986.6126   -6064.7805    21820.239     15.61513    13.523049    25.789024    5445.7178 
  134500      134.487    386.68073    15.894406   -446.29608   -430.40167    3086.4696   -6232.8932   -8363.2917    23855.594    15.615132    13.523051    25.789006    5445.7158 
  135000      134.987    373.34321     15.34617   -445.72424   -430.37807    3767.5839   -10056.973   -7938.7589    29298.484    15.615134    13.523053    25.788989    5445.7137 
  135500      135.487    386.42078     15.88372   -446.23877   -430.35505    3239.4776   -5502.5912    -8298.537    23519.561    15.615137    13.523055    25.788972    5445.7117 
  136000      135.987    385.33387    15.839043   -446.17013   -430.33109    4899.7681   -6178.1935   -6273.8914    27151.389    15.615139    13.523058    25.788954    5445.7097 
  136500      136.487    387.91927    15.945315   -446.25208   -430.30677    3140.9121   -8734.7257   -5618.7833    23776.245    15.615141     13.52306    25.788937    5445.7076 
  137000      136.987    377.06261    15.499055   -445.78126    -430.2822    3997.9903   -6271.9094   -7029.5006    25295.381    15.615144    13.523062    25.788919    5445.7056 
  137500      137.487    379.10906    15.583174   -445.84171   -430.25854    3362.1192   -6903.1087   -6824.8712    23814.338    15.615146    13.523064    25.788902    5445.7035 
  138000      137.987    373.08245    15.335452   -445.56959   -430.23414    3668.1416    -4448.462    -8532.117    23985.004    15.615149    13.523066    25.788884    5445.7015 
  138500      138.487    386.37417    15.881804   -446.09322   -430.21142    2106.4065   -7982.9484   -10804.507    25106.675    15.615151    13.523068    25.788867    5445.6995 
  139000      138.987     370.0768    15.211906   -445.39886   -430.18695    3397.2875   -7315.5527   -7262.7327    24770.148    15.615153     13.52307    25.788849    5445.6974 
  139500      139.487    375.61013    15.439351   -445.60252   -430.16317    4193.2701   -5097.9392   -8621.3641    26299.113    15.615156    13.523072    25.788832    5445.6954 
  140000      139.987     387.7201    15.937129   -446.07574   -430.13862    3627.5674   -5291.1545    -4812.269    20986.126    15.615158    13.523074    25.788814    5445.6933 
  140500      140.487    388.89498    15.985422   -446.10029   -430.11487    3585.5726   -7941.0746   -8609.1035    27306.896     15.61516    13.523076    25.788797    5445.6913 
  141000      140.987    409.27798    16.823259    -446.9144   -430.09114    2671.0098   -8740.3185   -9626.6554    26380.003    15.615163    13.523078     25.78878    5445.6893 
  141500      141.487    381.60263    15.685671   -445.75235   -430.06668    3753.9231   -5679.4539   -9581.4777    26522.701    15.615165     13.52308    25.788762    5445.6872 
  142000      141.987    404.63827    16.632545   -446.67493   -430.04239    4014.8821   -3652.4163   -8595.2765    24292.339    15.615167    13.523082    25.788745    5445.6852 
  142500      142.487     386.0852    15.869926   -445.88799   -430.01807    3910.3193   -7625.9462   -7810.3977    27167.302     15.61517    13.523084    25.788727    5445.6831 
  143000      142.987    388.72948    15.978619   -445.97258   -429.99396    4474.7572   -5598.9665   -7616.7463    26639.984    15.615172    13.523086     25.78871    5445.6811 
  143500      143.487    389.97289    16.029729   -446.00005   -429.97032    4127.4138   -4956.2287   -7990.3057    25328.776    15.615174    13.523088    25.788692    5445.6791 
  144000      143.987    397.41958    16.335823   -446.28074   -429.94491    3030.5373   -7732.9697   -6826.2984     23650.88    15.615177     13.52309    25.788675     5445.677 
  144500      144.487    378.04656      15.5395   -445.46019   -429.92069    5310.3252   -5799.3474   -7177.2676    28907.591    15.615179    13.523092    25.788657     5445.675 
  145000      144.987    386.68075    15.894406   -445.79119   -429.89678      3301.06   -3198.1189   -12058.027    25159.326    15.615181    13.523094     25.78864    5445.6729 
  145500      145.487    377.97095    15.536392    -445.4088   -429.87241    3712.1746   -6055.3792   -7905.6133    25097.516    15.615184    13.523096    25.788623    5445.6709 
  146000      145.987    394.58638    16.219365   -446.06773   -429.84836    4524.1432   -4885.7357   -8447.2319    26905.397    15.615186    13.523099    25.788605    5445.6689 
  146500      146.487    388.60262    15.973404   -445.79621   -429.82281     2560.217   -7164.0319   -7957.0391    22801.722    15.615188    13.523101    25.788588    5445.6668 
  147000      146.987    357.62428    14.700048   -444.49789   -429.79784    5541.6195   -5331.1276   -7695.7741     29651.76    15.615191    13.523103     25.78857    5445.6648 
  147500      147.487    372.06624    15.293681   -445.06746   -429.77378    3874.7441   -6280.0812    -5401.875    23306.189    15.615193    13.523105    25.788553    5445.6627 
  148000      147.987    396.73282    16.307594   -446.05665   -429.74905     2964.123   -8907.6305   -6661.2381    24461.237    15.615196    13.523107    25.788535    5445.6607 
  148500      148.487    371.31987    15.263002   -444.98841   -429.72541    3993.6875    -6654.332   -5822.4874    24457.882    15.615198    13.523109    25.788518    5445.6587 
  149000      148.987    405.02358    16.648383   -446.34997   -429.70159      4551.89   -3063.6047   -8875.0625    25594.337      15.6152    13.523111      25.7885    5445.6566 
  149500      149.487     389.0318    15.991046   -445.66675   -429.67571    3543.6452    -7108.779   -7792.3338    25532.048    15.615203    13.523113    25.788483    5445.6546 
  150000      149.987    380.28696    15.631591   -445.28257   -429.65098    4793.7938   -7971.1508   -1887.2498    24239.782    15.615205    13.523115    25.788465    5445.6525 
  150500      150.487     379.5035    15.599387   -445.22653   -429.62715    2899.1259   -8459.1196   -1856.5315    19013.029    15.615207    13.523117    25.788448    5445.6505 
  151000      150.987    382.86596    15.737601   -445.34019   -429.60259     3165.511   -4871.3303   -9015.2092    23383.072     15.61521    13.523119    25.788431    5445.6485 
  151500      151.487     387.0265    15.908618   -445.48729   -429.57867    5339.3706   -2187.1574   -8146.7203     26351.99    15.615212    13.523121    25.788413    5445.6464 
  152000      151.987    369.42411    15.185077   -444.73764   -429.55256    5053.5406    -4691.931   -6831.7942    26684.347    15.615214    13.523123    25.788396    5445.6444 
  152500      152.487    410.93062    16.891191   -446.42068   -429.52949    5045.6118   -4567.4395   -7243.9284    26948.203    15.615217    13.523125    25.788378    5445.6423 
  153000      152.987    396.33127    16.291088   -445.79521   -429.50412      2958.71   -8658.6384   -6546.0205    24080.789    15.615219    13.523127    25.788361    5445.6403 
  153500      153.487    387.46329    15.926572   -445.40673   -429.48015    3960.8455   -8333.2089   -8583.9373    28799.683    15.615221    13.523129    25.788343    5445.6383 
  154000      153.987    381.58459     15.68493   -445.14049   -429.45556    4767.2822   -4322.4245   -7674.1195     26298.39    15.615224    13.523131    25.788326    5445.6362 
  154500      154.487    384.75186     15.81512    -445.2457   -429.43059     4060.741   -6491.0923   -6857.0685    25530.384    15.615226    13.523133    25.788308    5445.6342 
  155000      154.987     411.2459     16.90415   -446.31085    -429.4067    2200.4208   -7903.8371   -9089.8584    23594.958    15.615228    13.523135    25.788291    5445.6321 
  155500      155.487    411.77268    16.925803   -446.30717   -429.38137    2401.9124   -6160.8577   -10237.343    23603.938    15.615231    13.523137    25.788274    5445.6301 
  156000      155.987    407.18109    16.737067   -446.09395   -429.35688    2740.2093   -6833.1736   -10342.741    25396.542    15.615233     13.52314    25.788256    5445.6281 
  156500      156.487    393.24174    16.164094    -445.4966   -429.33251    4654.9802   -5557.0859   -4449.9159    23971.942    15.615235    13.523142    25.788239     5445.626 
  157000      156.987    368.44165    15.144693   -444.45248   -429.30778    4841.3089   -5040.1113    -9663.891    29227.929    15.615238    13.523144    25.788221     5445.624 
  157500      157.487    398.80472    16.392759   -445.67619   -429.28343    2312.6317   -7662.8373   -7410.6085    22011.341     15.61524    13.523146    25.788204    5445.6219 
  158000      157.987    368.17747    15.133834   -444.39059   -429.25675     4642.041   -6175.8955   -6536.3758    26638.394    15.615243    13.523148    25.788186    5445.6199 
  158500      158.487     381.6156    15.686205   -444.91867   -429.23247    4147.6863   -6110.2142    -8387.884    26941.157    15.615245     13.52315    25.788169    5445.6179 
  159000      158.987    402.52899    16.545844   -445.75356   -429.20772    3343.3064   -6027.1933    -8871.891    24929.003    15.615247    13.523152    25.788151    5445.6158 
  159500      159.487    395.49343    16.256649   -445.43991   -429.18326    4635.3008   -5805.7711   -2386.3265        22098     15.61525    13.523154    25.788134    5445.6138 
  160000      159.987    404.38123     16.62198   -445.78085   -429.15887    3536.2111   -5537.8765   -7816.7762    23963.286    15.615252    13.523156    25.788116    5445.6117 
  160500      160.487    399.75583    16.431854   -445.56582   -429.13397    2087.2187   -7582.1554   -6935.9698    20779.781    15.615254    13.523158    25.788099    5445.6097 
  161000      160.987    386.49067    15.886593    -444.9953   -429.10871    4132.2572   -4084.2086   -7214.1874    23695.168    15.615257     13.52316    25.788082    5445.6077 
  161500      161.487    390.65547    16.057786   -445.14164   -429.08386    3614.2876   -5269.9311   -8323.7943    24436.588    15.615259    13.523162    25.788064    5445.6056 
  162000      161.987    393.67034    16.181711   -445.24118   -429.05947    2961.8384   -8434.1498     -7603.76    24923.425    15.615261    13.523164    25.788047    5445.6036 
  162500      162.487    405.72634     16.67727   -445.71094   -429.03367    4904.4501   -648.27571   -5647.3696    21008.996    15.615264    13.523166    25.788029    5445.6015 
  163000      162.987    404.37372    16.621671   -445.63097    -429.0093    4286.5933   -4340.3127    -11007.39    28207.483    15.615266    13.523168    25.788012    5445.5995 
  163500      163.487    390.42027    16.048118   -445.03188   -428.98376    3187.5501   -8627.6089   -9986.8858    28177.145    15.615268     13.52317    25.787994    5445.5975 
  164000      163.987     395.8507    16.271335   -445.22957   -428.95823    4463.7783   -5284.6339   -10749.416    29425.385    15.615271    13.523172    25.787977    5445.5954 
  164500      164.487    387.14618    15.913538   -444.84647   -428.93294     5727.948   -2173.4207    -8387.308    27744.573    15.615273    13.523174    25.787959    5445.5934 
  165000      164.987    411.44657    16.912399   -445.82124   -428.90884    5219.8153   -5807.1928   -6913.0827    28379.722    15.615275    13.523176    25.787942    5445.5914 
  165500      165.487    389.99436    16.030611   -444.91438   -428.88376     4927.476   -3885.9462   -6766.4057     25434.78    15.615278    13.523178    25.787925    5445.5893 
  166000      165.987    388.27148    15.959793   -444.81841   -428.85862    3158.7068   -6929.0721   -5761.3442    22166.537     15.61528    13.523181    25.787907    5445.5873 
  166500      166.487    417.11586    17.145433   -445.97942   -428.83399    4254.5561   -3579.5556   -4097.4177    20440.642    15.615282    13.523183     25.78789    5445.5852 
  167000      166.987      394.345    16.209443   -445.01702   -428.80757      4767.05   -7711.1625   -1548.7205    23561.033    15.615285    13.523185    25.787872    5445.5832 
  167500      167.487    382.80062    15.734914   -444.51777   -428.78286    4941.3144   -5090.3899   -6564.9395    26479.273    15.615287    13.523187    25.787855    5445.5812 
  168000      167.987    393.49111    16.174344   -444.93277   -428.75842    4868.4891   -6670.6114   -7148.2298    28424.308     15.61529    13.523189    25.787837    5445.5791 
  168500      168.487    423.58347    17.411283   -446.14619   -428.73491    3105.4497   -7497.3597   -7028.0273    23841.736    15.615292    13.523191     25.78782    5445.5771 
  169000      168.987    388.10699    15.953032   -444.66247   -428.70944    2595.3441    -9268.554   -10187.793    27242.379    15.615294    13.523193    25.787802     5445.575 
  169500      169.487    410.81348    16.886375   -445.57085   -428.68448    3474.6918   -4016.5981   -10316.617    24757.291    15.615297    13.523195    25.787785     5445.573 
  170000      169.987    416.78264    17.131736   -445.79048   -428.65874    5528.5729   -5157.0751   -4368.2813    26111.075    15.615299    13.523197    25.787767     5445.571 
  170500      170.487    402.18905    16.531871    -445.1652   -428.63333    5058.2902   -3519.7338   -7259.3107    25953.915    15.615301    13.523199     25.78775    5445.5689 
  171000      170.987    404.74109    16.636772   -445.24474   -428.60797    5379.8438   -2549.3147   -2746.5411    21435.387    15.615304    13.523201    25.787733    5445.5669 
  171500      171.487    389.60598    16.014647   -444.59663   -428.58198     3891.283   -5753.6822   -6406.0023    23833.533    15.615306    13.523203    25.787715    5445.5648 
  172000      171.987    375.61702    15.439635   -443.99649   -428.55686    5069.9152   -6754.9166   -5794.9088    27759.571    15.615308    13.523205    25.787698    5445.5628 
  172500      172.487     399.2432    16.410782   -444.94258    -428.5318    3787.1802   -6460.8612   -5953.9787    23776.381    15.615311    13.523207     25.78768    5445.5608 
  173000      172.987    409.97493    16.851907   -445.35831   -428.50641    4143.5561   -5254.4843   -8628.4466    26313.599    15.615313    13.523209    25.787663    5445.5587 
  173500      173.487    411.69619    16.922659   -445.40353   -428.48087    3928.6624   -6247.1701   -7799.5004    25832.658    15.615315    13.523211    25.787645    5445.5567 
  174000      173.987    416.83765    17.133997   -445.58916   -428.45517    3899.3832   -4168.5079   -7943.8071    23810.465    15.615318    13.523213    25.787628    5445.5546 
  174500      174.487    408.05933    16.773167   -445.20234   -428.42917    4981.8931   -4709.7947   -5393.5252    25048.999     15.61532    13.523215     25.78761    5445.5526 
  175000      174.987    401.48872    16.503084   -444.90622   -428.40314    4694.4838   -3125.2157   -7621.0126    24829.679    15.615322    13.523217    25.787593    5445.5506 
  175500      175.487    401.96671    16.522732   -444.89978   -428.37705    4757.2355   -5204.7569   -6548.4076    26024.871    15.615325    13.523219    25.787576    5445.5485 
  176000      175.987    407.37906    16.745205   -445.09682   -428.35162    4152.0781   -6489.2446   -6729.3459    25674.825    15.615327    13.523222    25.787558    5445.5465 
  176500      176.487    390.80563    16.063959   -444.38991   -428.32595    3828.5892   -6514.3456   -7853.7077    25853.821    15.615329    13.523224    25.787541    5445.5444 
  177000      176.987    418.13606    17.187368   -445.48781   -428.30044    3627.9685   -8111.7457   -5625.6088     24621.26    15.615332    13.523226    25.787523    5445.5424 
  177500      177.487    409.44135    16.829974   -445.10527    -428.2753    4077.5953   -5915.5673   -8332.1513    26480.505    15.615334    13.523228    25.787506    5445.5404 
  178000      177.987    405.18592    16.655056   -444.90373   -428.24867    5664.2003   -2564.9367   -6143.5219    25701.059    15.615337     13.52323    25.787488    5445.5383 
  178500      178.487    401.03617    16.484482   -444.70679    -428.2223    4568.7894   -4772.1222   -10240.633    28719.124    15.615339    13.523232    25.787471    5445.5363 
  179000      178.987    436.81659    17.955226   -446.15163    -428.1964    4025.8304   -3716.3842   -9295.7876    25089.663    15.615341    13.523234    25.787453    5445.5342 
  179500      179.487    419.61924    17.248334   -445.41838   -428.17005    3672.5255   -6591.8034   -5761.4682    23370.848    15.615344    13.523236    25.787436    5445.5322 
  180000      179.987    411.03198    16.895357   -445.03853   -428.14317    4809.7917   -6834.4417    -9603.205    30867.022    15.615346    13.523238    25.787418    5445.5302 
  180500      180.487    410.34387    16.867072   -444.98533   -428.11825    4380.0647   -3044.1789   -6387.3909    22571.764    15.615348     13.52324    25.787401    5445.5281 
  181000      180.987    407.73706     16.75992   -444.85199   -428.09207    3720.2233   -7804.3657   -3661.9326    22626.968    15.615351    13.523242    25.787384    5445.5261 
  181500      181.487    412.28524    16.946872   -445.01312   -428.06624    3810.6825   -6980.4283   -7301.6182    25714.094    15.615353    13.523244    25.787366     5445.524 
  182000      181.987    400.67374    16.469584   -444.51048   -428.04089    4091.8832   -7685.5159   -8098.0365    28059.202    15.615355    13.523246    25.787349     5445.522 
  182500      182.487    402.66476    16.551425   -444.56605   -428.01463    4926.8273   -6038.7982   -4557.8869    25377.167    15.615358    13.523248    25.787331      5445.52 
  183000      182.987    407.11091    16.734183   -444.72277   -427.98859    4425.5711   -7015.8021   -7463.8384    27756.354     15.61536     13.52325    25.787314    5445.5179 
  183500      183.487      431.298    17.728386   -445.69176   -427.96337    4373.4046   -7788.3482   -9359.4685     30268.03    15.615362    13.523252    25.787296    5445.5159 
  184000      183.987    414.17425    17.024519   -444.96124   -427.93672    5201.3924   -5455.0982   -7267.5531    28326.829    15.615365    13.523254    25.787279    5445.5138 
  184500      184.487    398.07947    16.362948   -444.27314    -427.9102    4203.6294   -5308.5711   -7613.8715    25533.331    15.615367    13.523256    25.787261    5445.5118 
  185000      184.987    401.43962    16.501066    -444.3852   -427.88414    4601.1353   -6510.4536   -9061.3607     29375.22    15.615369    13.523258    25.787244    5445.5098 
  185500      185.487    391.14481      16.0779   -443.93574   -427.85784    4049.3928   -5996.7132   -9224.0548    27368.946    15.615372     13.52326    25.787227    5445.5077 
  186000      185.987    409.18823     16.81957   -444.65154   -427.83197    4891.9117    -2882.983   -5953.1358    23511.854    15.615374    13.523263    25.787209    5445.5057 
  186500      186.487    410.14565    16.858925   -444.66506   -427.80613    5574.4762   -5058.9544   -3696.0913    25478.474    15.615376    13.523265    25.787192    5445.5036 
  187000      186.987    402.44374     16.54234   -444.32216   -427.77982    5948.4064   -3358.3355    -5903.178    27106.733    15.615379    13.523267    25.787174    5445.5016 
  187500      187.487    434.28284    17.851077   -445.60565   -427.75457    4312.0811   -4625.6038   -9193.4997    26755.347    15.615381    13.523269    25.787157    5445.4996 
  188000      187.987    418.03627    17.183266   -444.91182   -427.72855    4245.8562    -6712.392   -8614.4156    28064.376    15.615384    13.523271    25.787139    5445.4975 
  188500      188.487    399.06739    16.403556   -444.10578   -427.70223    6039.4522   -6068.4553   -6461.2399    30648.052    15.615386    13.523273    25.787122    5445.4955 
  189000      188.987    412.89996     16.97214   -444.64821   -427.67607    5924.1949   -4595.4799   -6019.2159     28387.28    15.615388    13.523275    25.787104    5445.4934 
  189500      189.487    430.58109    17.698918   -445.34967   -427.65075    4031.4505   -5799.9102   -8310.1245    26204.386    15.615391    13.523277    25.787087    5445.4914 
  190000      189.987    395.33588    16.250173   -443.87427    -427.6241    6121.2973   -6958.3856    -3130.452    28452.729    15.615393    13.523279    25.787069    5445.4894 
  190500      190.487    421.18643    17.312753   -444.91059   -427.59784    4515.2547   -5878.2498   -4938.9808    24362.995    15.615395    13.523281    25.787052    5445.4873 
  191000      190.987    407.49096    16.749804   -444.31976   -427.56995    4686.2284   -2889.8364   -7980.8033    24929.325    15.615398    13.523283    25.787035    5445.4853 
  191500      191.487    396.14894    16.283594   -443.82618   -427.54259    4869.0772   -1840.0859   -9441.4337    25888.751      15.6154    13.523285    25.787017    5445.4832 
  192000      191.987    422.09443    17.350076   -444.86657    -427.5165    4849.8525    -5213.511   -5056.1345    24819.203    15.615402    13.523287       25.787    5445.4812 
  192500      192.487    411.46436     16.91313   -444.40342   -427.49029    4957.1148   -5936.2887   -7798.2669      28605.9    15.615405    13.523289    25.786982    5445.4792 
  193000      192.987    412.45446    16.953828   -444.41826   -427.46444    4369.2802   -4365.4139   -9505.1769    26978.431    15.615407    13.523291    25.786965    5445.4771 
  193500      193.487    429.11475    17.638644   -445.07664   -427.43799    3420.0755   -4944.2581   -7101.1099    22305.595    15.615409    13.523293    25.786947    5445.4751 
  194000      193.987     416.1195    17.104478   -444.51627   -427.41179    5071.3764    -2963.211   -8372.5435    26549.884    15.615412    13.523295     25.78693     5445.473 
  194500      194.487    431.62681    17.741902   -445.12664   -427.38474    2921.5881   -6468.9973     -9588.53    24822.292    15.615414    13.523297    25.786912     5445.471 
  195000      194.987    405.83788    16.681855   -444.03902   -427.35717    5312.2812   -2090.5298   -7404.8011    25432.174    15.615416    13.523299    25.786895     5445.469 
  195500      195.487    417.89554    17.177482    -444.5092   -427.33172    5829.4955   -4672.7585   -6340.4193    28501.664    15.615419    13.523301    25.786878    5445.4669 
  196000      195.987    420.76247    17.295326   -444.60159   -427.30627    3675.2594   -4745.6302   -9064.3949    24835.803    15.615421    13.523304     25.78686    5445.4649 
  196500      196.487    434.42031    17.856728   -445.13708   -427.28035    4341.4724   -3314.9542   -8048.4777    24387.849    15.615423    13.523306    25.786843    5445.4628 
  197000      196.987    412.78318    16.967339   -444.22069   -427.25335    4922.8295   -5347.9283   -5857.2323    25973.649    15.615426    13.523308    25.786825    5445.4608 
  197500      197.487    434.46673    17.858636   -445.08615   -427.22751    3802.8016   -7424.6927   -5453.5254    24286.623    15.615428     13.52331    25.786808    5445.4588 
  198000      197.987    417.75236    17.171596   -444.37223   -427.20063    4577.5528   -5721.4604    -6044.844    25498.963    15.615431    13.523312     25.78679    5445.4567 
  198500      198.487    426.64537    17.537141   -444.71051   -427.17337    3862.5064   -7506.1403   -7918.3909     27012.05    15.615433    13.523314    25.786773    5445.4547 
  199000      198.987     433.9614    17.837864   -444.98617   -427.14831    4057.8988   -5741.2271    -10067.18    27982.103    15.615435    13.523316    25.786755    5445.4526 
  199500      199.487    423.81094    17.420633   -444.54284   -427.12221    4703.6357   -6179.8966   -6275.3707    26566.175    15.615438    13.523318    25.786738    5445.4506 
  200000      199.987    432.37468    17.772643     -444.868   -427.09535    4536.4949   -2741.9992   -8713.9266     25065.41     15.61544     13.52332     25.78672    5445.4486 
  200500      200.487    424.12871    17.433694   -444.50114   -427.06744    5137.8837   -8609.3139   -5100.4333    29123.398    15.615442    13.523322    25.786703    5445.4465 
  201000      200.987    417.82738     17.17468   -444.21488    -427.0402    4518.2087    -5065.957   -5985.0061    24605.589    15.615445    13.523324    25.786686    5445.4445 
  201500      201.487    417.29807    17.152923   -444.16622    -427.0133    5630.5449    -6212.899   -2672.1288    25776.663    15.615447    13.523326    25.786668    5445.4424 
  202000      201.987    409.76984    16.843477   -443.83145   -426.98797    5864.5024    -5351.554   -2325.6556    25270.717    15.615449    13.523328    25.786651    5445.4404 
  202500      202.487    427.04661    17.553634   -444.51479   -426.96115    5688.9876   -6861.4832   -5447.9209    29376.367    15.615452     13.52333    25.786633    5445.4384 
  203000      202.987    420.99269    17.304789   -444.23875   -426.93396    3748.3115   -5860.9002   -8813.3281    25919.163    15.615454    13.523332    25.786616    5445.4363 
  203500      203.487    430.38546    17.690877    -444.5977   -426.90683    5095.7914    -5488.177   -3832.9561    24608.507    15.615456    13.523334    25.786598    5445.4343 
  204000      203.987    421.48417    17.324991   -444.20631   -426.88131    4526.8557   -3670.4873   -7172.5647    24423.619    15.615459    13.523336    25.786581    5445.4322 
  204500      204.487    412.14833    16.941244   -443.79445   -426.85321    4797.9573   -5236.8083   -8952.6928    28583.373    15.615461    13.523338    25.786563    5445.4302 
  205000      204.987    445.23573    18.301293   -445.12868   -426.82739       3997.1   -5460.1838    -7220.984    24672.468    15.615463     13.52334    25.786546    5445.4282 
  205500      205.487    433.87679    17.834387   -444.63504   -426.80065     5344.394   -3907.9784   -4633.9454    24575.106    15.615466    13.523342    25.786529    5445.4261 
  206000      205.987    445.20071    18.299853   -445.07259   -426.77274    4241.6736   -5189.8952   -6311.4914    24226.407    15.615468    13.523345    25.786511    5445.4241 
  206500      206.487    409.68256     16.83989    -443.5858   -426.74591    5457.5125   -1335.2092    -9363.623     27071.37     15.61547    13.523347    25.786494     5445.422 
  207000      206.987     438.9769    18.044025   -444.76339   -426.71937    4443.1794   -6417.6437   -9269.4184      29016.6    15.615473    13.523349    25.786476      5445.42 
  207500      207.487    420.42556    17.281478   -443.97344   -426.69196    3895.5696   -4606.6816   -8854.9971    25148.387    15.615475    13.523351    25.786459     5445.418 
  208000      207.987    407.99203    16.770401   -443.43547   -426.66507    5819.8712   -3337.7312   -6059.7649     26857.11    15.615478    13.523353    25.786441    5445.4159 
  208500      208.487    428.53837    17.614952   -444.25426   -426.63931    5382.6284   -6568.7333   -4617.9171    27334.536     15.61548    13.523355    25.786424    5445.4139 
  209000      208.987    418.08919    17.185441     -443.796   -426.61055    5753.9348   -4475.7986   -6932.3414    28669.944    15.615482    13.523357    25.786406    5445.4118 
  209500      209.487    436.46634    17.940829   -444.52396   -426.58313    5165.1143   -3776.8464   -8684.2496    27956.439    15.615485    13.523359    25.786389    5445.4098 
  210000      209.987    448.55197    18.437606    -444.9937    -426.5561    4176.1527   -8693.8886   -2681.4199    23903.767    15.615487    13.523361    25.786371    5445.4078 
  210500      210.487    411.96501    16.933709   -443.46108   -426.52737    5167.8279   -6986.2094   -7221.8434    29711.537    15.615489    13.523363    25.786354    5445.4057 
  211000      210.987    417.64243    17.167078   -443.66878    -426.5017    3659.9629   -8027.5866   -7301.3941    26308.869    15.615492    13.523365    25.786337    5445.4037 
  211500      211.487    437.43743    17.980746   -444.45493   -426.47419    5054.8294   -7977.8876   -1945.3103    25087.686    15.615494    13.523367    25.786319    5445.4016 
  212000      211.987    425.23754    17.479273   -443.92605   -426.44678    6210.4541   -3993.9993   -5055.9703    27681.332    15.615496    13.523369    25.786302    5445.3996 
[...]
  948500      948.487    573.28688      23.5648   -438.62816   -415.06336    9892.9423   -3424.9264    1401.1905    31702.563    15.618958    13.526389    25.760598    5442.3925 
  949000      948.987    550.31554    22.620569   -437.68192   -415.06135    13016.375    4366.3826    924.29881    33758.443     15.61896    13.526391     25.76058    5442.3904 
  949500      949.487    564.21276    23.191811   -438.24897   -415.05716    11198.618   -911.90296   -827.80987    35335.566    15.618963    13.526393    25.760563    5442.3884 
  950000      949.987    583.57625    23.987742   -439.04669   -415.05895    9309.7854    589.15174     -2647.63    29987.834    15.618965    13.526395    25.760545    5442.3863 
  950500      950.487    558.16754    22.943324   -437.99986   -415.05654    10200.867   -4624.7885   -396.10771    35623.496    15.618967    13.526397    25.760528    5442.3843 
  951000      950.987    598.27001    24.591725   -439.64717   -415.05545    9072.5994   -3310.7781   -1525.8903    32054.466     15.61897    13.526399    25.760511    5442.3823 
  951500      951.487    541.95621    22.276962   -437.33112   -415.05416    11088.842    1583.1495   -2282.6637    33966.041    15.618972    13.526401    25.760493    5442.3802 
  952000      951.987    561.09636    23.063712   -438.11497   -415.05126    9102.7641   -2977.2214   -3534.1393    33819.653    15.618974    13.526403    25.760476    5442.3782 
  952500      952.487     570.6796    23.457629   -438.50917   -415.05154    8727.8726    -1489.596   -1494.0726    29167.286    15.618977    13.526405    25.760458    5442.3761 
  953000      952.987    558.74406    22.967022   -438.01434   -415.04732    12386.311    1312.5071    356.40572     35490.02    15.618979    13.526407    25.760441    5442.3741 
  953500      953.487    577.16708    23.724295   -438.76992   -415.04563    9025.9441   -8515.1673    1206.5197     34386.48    15.618981    13.526409    25.760423     5442.372 
  954000      953.987    570.43275    23.447482   -438.48943   -415.04195    9718.2109    584.53739   -4145.5996    32715.695    15.618984    13.526411    25.760406      5442.37 
  954500      954.487    539.16482    22.162222   -437.20237   -415.04015    11606.504   -3057.2639    173.38445    37703.393    15.618986    13.526413    25.760388     5442.368 
  955000      954.987    581.34591    23.896064   -438.93631   -415.04025    10335.935   -1383.1127    1548.8403    30842.077    15.618988    13.526415    25.760371    5442.3659 
  955500      955.487    590.80404    24.284838   -439.32153   -415.03669    10430.967    393.43695   -2060.5624    32960.025    15.618991    13.526417    25.760354    5442.3639 
  956000      955.987    583.57714    23.987779   -439.02148    -415.0337    10050.948   -4414.8708    3038.6019    31529.112    15.618993     13.52642    25.760336    5442.3618 
  956500      956.487    593.26397    24.385953   -439.41596   -415.03001    9394.7598   -1681.5866   -4138.7095    34004.575    15.618995    13.526422    25.760319    5442.3598 
  957000      956.987    542.03095    22.280034   -437.30557   -415.02553    10919.083   -2129.8206    1389.7982     33497.27    15.618998    13.526424    25.760301    5442.3577 
  957500      957.487     556.9354    22.892677   -437.91646   -415.02379    11398.732   -1658.9422    1237.3958    34617.741       15.619    13.526426    25.760284    5442.3557 
  958000      957.987    552.50796    22.710688   -437.72955   -415.01886    10973.003    -3339.211    -1947.027    38205.246    15.619003    13.526428    25.760266    5442.3537 
  958500      958.487    574.69672    23.622751   -438.63976   -415.01701    10997.503   -5237.6755   -2308.7177    40538.902    15.619005     13.52643    25.760249    5442.3516 
  959000      958.987    567.23736    23.316136   -438.32924   -415.01311    10920.769   -1345.4712   -379.84228    34487.619    15.619007    13.526432    25.760231    5442.3496 
  959500      959.487    588.74155     24.20006   -439.21212   -415.01206    11422.989    511.26636    -1637.239    35394.939     15.61901    13.526434    25.760214    5442.3475 
  960000      959.987    573.03724    23.554539   -438.56248   -415.00794    10083.436   -30.518009    1690.2232    28590.603    15.619012    13.526436    25.760196    5442.3455 
  960500      960.487    561.10502    23.064068   -438.06856   -415.00449    10531.656    -2489.777    904.92815    33179.818    15.619014    13.526438    25.760179    5442.3434 
  961000      960.987    534.89014    21.986513   -436.98603   -414.99952    11023.769   -2270.8364     1675.875     33666.27    15.619017     13.52644    25.760162    5442.3414 
  961500      961.487    561.82056     23.09348   -438.08916   -414.99568    10402.218    160.34927    41.797095    31004.507    15.619019    13.526442    25.760144    5442.3394 
  962000      961.987    575.01123    23.635679   -438.62819   -414.99251    11019.713    809.04846    2418.3166    29831.775    15.619021    13.526444    25.760127    5442.3373 
  962500      962.487    567.58354    23.330366   -438.32092   -414.99055    10094.655   -1147.1338    2319.2834    29111.814    15.619024    13.526446    25.760109    5442.3353 
  963000      962.987    589.04435    24.212507   -439.20153   -414.98902    10166.854   -1407.8397   -2169.9408    34078.341    15.619026    13.526448    25.760092    5442.3332 
  963500      963.487    561.00268    23.059862   -438.04327   -414.98341    9785.8013   -1891.4025   -3631.3911    34880.198    15.619028     13.52645    25.760074    5442.3312 
  964000      963.987    531.01384    21.827178   -436.80808    -414.9809    12326.741    1341.9917    -1019.507    36657.739    15.619031    13.526452    25.760057    5442.3291 
  964500      964.487    592.52065    24.355399   -439.33564   -414.98024     8758.079   -1426.7184   -5975.3351     33676.29    15.619033    13.526454    25.760039    5442.3271 
  965000      964.987    545.74328    22.432628   -437.41153    -414.9789    10308.436   -1404.5908   -1645.5143    33975.412    15.619035    13.526456    25.760022    5442.3251 
  965500      965.487    577.99686    23.758403   -438.73535   -414.97695     8957.999   -4738.8995    1103.9527    30508.944    15.619038    13.526458    25.760005     5442.323 
  966000      965.987    504.90722    20.754073   -435.72568    -414.9716    10313.007   -1699.1217   -2107.5176    34745.659     15.61904    13.526461    25.759987     5442.321 
  966500      966.487     579.5778    23.823387   -438.79155   -414.96816    8862.7169   -4121.2892    -3423.589    34133.029    15.619042    13.526463     25.75997    5442.3189 
  967000      966.987    537.39778    22.089589   -437.05387   -414.96428    10961.302   -2670.3237    1028.7129    34525.516    15.619045    13.526465    25.759952    5442.3169 
  967500      967.487    545.94827    22.441054    -437.4012   -414.96015    12593.045    844.89556    320.57408    36613.665    15.619047    13.526467    25.759935    5442.3148 
  968000      967.987    586.52725    24.109042   -439.06618   -414.95714    9342.2862     -4272.14   -1188.4354    33487.434     15.61905    13.526469    25.759917    5442.3128 
  968500      968.487    581.02709    23.882959   -438.83492   -414.95196    10513.244    696.95615   -2774.1869    33616.964    15.619052    13.526471      25.7599    5442.3108 
  969000      968.987    560.97823    23.058857   -438.00861   -414.94975    11073.876   -2849.3663    502.86752    35568.126    15.619054    13.526473    25.759882    5442.3087 
  969500      969.487     584.7631    24.036527   -438.98286   -414.94633    9973.2637    950.02611   -3641.7613    32611.526    15.619057    13.526475    25.759865    5442.3067 
  970000      969.987    592.45114    24.352542    -439.2979   -414.94536    9948.8205    869.14099   -2786.0857    31763.406    15.619059    13.526477    25.759847    5442.3046 
  970500      970.487    558.47789    22.956081   -437.89584   -414.93976    9989.6812   -3668.7639   -497.66429    34135.472    15.619061    13.526479     25.75983    5442.3026 
  971000      970.987    544.75894    22.392167   -437.32549   -414.93332    12719.399    3655.6372   -1092.9215    35595.482    15.619064    13.526481    25.759813    5442.3005 
  971500      971.487    604.12118    24.832235   -439.76203    -414.9298    10918.019   -353.09416   -5470.5634    38577.715    15.619066    13.526483    25.759795    5442.2985 
  972000      971.987     590.2672    24.262772     -439.187   -414.92423    10387.637   -4875.8843    2505.9164    33532.878    15.619068    13.526485    25.759778    5442.2965 
  972500      972.487    594.77969    24.448256   -439.36725   -414.91899    10575.554    190.92258   -2339.7397    33875.478    15.619071    13.526487     25.75976    5442.2944 
  973000      972.987    543.83773    22.354301   -437.26771   -414.91341     13350.82   -704.64828   -4174.6147    44931.723    15.619073    13.526489    25.759743    5442.2924 
  973500      973.487    551.48572    22.668669   -437.57748   -414.90881    9957.4583   -2802.4207   -1133.6052    33808.401    15.619075    13.526491    25.759725    5442.2903 
  974000      973.987    580.14073    23.846526   -438.75096   -414.90444    10015.458   -3428.9078   -3404.6868    36879.968    15.619078    13.526493    25.759708    5442.2883 
  974500      974.487    580.54756    23.863248    -438.7643   -414.90106    10031.073    1634.5316   -2514.5673    30973.253     15.61908    13.526495     25.75969    5442.2862 
  975000      974.987    561.50038    23.080319   -437.97695   -414.89663    11599.499     345.5513   -1677.1712    36130.117    15.619082    13.526497    25.759673    5442.2842 
  975500      975.487      571.421    23.488104   -438.38255   -414.89445    12611.641    4782.7203   -3050.0615    36102.265    15.619085    13.526499    25.759656    5442.2822 
  976000      975.987     589.0016    24.210749   -439.09997   -414.88922    10937.881     1169.597    427.21623    31216.829    15.619087    13.526502    25.759638    5442.2801 
  976500      976.487    576.24389    23.686347   -438.56857   -414.88222    9782.7247   -2623.8239   -2626.2709    34598.269    15.619089    13.526504    25.759621    5442.2781 
  977000      976.987    555.98533    22.853625   -437.72906   -414.87543    11330.023    189.79887   -3530.3303      37330.6    15.619092    13.526506    25.759603     5442.276 
  977500      977.487    564.99735    23.224061   -438.09516    -414.8711    11226.316   -1609.4935    902.94321    34385.497    15.619094    13.526508    25.759586     5442.274 
  978000      977.987    575.51983    23.656585   -438.52307   -414.86649     12209.52    71.493653   -1816.1771    38373.242    15.619097     13.52651    25.759568    5442.2719 
  978500      978.487    590.21733    24.260722   -439.12388   -414.86315    9475.3061    -2731.031    40.656723    31116.293    15.619099    13.526512    25.759551    5442.2699 
  979000      978.987    561.98756    23.100345   -437.95681   -414.85646    10550.276   -2207.8185    -302.3054    34160.951    15.619101    13.526514    25.759533    5442.2679 
  979500      979.487    572.32873    23.525416   -438.37631   -414.85089    9816.0938   -1137.6753   -3024.3997    33610.356    15.619104    13.526516    25.759516    5442.2658 
  980000      979.987    574.91512    23.631729   -438.47946   -414.84773    10308.164   -3733.3567   -3118.4751    37776.325    15.619106    13.526518    25.759498    5442.2638 
  980500      980.487    580.64023    23.867058   -438.70991   -414.84285    9914.1141   -5336.7642   -3051.8117    38130.918    15.619108     13.52652    25.759481    5442.2617 
  981000      980.987    572.51598    23.533113   -438.36845   -414.83534     11345.67    200.99535   -187.44341    34023.459    15.619111    13.526522    25.759464    5442.2597 
  981500      981.487    575.16822    23.642132   -438.47236   -414.83023    12503.276     3039.632    1569.9948    32900.202    15.619113    13.526524    25.759446    5442.2576 
  982000      981.987    557.69222    22.923786   -437.74874   -414.82495    11295.458   -4023.8493   -1901.5369    39811.759    15.619115    13.526526    25.759429    5442.2556 
  982500      982.487    576.38139    23.691999   -438.51134   -414.81934    11594.746    1867.0733   -5114.1063    38031.272    15.619118    13.526528    25.759411    5442.2536 
  983000      982.987    580.32203    23.853978   -438.66745   -414.81347    10626.441   -1009.4957    873.58565    32015.234     15.61912     13.52653    25.759394    5442.2515 
  983500      983.487    571.75493     23.50183   -438.30986   -414.80803    9582.9109   -1857.8248   -1920.7968    32527.354    15.619122    13.526532    25.759376    5442.2495 
  984000      983.987    571.50637    23.491613   -438.29276   -414.80115    10283.283   -6645.4041    3603.4517    33891.803    15.619125    13.526534    25.759359    5442.2474 
  984500      984.487    570.95907    23.469116   -438.26597   -414.79685    11458.816    1768.0632   -1934.0097    34542.395    15.619127    13.526536    25.759341    5442.2454 
  985000      984.987    594.13743    24.421856   -439.21325   -414.79139    10135.056   -127.39076   -4925.5219     35458.08    15.619129    13.526538    25.759324    5442.2433 
  985500      985.487    548.27306    22.536614   -437.32156   -414.78494    11538.499    143.02537     -1528.17    36000.642    15.619132     13.52654    25.759307    5442.2413 
  986000      985.987    580.33545     23.85453   -438.63128   -414.77675    9922.7091   -336.51564   -2907.7403    33012.383    15.619134    13.526543    25.759289    5442.2392 
  986500      986.487    569.92153    23.426468   -438.19647      -414.77    12105.545    1946.5719   -3764.8422    38134.906    15.619136    13.526545    25.759272    5442.2372 
  987000      986.987    587.45862    24.147326   -438.91258   -414.76525    10810.742   -586.14161   -4518.1146    37536.482    15.619139    13.526547    25.759254    5442.2352 
  987500      987.487    557.86044    22.930701   -437.68695   -414.75624    11544.053   -28.156702   -2932.3508    37592.667    15.619141    13.526549    25.759237    5442.2331 
  988000      987.987    580.39466    23.856964   -438.60848   -414.75151    10805.215    -1168.533   -1510.7829     35094.96    15.619144    13.526551    25.759219    5442.2311 
  988500      988.487     570.1349    23.435239   -438.18054    -414.7453    10582.116    425.21026   -616.55728    31937.694    15.619146    13.526553    25.759202     5442.229 
  989000      988.987    549.54452    22.588877   -437.32695   -414.73807    10668.285   -1954.0709   -1178.9902    35137.917    15.619148    13.526555    25.759184     5442.227 
  989500      989.487    593.68453     24.40324   -439.13449   -414.73125    10338.673    721.32548   -914.32747    31209.021    15.619151    13.526557    25.759167    5442.2249 
  990000      989.987    583.42745    23.981626   -438.70636   -414.72474    11328.961   -1623.6095   -1474.0952    37084.587    15.619153    13.526559    25.759149    5442.2229 
  990500      990.487     585.3374    24.060133   -438.77948   -414.71934    11146.791   -1355.8859    2539.7609    32256.499    15.619155    13.526561    25.759132    5442.2209 
  991000      990.987    569.21734    23.397523   -438.10985   -414.71233    11380.632    1680.9844   -2646.5509    35107.463    15.619158    13.526563    25.759115    5442.2188 
  991500      991.487      577.255    23.727909   -438.43372   -414.70581    11008.737    406.41858    120.72584    32499.067     15.61916    13.526565    25.759097    5442.2168 
  992000      991.987    590.04604    24.253681   -438.95245   -414.69876    11373.744   -61.380652   -4742.0913    38924.703    15.619162    13.526567     25.75908    5442.2147 
  992500      992.487    591.24667    24.303032    -438.9966   -414.69357    10297.577   -2338.4823    4616.7909    28614.423    15.619165    13.526569    25.759062    5442.2127 
  993000      992.987    625.98084    25.730771   -440.41359   -414.68282    9356.1346   -1775.0388    1059.0268    28784.416    15.619167    13.526571    25.759045    5442.2106 
  993500      993.487     597.9835    24.579948   -439.25714    -414.6772    11326.474    324.34581   -760.81834    34415.896    15.619169    13.526573    25.759027    5442.2086 
  994000      993.987    573.96738    23.592772   -438.26208   -414.66931    10281.546    246.53181   -3605.2663    34203.374    15.619172    13.526575     25.75901    5442.2066 
  994500      994.487    582.75965    23.954176   -438.61746   -414.66329    10817.259    -2116.503   -1848.6964    36416.977    15.619174    13.526577    25.758992    5442.2045 
  995000      994.987    567.86274    23.341843   -437.99545   -414.65361     10143.12    175.81291   -1234.7626    31488.311    15.619176    13.526579    25.758975    5442.2025 
  995500      995.487     560.8224    23.052451   -437.69959   -414.64713    11244.419   -3828.0592   -1587.8211    39149.137    15.619179    13.526581    25.758958    5442.2004 
  996000      995.987    600.91718    24.700536   -439.34083    -414.6403    10799.999   -5014.2243   -1670.2877    39084.509    15.619181    13.526584     25.75894    5442.1984 
  996500      996.487    544.45304    22.379593   -437.01254   -414.63294    11398.428    -4128.913    3479.5487    34844.649    15.619183    13.526586    25.758923    5442.1963 
  997000      996.987    556.24812    22.864427   -437.49009   -414.62566    10681.048   -501.53034   -4409.2655    36953.939    15.619186    13.526588    25.758905    5442.1943 
  997500      997.487    603.19253    24.794064   -439.41348   -414.61941    11374.343   -754.20672    297.33638    34579.899    15.619188     13.52659    25.758888    5442.1923 
  998000      997.987    565.14089    23.229962   -437.84251   -414.61255    10355.994   -450.13585    713.34313    30804.773    15.619191    13.526592     25.75887    5442.1902 
  998500      998.487    610.52367    25.095408   -439.70242   -414.60701    10658.511   -468.67222   -1533.7879    33977.992    15.619193    13.526594    25.758853    5442.1882 
  999000      998.987    557.24863    22.905552   -437.50073   -414.59518    11059.247   -463.97757   -2818.6723    36460.391    15.619195    13.526596    25.758835    5442.1861 
  999500      999.487    564.70699    23.212126   -437.80142   -414.58929    12213.871   -2478.5057    75.487587    39044.632    15.619198    13.526598    25.758818    5442.1841 
 1000000      999.987    583.20728    23.972575   -438.55632   -414.58374    11332.886   -3532.3857    25.404506     37505.64      15.6192      13.5266      25.7588     5442.182 
 1000013         1000    586.57134    24.110854   -438.69324   -414.58239    11159.508   -4777.6366    840.71922    37415.443      15.6192      13.5266      25.7588     5442.182 
Loop time of 968.514 on 28 procs for 1000000 steps with 319 atoms

Performance: 89.209 ns/day, 0.269 hours/ns, 1032.510 timesteps/s
87.2% CPU use with 28 MPI tasks x no OpenMP threads

MPI task timing breakdown:
Section |  min time  |  avg time  |  max time  |%varavg| %total
---------------------------------------------------------------
Pair    | 776.48     | 828.16     | 896.04     |  87.3 | 85.51
Neigh   | 0.026647   | 0.038962   | 0.052632   |   3.8 |  0.00
Comm    | 62.461     | 128.92     | 178.56     | 216.1 | 13.31
Output  | 0.10045    | 0.10255    | 0.1227     |   1.2 |  0.01
Modify  | 4.7118     | 6.2175     | 8.1589     |  38.1 |  0.64
Other   |            | 5.07       |            |       |  0.52

Nlocal:    11.3929 ave 16 max 7 min
Histogram: 1 3 1 7 4 3 3 1 4 1
Nghost:    679.214 ave 715 max 652 min
Histogram: 2 2 4 4 7 2 4 1 0 2
Neighs:    725.393 ave 1028 max 448 min
Histogram: 2 2 4 6 2 2 3 2 1 4
FullNghs:  1450.79 ave 2037 max 877 min
Histogram: 1 3 1 7 4 3 3 1 2 3

Total # of neighbors = 40622
Ave neighs/atom = 127.342
Neighbor list builds = 570
Dangerous builds = 0

write_restart   POSCAR_1x1x1.rest

#unfix    1
#undump   1
Total wall time: 0:16:08
