LAMMPS (7 Dec 2015)
#----------- Initialize Simulation ------------ restart01
#processors	2 2 2
units		metal
boundary	p p p     ## periodic boundary condition  on x y z axis ##
atom_style atomic
#atom_modify map array sort 0 0.0

read_data	POSCAR_1x1x1.lammps
  triclinic box = (0 0 0) to (15.2292 13.1888 28.6278) with tilt (-7.6145 0 0)
  2 by 2 by 7 MPI processor grid
  reading atoms ...
  319 atoms

#----------- Define Potential -----------------
pair_style meam
pair_coeff * * MgAlZn.library.meam Mg Al Zn MgAlZn.parameter.meam Mg Al Zn 	#1=Mg 2=Al 3=Zn	#atoms/mass

#----------- Neighbor List --------------------
neighbor 2.0 bin
neigh_modify delay 10 check yes

#--------------  Run a simulation (minimization) ---------------------------------------
minimize       1.0e-4   1.0e-6   100   1000          #結構優化的條件
WARNING: Resetting reneighboring criteria during minimization (../min.cpp:168)
Neighbor list info ...
  2 neighbor list requests
  update every 1 steps, delay 0 steps, check yes
  max neighbors/atom: 2000, page size: 100000
  master list distance cutoff = 8
  ghost atom cutoff = 8
  binsize = 4 -> bins = 6 4 8
Memory usage per processor = 8.64878 Mbytes
Step Temp E_pair E_mol TotEng Press 
       0            0   -428.00826            0   -428.00826   -8969.2804 
      16            0   -451.41842            0   -451.41842   -24731.474 
Loop time of 0.025644 on 28 procs for 16 steps with 319 atoms

82.7% CPU use with 28 MPI tasks x no OpenMP threads

Minimization stats:
  Stopping criterion = energy tolerance
  Energy initial, next-to-last, final = 
        -428.008259317     -451.381538965     -451.418418584
  Force two-norm initial, final = 19.5842 0.791101
  Force max component initial, final = 3.03722 0.155872
  Final line search alpha, max atom move = 0.265489 0.0413824
  Iterations, force evaluations = 16 29

MPI task timing breakdown:
Section |  min time  |  avg time  |  max time  |%varavg| %total
---------------------------------------------------------------
Pair    | 0.020714   | 0.021883   | 0.022984   |   0.4 | 85.33
Neigh   | 0          | 0          | 0          |   0.0 |  0.00
Comm    | 0.0015749  | 0.0026274  | 0.003674   |   1.0 | 10.25
Output  | 0          | 0          | 0          |   0.0 |  0.00
Modify  | 0          | 0          | 0          |   0.0 |  0.00
Other   |            | 0.001134   |            |       |  4.42

Nlocal:    11.3929 ave 15 max 7 min
Histogram: 1 3 4 3 0 3 3 3 6 2
Nghost:    641.321 ave 705 max 587 min
Histogram: 3 4 3 4 2 1 4 2 3 2
Neighs:    688.143 ave 935 max 395 min
Histogram: 1 4 0 4 4 2 3 3 4 3
FullNghs:  1376.29 ave 1863 max 828 min
Histogram: 2 2 4 3 2 4 0 3 6 2

Total # of neighbors = 38536
Ave neighs/atom = 120.803
Neighbor list builds = 0
Dangerous builds = 0
velocity all  create 600.0 4928459 #rot yes dist gaussian

#--------------  Run a simulation (Relaxation)  ----------------------------------------
fix  1  all  nvt   temp  600.0  600.0  100				#damping constant
#fix  2  all  npt   temp  393.0  393.0  50 iso 0.0 0.0 1000.0
fix  2  all deform 1 x final 0 15.2339 y final 0 13.193 z final 0 28.5928 xy final -7.61685 units lattice
#fix  3  all  npt   temp  393.0  393.0  50 z 0.0 0.0 1000.0

#variable b equal 1
#fix 2 all efield  0.0  0.0  v_b
#compute pot all pe/atom


#----------- Output --------------------------
thermo	 500
timestep  0.001		#1.0 fs
thermo_style	custom step time temp ke pe etotal press pxx pyy pzz lx ly lz vol

dump 1 all custom 10000 dump.eq id type x y z
dump_modify 1 sort  id

run        1000000	#1000 ps
Neighbor list info ...
  2 neighbor list requests
  update every 1 steps, delay 10 steps, check yes
  max neighbors/atom: 2000, page size: 100000
  master list distance cutoff = 8
  ghost atom cutoff = 8
  binsize = 4 -> bins = 6 4 8
Memory usage per processor = 7.55473 Mbytes
Step Time Temp KinEng PotEng TotEng Press Pxx Pyy Pzz Lx Ly Lz Volume 
      16            0          600    24.662836   -451.41842   -426.75558   -20150.142   -5867.2565   -6068.6023   -48514.567      15.2292      13.1888      28.6278    5750.0331 
     500        0.484    315.31438    12.960911   -439.71268   -426.75177   -13355.193    3019.4535    731.70318   -43816.735    15.229202    13.188802    28.627783    5750.0315 
    1000        0.984    315.80297    12.980995    -439.7327    -426.7517   -13051.456    469.97234    1600.1877   -41224.527    15.229205    13.188804    28.627766    5750.0298 
    1500        1.484    315.94214    12.986715   -439.73768   -426.75096   -14171.023      142.956    3062.9352   -45718.959    15.229207    13.188806    28.627748    5750.0281 
    2000        1.984    308.31826    12.673338   -439.42271   -426.74938   -13679.169    2233.7161    1698.1438   -44969.367    15.229209    13.188808    28.627731    5750.0263 
    2500        2.484    308.89805     12.69717   -439.44552   -426.74835   -14309.311    1495.7231    1601.8491   -46025.506    15.229212     13.18881    28.627713    5750.0246 
    3000        2.984    303.81859     12.48838   -439.23486   -426.74648    -15234.65    338.91872   -644.07358   -45398.794    15.229214    13.188813    28.627696    5750.0229 
    3500        3.484    301.99531    12.413434   -439.15831   -426.74487   -13575.131    785.98094    852.61228   -42363.987    15.229216    13.188815    28.627678    5750.0212 
    4000        3.984    321.18013    13.202021   -439.94504   -426.74302   -13105.392    2455.3206    1213.7419   -42985.237    15.229219    13.188817    28.627661    5750.0195 
    4500        4.484    315.74695    12.978692   -439.71937   -426.74068   -13934.436    2022.2906   -1991.2572   -41834.343    15.229221    13.188819    28.627643    5750.0178 
    5000        4.984    312.50894    12.845594   -439.58311   -426.73752    -13929.55    1647.2119    1846.7839   -45282.646    15.229223    13.188821    28.627626    5750.0161 
    5500        5.484    307.90197    12.656226   -439.39078   -426.73455   -14105.018    2153.3168   -177.81252   -44290.559    15.229226    13.188823    28.627608    5750.0144 
    6000        5.984    328.38192    13.498049   -440.22948   -426.73143   -14156.258    3039.8318    327.67301   -45836.278    15.229228    13.188825    28.627591    5750.0126 
    6500        6.484    294.15643     12.09122   -438.81823   -426.72701   -13255.133    1439.6398    887.76784   -42092.807     15.22923    13.188827    28.627573    5750.0109 
    7000        6.984    296.50499    12.187757   -438.91118   -426.72343   -14165.498    2124.2352   -284.87776    -44335.85    15.229233    13.188829    28.627556    5750.0092 
    7500        7.484     306.5773    12.601776   -439.32104   -426.71927   -13712.293   -1849.3817    2641.5763   -41929.074    15.229235    13.188831    28.627538    5750.0075 
    8000        7.984    326.68287     13.42821   -440.14283   -426.71462   -14103.951   -1426.3834    1221.9716   -42107.441    15.229238    13.188834    28.627521    5750.0058 
    8500        8.484    297.96366    12.247715   -438.95668   -426.70897   -12635.833    1690.2204     2533.451   -42131.171     15.22924    13.188836    28.627503    5750.0041 
    9000        8.984    313.78985    12.898246    -439.6024   -426.70415   -12194.599     1967.644    4067.3703   -42618.811    15.229242    13.188838    28.627486    5750.0024 
    9500        9.484    318.55397    13.094074   -439.79271   -426.69863   -13412.084    420.76471    1909.3075   -42566.325    15.229245     13.18884    28.627468    5750.0007 
   10000        9.984    306.89657    12.614899   -439.30737   -426.69247   -14476.249     1845.996   -1964.9027   -43309.841    15.229247    13.188842    28.627451    5749.9989 
   10500       10.484    320.17899     13.16087   -439.84719   -426.68632   -14653.049   -1466.1216    1336.0691   -43829.096    15.229249    13.188844    28.627433    5749.9972 
   11000       10.984    302.63837    12.439867   -439.11977   -426.67991   -13157.041    2818.2337   -430.41521   -41858.943    15.229252    13.188846    28.627416    5749.9955 
   11500       11.484    310.42876    12.760089   -439.43284   -426.67275   -14442.942    1941.8089    2063.6925   -47334.326    15.229254    13.188848    28.627398    5749.9938 
   12000       11.984    317.55171    13.052876   -439.71867   -426.66579   -12940.824    3211.3027    3012.6528   -45046.428    15.229256     13.18885    28.627381    5749.9921 
   12500       12.484    317.24271    13.040175   -439.69822   -426.65805   -14020.638    2784.4968    339.15012    -45185.56    15.229259    13.188852    28.627363    5749.9904 
   13000       12.984    314.99825    12.947917   -439.59866   -426.65074   -13104.973   -496.21257     651.7488   -39470.454    15.229261    13.188855    28.627346    5749.9887 
   13500       13.484    310.86203    12.777899   -439.42026   -426.64236   -13499.404    1123.7142    1416.6339    -43038.56    15.229263    13.188857    28.627328     5749.987 
   14000       13.984     322.8369    13.270123    -439.9042   -426.63408   -13890.317    3163.6625   -132.06178   -44702.551    15.229266    13.188859    28.627311    5749.9852 
   14500       14.484    318.84056    13.105854   -439.73107   -426.62522   -14500.239    339.72449   -1062.6101   -42777.833    15.229268    13.188861    28.627293    5749.9835 
   15000       14.984     308.8903    12.696851   -439.31301   -426.61616    -12478.09    1563.8038    3891.9774    -42890.05     15.22927    13.188863    28.627276    5749.9818 
   15500       15.484     309.9951    12.742264   -439.34871   -426.60644   -13352.592    4262.0102    2968.2855   -47288.073    15.229273    13.188865    28.627258    5749.9801 
   16000       15.984    311.61072    12.808673   -439.40575   -426.59708   -12778.791    1581.3519    1964.1567   -41881.883    15.229275    13.188867    28.627241    5749.9784 
   16500       16.484    333.10556    13.692213   -440.27982   -426.58761   -14036.639    548.69661    361.75412   -43020.369    15.229277    13.188869    28.627223    5749.9767 
   17000       16.984    306.23696    12.587786   -439.16468    -426.5769   -13695.183   -700.88827    2420.5133   -42805.175     15.22928    13.188871    28.627206     5749.975 
   17500       17.484    319.11047    13.116948   -439.68338   -426.56643   -13848.353    2548.3217      3064.63   -47158.012    15.229282    13.188873    28.627188    5749.9733 
   18000       17.984    292.77053    12.034253   -438.58971   -426.55546   -12867.247    2927.8741    2695.8032   -44225.419    15.229285    13.188876    28.627171    5749.9715 
   18500       18.484    302.22496    12.422874   -438.96725   -426.54437   -13279.669   -142.66408    772.25331   -40468.596    15.229287    13.188878    28.627153    5749.9698 
   19000       18.984    314.63173    12.932851   -439.46579   -426.53294   -14416.346   -513.87947    2075.2964   -44810.455    15.229289     13.18888    28.627136    5749.9681 
   19500       19.484    312.77212    12.856413   -439.37771    -426.5213    -14102.28   -375.62845    1975.4812   -43906.691    15.229292    13.188882    28.627118    5749.9664 
   20000       19.984    304.55706    12.518734   -439.02809   -426.50936   -13630.114    2248.7372    798.97582   -43938.056    15.229294    13.188884    28.627101    5749.9647 
   20500       20.484    334.57491     13.75261    -440.2497    -426.4971   -13994.602   -744.51721    1968.9094     -43208.2    15.229296    13.188886    28.627083     5749.963 
   21000       20.984    314.91931    12.944672   -439.42879   -426.48411   -13307.467    3701.1966    2454.6596   -46078.258    15.229299    13.188888    28.627066    5749.9613 
   21500       21.484     333.8185    13.721518    -440.1933   -426.47178   -12641.437    2611.6442    4195.1411   -44731.095    15.229301     13.18889    28.627048    5749.9596 
   22000       21.984    312.90742    12.861974    -439.3199   -426.45793   -13400.072    1625.7788    2448.6047   -44274.601    15.229303    13.188892    28.627031    5749.9579 
   22500       22.484    321.40964    13.211455   -439.65643   -426.44498   -14931.528    141.74941     312.8661   -45249.201    15.229306    13.188894    28.627013    5749.9561 
   23000       22.984    319.77821    13.144396   -439.57515   -426.43076   -13503.182    4673.7596     1526.253   -46709.559    15.229308    13.188897    28.626996    5749.9544 
   23500       23.484     320.4922    13.173744   -439.59066   -426.41691   -13324.257     2889.588    2363.3542   -45225.715     15.22931    13.188899    28.626978    5749.9527 
   24000       23.984    331.44007    13.623753   -440.02666   -426.40291   -13715.248   -310.94081      1582.19   -42416.994    15.229313    13.188901    28.626961     5749.951 
   24500       24.484    311.98372    12.824005   -439.21202   -426.38802   -14663.743     179.5233     3474.628   -47645.379    15.229315    13.188903    28.626943    5749.9493 
   25000       24.984    323.54559    13.299253   -439.67247   -426.37322   -13891.929    2112.4713   -623.64792    -43164.61    15.229317    13.188905    28.626926    5749.9476 
   25500       25.484    318.59946    13.095944   -439.45458   -426.35863   -13240.932    1921.8283    1613.0103   -43257.635     15.22932    13.188907    28.626908    5749.9459 
   26000       25.984    318.70551    13.100303   -439.44343   -426.34313   -13462.422    4341.9466    3063.5728   -47792.785    15.229322    13.188909    28.626891    5749.9442 
   26500       26.484    306.56098    12.601105   -438.92873   -426.32763   -14667.941   -1276.7932     -288.983   -42438.045    15.229324    13.188911    28.626873    5749.9424 
   27000       26.984    314.62806      12.9327   -439.24459   -426.31189   -13924.855    2547.4825    1006.9771   -45329.024    15.229327    13.188913    28.626856    5749.9407 
   27500       27.484     331.9668    13.645404   -439.94165   -426.29624   -14121.615    1700.4038   -291.92341   -43773.325    15.229329    13.188915    28.626838     5749.939 
   28000       27.984    308.48181     12.68006   -438.95976    -426.2797   -12705.227    221.77821    537.46691   -38874.926    15.229332    13.188918    28.626821    5749.9373 
   28500       28.484     303.4246    12.472185   -438.73536   -426.26317    -12544.42    1550.7011    4130.7262   -43314.688    15.229334     13.18892    28.626803    5749.9356 
   29000       28.984    307.58789    12.643316    -438.8894   -426.24608    -13614.35    2345.9906    3015.0067   -46204.048    15.229336    13.188922    28.626786    5749.9339 
   29500       29.484    311.60366    12.808383   -439.03783   -426.22945   -12647.671    4143.1687     820.5353   -42906.717    15.229339    13.188924    28.626768    5749.9322 
   30000       29.984     308.3049    12.672789   -438.88548   -426.21269   -13052.127    3267.2493    799.96309   -43223.592    15.229341    13.188926    28.626751    5749.9305 
   30500       30.484    312.80978     12.85796   -439.05336    -426.1954   -12544.132    3660.2923    2056.0035    -43348.69    15.229343    13.188928    28.626733    5749.9287 
   31000       30.984    315.54003    12.970187   -439.14838   -426.17819   -13077.981    2937.5803    800.65775   -42972.182    15.229346     13.18893    28.626716     5749.927 
   31500       31.484    321.46207     13.21361   -439.37478   -426.16117   -13687.365     3214.571    2007.7756   -46284.441    15.229348    13.188932    28.626698    5749.9253 
   32000       31.984    308.73822      12.6906   -438.83319   -426.14259   -13483.979    1652.5106    2687.3216    -44791.77     15.22935    13.188934    28.626681    5749.9236 
   32500       32.484    319.93168    13.150704   -439.27587   -426.12516   -13057.974    2627.1848    2103.2885   -43904.396    15.229353    13.188936    28.626663    5749.9219 
   33000       32.984    317.34192    13.044253   -439.15164   -426.10739   -13074.282     308.7359    1856.9337   -41388.515    15.229355    13.188939    28.626646    5749.9202 
   33500       33.484    316.89473    13.025871   -439.11512   -426.08925   -14205.371    2380.7595    971.56817    -45968.44    15.229357    13.188941    28.626628    5749.9185 
   34000       33.984    325.81464    13.392521   -439.46351   -426.07099   -14568.766    2475.6229    -252.4275   -45929.494     15.22936    13.188943    28.626611    5749.9168 
   34500       34.484    323.01975    13.277638   -439.33013   -426.05249   -12128.078    3055.5378    2376.6631   -41816.435    15.229362    13.188945    28.626593     5749.915 
   35000       34.984    307.36255    12.634053     -438.668   -426.03394   -12747.308    1254.8176    2122.9325   -41619.673    15.229364    13.188947    28.626576    5749.9133 
   35500       35.484    332.97736    13.686943   -439.70272   -426.01577   -13184.271    2920.2869    2652.1201   -45125.218    15.229367    13.188949    28.626558    5749.9116 
   36000       35.984    335.02177    13.770978   -439.76797   -425.99699    -14374.42    2857.7814    1510.7789   -47491.821    15.229369    13.188951    28.626541    5749.9099 
   36500       36.484    319.28616     13.12417   -439.10207    -425.9779   -13912.329    2022.4201    1017.9696   -44777.376    15.229371    13.188953    28.626523    5749.9082 
   37000       36.984    314.39494    12.923118    -438.8826   -425.95948   -13284.827    1591.6545    110.92458   -41557.061    15.229374    13.188955    28.626506    5749.9065 
   37500       37.484     325.1204    13.363985   -439.30453   -425.94054   -11761.004    3375.0392    2068.8312   -40726.883    15.229376    13.188957    28.626488    5749.9048 
   38000       37.984    328.01785    13.483084   -439.40429   -425.92121   -12987.275    2231.9222    1347.5118    -42541.26    15.229379     13.18896    28.626471    5749.9031 
   38500       38.484    320.20569    13.161967   -439.06392   -425.90195   -13728.334    2837.3198    2553.0656   -46575.388    15.229381    13.188962    28.626453    5749.9013 
   39000       38.984    320.69596    13.182119   -439.06516   -425.88304   -13612.933     863.6379    1654.1601   -43356.597    15.229383    13.188964    28.626436    5749.8996 
   39500       39.484    329.64636    13.550024   -439.41425   -425.86423   -13686.215    312.25941   0.90188118   -41371.806    15.229386    13.188966    28.626418    5749.8979 
   40000       39.984    327.85048    13.476204   -439.32078   -425.84457   -12672.558    3306.7212     2636.665    -43961.06    15.229388    13.188968    28.626401    5749.8962 
   40500       40.484    332.61692    13.672127   -439.49793    -425.8258    -13315.62    1995.7424    1249.5106   -43192.112     15.22939     13.18897    28.626383    5749.8945 
   41000       40.984    311.51455     12.80472   -438.61148   -425.80676   -11697.881    4597.4674      1824.58   -41515.689    15.229393    13.188972    28.626366    5749.8928 
   41500       41.484    334.03521    13.730426   -439.51807   -425.78764   -12778.848    407.63895    1595.5411   -40339.724    15.229395    13.188974    28.626348    5749.8911 
   42000       41.984    325.54148    13.381293   -439.14987   -425.76858    -13693.99    1657.6282    2478.9546   -45218.552    15.229397    13.188976    28.626331    5749.8894 
   42500       42.484    320.47485    13.173031   -438.92292   -425.74988   -13216.566    2186.9578    1947.9911   -43784.647      15.2294    13.188978    28.626313    5749.8876 
   43000       42.984    336.92324    13.849137   -439.58045   -425.73131   -13704.207     3924.543    1505.4567   -46542.619    15.229402    13.188981    28.626296    5749.8859 
   43500       43.484     323.7313    13.306887   -439.01858   -425.71169       -13289     3278.989   -449.79339   -42696.195    15.229404    13.188983    28.626278    5749.8842 
   44000       43.984    338.45381    13.912051   -439.60489   -425.69284   -13542.031    2012.4243    190.58141   -42829.099    15.229407    13.188985    28.626261    5749.8825 
   44500       44.484    310.29123    12.754436    -438.4282   -425.67377   -13121.976    1984.4396    1759.2746   -43109.641    15.229409    13.188987    28.626243    5749.8808 
   45000       44.984    313.77137    12.897486   -438.55273   -425.65524   -12866.357    2941.6417    3658.4814   -45199.193    15.229411    13.188989    28.626226    5749.8791 
   45500       45.484    308.52627    12.681888   -438.31835   -425.63646   -12569.358    1465.6335    4819.2733   -43992.982    15.229414    13.188991    28.626208    5749.8774 
   46000       45.984    316.24721    12.999255   -438.61706   -425.61781   -12301.617    4622.9727    1373.1974   -42901.021    15.229416    13.188993    28.626191    5749.8757 
   46500       46.484     335.2021    13.778391    -439.3778   -425.59941    -12941.74    1283.4857    2810.9535   -42919.658    15.229418    13.188995    28.626173     5749.874 
   47000       46.984    340.44066     13.99372   -439.57447   -425.58075   -13912.502    1374.4488    1166.2896   -44278.246    15.229421    13.188997    28.626156    5749.8722 
   47500       47.484    328.90088     13.51938   -439.08182   -425.56243   -13788.564    1651.5692     747.4855   -43764.746    15.229423    13.188999    28.626138    5749.8705 
   48000       47.984    331.21291    13.614416   -439.15863   -425.54421   -14010.975    1515.3219    3482.2357   -47030.482    15.229426    13.189002    28.626121    5749.8688 
   48500       48.484    342.60718    14.082774   -439.60887   -425.52609   -13434.154    1044.6506    804.22606   -42151.338    15.229428    13.189004    28.626103    5749.8671 
   49000       48.984    337.24447    13.862341   -439.37021   -425.50787   -12736.308     3974.283    1064.4388   -43247.647     15.22943    13.189006    28.626086    5749.8654 
   49500       49.484    348.05953    14.306892   -439.79706   -425.49017   -13622.998    2770.4813    2399.1204   -46038.596    15.229433    13.189008    28.626068    5749.8637 
   50000       49.984    325.35957    13.373816   -438.84521    -425.4714   -12232.831    3366.3685    4618.5821   -44683.444    15.229435     13.18901    28.626051     5749.862 
   50500       50.484    318.01368    13.071865    -438.5257   -425.45384   -13182.042     521.9654    3262.0172   -43330.109    15.229437    13.189012    28.626033    5749.8603 
   51000       50.984    321.69924    13.223359   -438.65865   -425.43529   -12698.018    6159.6618     1380.338   -45634.052     15.22944    13.189014    28.626016    5749.8585 
   51500       51.484    336.79794    13.843987   -439.26264   -425.41865   -13485.442   0.10534357    4155.6469   -44612.079    15.229442    13.189016    28.625998    5749.8568 
   52000       51.984    327.33198    13.454891   -438.85605   -425.40116   -13315.464    1827.2515    975.78533   -42749.429    15.229444    13.189018    28.625981    5749.8551 
   52500       52.484    321.24234    13.204578    -438.5883   -425.38372   -12073.916    1701.4353    3782.8562    -41706.04    15.229447     13.18902    28.625963    5749.8534 
   53000       52.984    332.46295    13.665798   -439.03197   -425.36618   -11990.068    2124.9936    1119.5193   -39214.718    15.229449    13.189023    28.625946    5749.8517 
   53500       53.484    335.01969    13.770893    -439.1199   -425.34901   -12872.076    4738.5693   -1263.0378   -42091.759    15.229451    13.189025    28.625928      5749.85 
   54000       53.984    335.13936    13.775812   -439.10775   -425.33194   -13964.318    840.77174    1934.3581   -44668.083    15.229454    13.189027    28.625911    5749.8483 
   54500       54.484    316.46531     13.00822   -438.32356   -425.31534   -13876.574    2109.9181    504.63387   -44244.274    15.229456    13.189029    28.625893    5749.8466 
   55000       54.984    333.79867    13.720703   -439.01943   -425.29873   -14360.822    814.92841   -2094.1168   -41803.276    15.229458    13.189031    28.625876    5749.8448 
   55500       55.484    330.47063    13.583905   -438.86615   -425.28225   -13181.282    767.41562    1654.4856   -41965.746    15.229461    13.189033    28.625858    5749.8431 
   56000       55.984    328.51446    13.503497   -438.76864   -425.26514   -13734.608     1141.244    2246.9737   -44592.042    15.229463    13.189035    28.625841    5749.8414 
   56500       56.484    320.63298    13.179531   -438.42864   -425.24911   -12624.088    1199.2565    -823.1777   -38248.343    15.229465    13.189037    28.625823    5749.8397 
   57000       56.984    322.01664    13.236406   -438.46844   -425.23203    -13232.19    174.68445    1997.6354   -41868.891    15.229468    13.189039    28.625806     5749.838 
   57500       57.484     331.3854    13.621506   -438.83713   -425.21562   -13623.804    1739.8767    1178.8535   -43790.141     15.22947    13.189041    28.625788    5749.8363 
   58000       57.984    324.96675    13.357669   -438.55708   -425.19941   -11942.234    485.17856    2462.0018   -38773.882    15.229473    13.189044    28.625771    5749.8346 
   58500       58.484    336.00549    13.811414   -438.99466   -425.18324   -12638.522    911.09498    2787.0299    -41613.69    15.229475    13.189046    28.625753    5749.8329 
   59000       58.984    331.61749    13.631046   -438.79802   -425.16698   -13759.805    1973.2105   -655.05013   -42597.576    15.229477    13.189048    28.625736    5749.8311 
   59500       59.484    337.99238    13.893084   -439.04383   -425.15074   -13160.944    583.83921    1781.8881    -41848.56     15.22948     13.18905    28.625718    5749.8294 
   60000       59.984    333.23494    13.697531   -438.83245   -425.13492    -12255.91    1003.3788    4557.3243   -42328.432    15.229482    13.189052    28.625701    5749.8277 
   60500       60.484    333.71536    13.717279   -438.83586   -425.11858   -12037.468    3017.4726    3849.5298   -42979.407    15.229484    13.189054    28.625683     5749.826 
   61000       60.984     344.9984    14.181065   -439.28385   -425.10278   -12682.464    2912.5963    2148.7394   -43108.726    15.229487    13.189056    28.625666    5749.8243 
   61500       61.484    331.54551    13.628088   -438.71458    -425.0865    -13678.03    363.03027    3320.9795     -44718.1    15.229489    13.189058    28.625648    5749.8226 
   62000       61.984    332.71542    13.676176   -438.74666   -425.07048   -11906.995    3867.3441     3900.463   -43488.792    15.229491     13.18906    28.625631    5749.8209 
   62500       62.484    343.33041    14.112503   -439.16747   -425.05497   -12419.813    3152.6727    2227.7492    -42639.86    15.229494    13.189062    28.625613    5749.8192 
   63000       62.984    328.66996    13.509889   -438.54824   -425.03835   -13632.399     92.11033    309.29413   -41298.602    15.229496    13.189065    28.625596    5749.8174 
   63500       63.484    329.30058     13.53581   -438.55893   -425.02312   -12521.992    2090.5926    1617.7049   -41274.272    15.229498    13.189067    28.625578    5749.8157 
   64000       63.984    334.13583    13.734562   -438.74209   -425.00753   -12892.562    2870.9553    3779.8712   -45328.513    15.229501    13.189069    28.625561     5749.814 
   64500       64.484    317.73187    13.060281   -438.05148    -424.9912   -12766.003    4029.5876    3144.8099   -45472.406    15.229503    13.189071    28.625543    5749.8123 
   65000       64.984    328.18888    13.490114   -438.46607   -424.97596   -12485.033    269.23777    5345.2443   -43069.581    15.229505    13.189073    28.625526    5749.8106 
   65500       65.484     336.4405    13.829295   -438.78978   -424.96049   -13157.648    917.28386    2523.1994   -42913.428    15.229508    13.189075    28.625508    5749.8089 
   66000       65.984    340.02817    13.976765    -438.9215   -424.94473   -12912.404    1265.2136    4521.0475   -44523.472     15.22951    13.189077    28.625491    5749.8072 
   66500       66.484    312.39334    12.840843   -437.76934   -424.92849   -12826.063    3407.3326    3389.2666   -45274.787    15.229512    13.189079    28.625473    5749.8055 
   67000       66.984    361.16503     14.84559   -439.75929    -424.9137   -12923.015    2260.0324    3520.8622   -44549.941    15.229515    13.189081    28.625456    5749.8037 
   67500       67.484    321.43595    13.212537   -438.11006   -424.89753   -12103.273    1235.7597    2989.3813    -40534.96    15.229517    13.189083    28.625438     5749.802 
   68000       67.984    354.37922    14.566661   -439.44906    -424.8824   -12897.648    583.96181    2608.4078   -41885.314     15.22952    13.189086    28.625421    5749.8003 
   68500       68.484    342.11209    14.062424   -438.92923   -424.86681    -13191.61    3774.7867    2695.1259   -46044.743    15.229522    13.189088    28.625403    5749.7986 
   69000       68.984    334.92645     13.76706   -438.61809   -424.85103   -10736.066    2566.4267    3456.7791   -38231.405    15.229524     13.18909    28.625386    5749.7969 
   69500       69.484    358.66599    14.742867   -439.57883   -424.83597    -12809.38    2708.1374    1183.4062   -42319.683    15.229527    13.189092    28.625368    5749.7952 
   70000       69.984    345.83864    14.215602   -439.03547   -424.81987    -13877.97    1521.6339     1073.195   -44228.738    15.229529    13.189094    28.625351    5749.7935 
   70500       70.484    338.88319    13.929701     -438.734    -424.8043   -13671.411    1837.8195   -972.91794   -41879.133    15.229531    13.189096    28.625333    5749.7918 
   71000       70.984    345.20925    14.189732    -438.9782   -424.78847    -14003.91     654.3235   -82.966443   -42583.086    15.229534    13.189098    28.625316      5749.79 
   71500       71.484    338.24191    13.903341    -438.6761   -424.77276   -12960.533    4565.3934    1965.3816   -45412.374    15.229536      13.1891    28.625298    5749.7883 
   72000       71.984    328.33643    13.496179    -438.2527   -424.75652   -11370.957    3675.0414    4519.8157   -42307.728    15.229538    13.189102    28.625281    5749.7866 
   72500       72.484    333.05901    13.690299   -438.43166   -424.74136   -12312.844     2909.085    2134.3712   -41981.987    15.229541    13.189104    28.625263    5749.7849 
   73000       72.984    340.36093    13.990443   -438.71613   -424.72569   -13058.216    392.63857    2052.0984   -41619.386    15.229543    13.189107    28.625246    5749.7832 
   73500       73.484    340.54956    13.998197   -438.70795   -424.70976   -13023.629    2907.3306    2733.6527    -44711.87    15.229545    13.189109    28.625228    5749.7815 
   74000       73.984    327.98548    13.481753   -438.17554   -424.69379   -12232.379    3382.9902    1955.7388   -42035.865    15.229548    13.189111    28.625211    5749.7798 
   74500       74.484    309.54544    12.723781   -437.40081   -424.67703   -13033.463     2268.324    3812.3074    -45181.02     15.22955    13.189113    28.625193    5749.7781 
   75000       74.984    314.00869    12.907241   -437.56863   -424.66139    -12786.81    3290.4614    2898.6401   -44549.532    15.229552    13.189115    28.625176    5749.7763 
   75500       75.484    326.91307    13.437672   -438.08346   -424.64579   -12809.542    1398.1358    2089.7531   -41916.515    15.229555    13.189117    28.625158    5749.7746 
   76000       75.984    339.53445    13.956471   -438.58589   -424.62942   -11589.141    3712.3209    3497.7571   -41977.501    15.229557    13.189119    28.625141    5749.7729 
   76500       76.484    352.20013     14.47709   -439.09073   -424.61364   -12543.611    1363.8397    4917.0863    -43911.76    15.229559    13.189121    28.625123    5749.7712 
   77000       76.984    345.46978    14.200441   -438.79815   -424.59771   -13521.037      2760.86    445.91505   -43769.885    15.229562    13.189123    28.625106    5749.7695 
   77500       77.484    355.70427    14.621126   -439.20237   -424.58125   -13104.129    3291.4308    3547.1382   -46150.955    15.229564    13.189125    28.625088    5749.7678 
   78000       77.984    359.33941    14.770548   -439.33509   -424.56454   -13015.786    1426.2292    3239.7469   -43713.333    15.229567    13.189128    28.625071    5749.7661 
   78500       78.484    371.85938    15.285178   -439.83343   -424.54825   -13495.836    1270.9314    1649.1963   -43407.636    15.229569     13.18913    28.625053    5749.7644 
   79000       78.984     325.5083     13.37993   -437.91105   -424.53112   -11370.303    3494.8554    2806.4642   -40412.229    15.229571    13.189132    28.625036    5749.7626 
   79500       79.484    341.14379    14.022622   -438.53741   -424.51478   -13885.074     3305.712    1231.4635   -46192.397    15.229574    13.189134    28.625018    5749.7609 
   80000       79.984    331.05019    13.607727   -438.10602    -424.4983   -12930.313    1430.8329     3562.597    -43784.37    15.229576    13.189136    28.625001    5749.7592 
   80500       80.484    326.77475    13.431987   -437.91351   -424.48153    -12903.94    1084.2152    2405.6295   -42201.666    15.229578    13.189138    28.624983    5749.7575 
   81000       80.984    350.80214    14.419626   -438.88505   -424.46542   -12557.871    3188.8539     2480.628   -43343.094    15.229581     13.18914    28.624966    5749.7558 
   81500       81.484    348.54973    14.327041   -438.77538   -424.44834   -11947.405     2879.252    3014.3562   -41735.824    15.229583    13.189142    28.624948    5749.7541 
   82000       81.984    352.36525    14.483877   -438.91566   -424.43179   -14010.491     1534.152   -718.80346   -42846.822    15.229585    13.189144    28.624931    5749.7524 
   82500       82.484    342.98427    14.098275   -438.51277    -424.4145   -12990.799    2560.4705    1293.1105   -42825.977    15.229588    13.189146    28.624913    5749.7507 
   83000       82.984    335.19879    13.778255   -438.17522   -424.39697   -12602.792    3145.6597       2961.9   -43915.935     15.22959    13.189149    28.624896    5749.7489 
   83500       83.484    354.39581    14.567343   -438.94765   -424.38031   -12070.538    4779.5515    4058.8343       -45050    15.229592    13.189151    28.624878    5749.7472 
   84000       83.984    369.47584    15.187203   -439.55041    -424.3632   -13047.614    358.80941    1995.3536   -41497.004    15.229595    13.189153    28.624861    5749.7455 
   84500       84.484    345.32681    14.194564   -438.54015   -424.34558   -13148.111    1444.0784    521.39812   -41409.811    15.229597    13.189155    28.624843    5749.7438 
   85000       84.984    344.42262    14.157398   -438.48553   -424.32813   -12338.785    3219.2574    2932.8215   -43168.434    15.229599    13.189157    28.624826    5749.7421 
   85500       85.484    338.08782    13.897007   -438.20746   -424.31046    -12416.32    2180.5754    5577.9836   -45007.519    15.229602    13.189159    28.624808    5749.7404 
   86000       85.984    337.86952    13.888034   -438.18102   -424.29299   -12301.506    3046.5882    3237.1316   -43188.236    15.229604    13.189161    28.624791    5749.7387 
   86500       86.484    340.68073    14.003588   -438.27917   -424.27558   -12827.214    3575.9143    2984.4144   -45041.971    15.229606    13.189163    28.624773     5749.737 
   87000       86.984    338.09755    13.897407   -438.15512   -424.25771    -12752.47    1591.2082    319.84348   -40168.461    15.229609    13.189165    28.624756    5749.7352 
   87500       87.484    370.38872    15.224727   -439.46495   -424.24022   -12685.159     1750.111    1576.7834    -41382.37    15.229611    13.189167    28.624738    5749.7335 
   88000       87.984    343.43848    14.116945   -438.33891   -424.22197   -12897.421    4729.4401    3547.2487   -46968.951    15.229614     13.18917    28.624721    5749.7318 
   88500       88.484    351.53637    14.449806   -438.65374   -424.20393   -13430.527    1589.5096      1020.46   -42901.551    15.229616    13.189172    28.624703    5749.7301 
   89000       88.984    368.57136    15.150025   -439.33654   -424.18652   -12774.528    3730.0618    785.65178   -42839.299    15.229618    13.189174    28.624686    5749.7284 
   89500       89.484    334.32592    13.742375   -437.91011   -424.16773   -11981.477    2651.0118    4095.8417   -42691.284    15.229621    13.189176    28.624668    5749.7267 
   90000       89.984    337.14172    13.858118   -438.00759   -424.14947   -13141.008    1130.2489    4105.1436   -44658.416    15.229623    13.189178    28.624651     5749.725 
   90500       90.484    352.48575     14.48883   -438.62011   -424.13128   -12891.799    976.61035    1108.5484   -40760.555    15.229625     13.18918    28.624633    5749.7233 
   91000       90.984    349.37171    14.360828   -438.47358   -424.11275   -12383.516    4488.7338    3819.1208   -45458.401    15.229628    13.189182    28.624616    5749.7215 
   91500       91.484    344.55957    14.163027   -438.25726   -424.09423   -12094.252      2649.36     2694.314   -41626.431     15.22963    13.189184    28.624598    5749.7198 
   92000       91.984    351.59183    14.452086   -438.52767   -424.07559   -12138.947    2156.7787    2348.0138   -40921.634    15.229632    13.189186    28.624581    5749.7181 
   92500       92.484    331.78541    13.637949    -437.6945   -424.05655   -12878.525    1507.2291    3024.9021   -43167.708    15.229635    13.189188    28.624563    5749.7164 
   93000       92.984     347.4687    14.282606   -438.32052   -424.03792   -12838.069    295.74421    4117.6058   -42927.558    15.229637    13.189191    28.624546    5749.7147 
   93500       93.484    335.35508    13.784679   -437.80382   -424.01915    -11178.47    3237.1812    3915.2287   -40687.819    15.229639    13.189193    28.624528     5749.713 
   94000       93.984    345.85777    14.216389   -438.21661   -424.00022   -11846.086    4330.9169    2777.0829   -42646.257    15.229642    13.189195    28.624511    5749.7113 
   94500       94.484     339.2131    13.943261   -437.92406    -423.9808   -12495.201    2152.1428     5240.437   -44878.184    15.229644    13.189197    28.624493    5749.7096 
   95000       94.984    377.59336    15.520872   -439.48294   -423.96207   -13841.724    650.46164    2009.8489   -44185.484    15.229646    13.189199    28.624476    5749.7078 
   95500       95.484    362.33063    14.893501   -438.83628   -423.94278   -12618.619    3577.2661   -745.41498   -40687.708    15.229649    13.189201    28.624458    5749.7061 
   96000       95.984     370.2348      15.2184   -439.14183   -423.92343   -12439.493    1281.4911    951.16401   -39551.135    15.229651    13.189203    28.624441    5749.7044 
   96500       96.484     354.6167    14.576423   -438.48004   -423.90362   -12842.824     1794.278    3823.8992   -44146.651    15.229653    13.189205    28.624423    5749.7027 
   97000       96.984    352.81884    14.502522    -438.3868   -423.88428   -12081.401    4252.9824    1735.2647    -42232.45    15.229656    13.189207    28.624406     5749.701 
   97500       97.484    345.93999    14.219769   -438.08421   -423.86444   -13254.629    802.63834    117.08176   -40683.608    15.229658    13.189209    28.624388    5749.6993 
   98000       97.984     336.8718    13.847023   -437.69193    -423.8449   -13114.273     2254.283    3111.6287   -44708.731    15.229661    13.189212    28.624371    5749.6976 
   98500       98.484     337.4998    13.872837   -437.69785   -423.82501   -12791.081     3366.547    1687.8037   -43427.594    15.229663    13.189214    28.624353    5749.6959 
   99000       98.984    351.58272    14.451711   -438.25741   -423.80569   -12610.143    1368.9625     377.6473   -39577.038    15.229665    13.189216    28.624336    5749.6941 
   99500       99.484    360.01834    14.798455   -438.58464   -423.78618   -12301.886    3232.2972    2969.2565   -43107.212    15.229668    13.189218    28.624318    5749.6924 
  100000       99.984    381.23515    15.670566   -439.43664   -423.76608   -13091.922    3263.7619    632.34935   -43171.878     15.22967     13.18922    28.624301    5749.6907 
  100500      100.484    347.96389     14.30296   -438.04796     -423.745   -12405.784    4824.2678    4183.2913   -46224.911    15.229672    13.189222    28.624283     5749.689 
  101000      100.984    350.86953    14.422396   -438.14724   -423.72485    -12377.62    2341.5374    1592.6506   -41067.048    15.229675    13.189224    28.624266    5749.6873 
  101500      101.484    361.67074    14.866377    -438.5715   -423.70512   -12673.837    2223.2536    2055.8473   -42300.613    15.229677    13.189226    28.624248    5749.6856 
  102000      101.984      364.244     14.97215   -438.65709   -423.68494   -12601.044    3199.3367    3759.7173   -44762.186    15.229679    13.189228    28.624231    5749.6839 
  102500      102.484    355.52122    14.613602   -438.27788   -423.66427   -11464.383    3507.8985    4269.7767   -42170.824    15.229682     13.18923    28.624213    5749.6822 
  103000      102.984    334.78391    13.761201   -437.40434   -423.64314   -10632.933     1936.923    6473.8581   -40309.579    15.229684    13.189233    28.624196    5749.6804 
  103500      103.484    351.14871    14.433872   -438.05678   -423.62291   -12557.953     1215.814    4505.8725   -43395.546    15.229686    13.189235    28.624178    5749.6787 
  104000      103.984     354.1958    14.559122   -438.16142    -423.6023   -13358.419   -944.93591    1740.5406   -40870.863    15.229689    13.189237    28.624161     5749.677 
  104500      104.484    356.16506    14.640067   -438.22187   -423.58181   -11761.251    5995.7521     1649.943   -42929.447    15.229691    13.189239    28.624143    5749.6753 
  105000      104.984    355.30513     14.60472   -438.16547   -423.56075   -12687.597    2433.9549    5179.1816   -45675.927    15.229693    13.189241    28.624126    5749.6736 
  105500      105.484    354.03014    14.552312   -438.09207   -423.53976   -11290.585    2207.4451    5422.6089    -41501.81    15.229696    13.189243    28.624108    5749.6719 
  106000      105.984    369.80001    15.200528   -438.71917   -423.51864   -12089.007    3272.8431    3045.6989   -42585.564    15.229698    13.189245    28.624091    5749.6702 
  106500      106.484    356.18921     14.64106   -438.13868   -423.49762    -11227.88    4359.1574    3823.7718    -41866.57      15.2297    13.189247    28.624073    5749.6685 
  107000      106.984    374.49906    15.393681   -438.87029   -423.47661    -12289.76    3284.0488     1588.655   -41741.985    15.229703    13.189249    28.624056    5749.6667 
  107500      107.484    348.84597    14.339218   -437.79413   -423.45492   -11283.507    3765.9288    3531.4496   -41147.898    15.229705    13.189251    28.624038     5749.665 
  108000      107.984     356.2909     14.64524   -438.07885   -423.43361   -14370.055   -1108.9971    3618.2397   -45619.408    15.229708    13.189254    28.624021    5749.6633 
  108500      108.484    357.47369    14.693858   -438.10617   -423.41231   -12996.149    2187.0736    3579.1103   -44754.629     15.22971    13.189256    28.624003    5749.6616 
  109000      108.984    362.97799    14.920111    -438.3112   -423.39109    -11207.35    3485.6327    2560.5722   -39668.255    15.229712    13.189258    28.623986    5749.6599 
  109500      109.484    354.41828    14.568266    -437.9378   -423.36953   -11487.876    5858.9718    658.93409   -40981.534    15.229715     13.18926    28.623968    5749.6582 
  110000      109.984    348.25182    14.314796    -437.6625   -423.34771   -13245.722    1080.7203    4889.9695   -45707.856    15.229717    13.189262    28.623951    5749.6565 
  110500      110.484    351.38875    14.443738   -437.77016   -423.32642    -12759.02    2829.6539    2446.7431   -43553.457    15.229719    13.189264    28.623933    5749.6548 
  111000      110.984    341.98415    14.057165   -437.36157    -423.3044    -11517.56    3937.2595    4315.2668   -42805.207    15.229722    13.189266    28.623916     5749.653 
  111500      111.484    363.72771    14.950928   -438.23443    -423.2835   -11963.195    3032.4347    3008.4228   -41930.442    15.229724    13.189268    28.623898    5749.6513 
  112000      111.984    340.78482    14.007867   -437.26909   -423.26122     -13222.5    13.097657    2776.7638   -42457.361    15.229726     13.18927    28.623881    5749.6496 
  112500      112.484    371.50136    15.270462   -438.51077   -423.24031   -12943.429    2530.9803    2967.6321     -44328.9    15.229729    13.189272    28.623863    5749.6479 
  113000      112.984     370.6822     15.23679   -438.45533   -423.21854    -12972.25    3509.9772     1357.282    -43784.01    15.229731    13.189275    28.623846    5749.6462 
  113500      113.484    357.67225     14.70202   -437.89854   -423.19652   -12059.845     3322.035    2070.6068   -41572.177    15.229733    13.189277    28.623828    5749.6445 
  114000      113.984    360.01316    14.798242   -437.97279   -423.17455   -11697.182    2257.7534    5431.1056   -42780.406    15.229736    13.189279    28.623811    5749.6428 
  114500      114.484    340.68367    14.003709   -437.15594   -423.15223   -11642.024    4288.5709    2996.5421   -42211.184    15.229738    13.189281    28.623793    5749.6411 
  115000      114.984     347.8419    14.297946   -437.42844   -423.13049   -12110.995   -50.467844     3965.094   -40247.612     15.22974    13.189283    28.623776    5749.6393 
  115500      115.484    350.91845    14.424407   -437.53322   -423.10882   -11868.738    4551.4208    5299.8549   -45457.489    15.229743    13.189285    28.623758    5749.6376 
  116000      115.984    359.01594    14.757252   -437.84375    -423.0865   -12515.631     2684.559    1581.4229   -41812.875    15.229745    13.189287    28.623741    5749.6359 
  116500      116.484    357.96871    14.714206   -437.77839   -423.06419   -10734.458    6353.5389    3598.1724   -42155.084    15.229747    13.189289    28.623723    5749.6342 
  117000      116.984    380.77449    15.651631    -438.6944   -423.04277   -13608.731    914.95828    2735.3685   -44476.521     15.22975    13.189291    28.623706    5749.6325 
  117500      117.484    353.68582    14.538159   -437.55852   -423.02036   -13074.789    3632.1538     3027.743   -45884.263    15.229752    13.189293    28.623688    5749.6308 
  118000      117.984    357.74085     14.70484   -437.70217   -422.99733   -11483.965    3767.3011    5659.7051   -43878.902    15.229755    13.189296    28.623671    5749.6291 
  118500      118.484    363.38061     14.93666   -437.91157   -422.97491   -10837.427    4235.9538    5547.9324   -42296.169    15.229757    13.189298    28.623653    5749.6274 
  119000      118.984    373.35899    15.346819    -438.2995   -422.95268   -12481.412    1798.3514    3617.1549   -42859.743    15.229759      13.1893    28.623636    5749.6256 
  119500      119.484    362.48997    14.900051   -437.83011   -422.93006    -12607.08    2839.2536    2177.5015   -42837.994    15.229762    13.189302    28.623618    5749.6239 
  120000      119.984    363.64165     14.94739   -437.85602   -422.90863   -12488.352    453.12422    4855.0584   -42773.237    15.229764    13.189304    28.623601    5749.6222 
  120500      120.484     347.9414    14.302036   -437.18646   -422.88442   -10454.613     5390.137    3587.1577   -40341.134    15.229766    13.189306    28.623583    5749.6205 
  121000      120.984    378.06367    15.540204   -438.40232   -422.86212   -11849.381    5900.9162    1653.7984   -43102.859    15.229769    13.189308    28.623566    5749.6188 
  121500      121.484    344.78854    14.172438   -437.01146   -422.83902    -12270.46     2776.571     4107.807   -43695.759    15.229771     13.18931    28.623548    5749.6171 
  122000      121.984    376.51859    15.476694   -438.29292   -422.81623   -12711.671    3367.1176    2383.6901    -43885.82    15.229773    13.189312    28.623531    5749.6154 
  122500      122.484    341.20233    14.025028    -436.8181   -422.79307   -11501.642    2244.2865    3686.2534   -40435.465    15.229776    13.189314    28.623513    5749.6137 
  123000      122.984    369.16425    15.174396   -437.94526   -422.77086   -12834.413    2200.2859    4005.9489   -44709.473    15.229778    13.189317    28.623496    5749.6119 
  123500      123.484    381.20079    15.669154   -438.41708   -422.74793   -12587.819    2001.7272     4944.086    -44709.27     15.22978    13.189319    28.623478    5749.6102 
  124000      123.984    354.79415    14.583716   -437.30857   -422.72485   -11340.005    4468.4705    2590.2033    -41078.69    15.229783    13.189321    28.623461    5749.6085 
  124500      124.484    368.47789    15.146183   -437.84808    -422.7019   -12260.734    2203.2237    4455.6887   -43441.116    15.229785    13.189323    28.623443    5749.6068 
  125000      124.984    370.54624    15.231202   -437.90991   -422.67871     -12259.6    2410.7916    4890.7031   -44080.294    15.229787    13.189325    28.623426    5749.6051 
  125500      125.484    353.67061    14.537533   -437.19388   -422.65634   -10678.882    5846.0717    3183.5725   -41066.291     15.22979    13.189327    28.623408    5749.6034 
  126000      125.984    378.20157    15.545872   -438.17944   -422.63357   -11864.197    4443.9797    3544.4056   -43580.977    15.229792    13.189329    28.623391    5749.6017 
  126500      126.484    359.72551    14.786419   -437.39661   -422.61019   -10951.927    3768.1524    5273.2881    -41897.22    15.229794    13.189331    28.623373       5749.6 
  127000      126.984      354.871    14.586875    -437.1745   -422.58763   -12877.115     788.0103    3831.5264   -43250.883    15.229797    13.189333    28.623356    5749.5982 
  127500      127.484    403.61701    16.590567   -439.15549   -422.56492   -13332.032     3678.776    1905.7293     -45580.6    15.229799    13.189335    28.623338    5749.5965 
  128000      127.984    344.08796    14.143641   -436.68507   -422.54143   -10481.594    5443.2324    5817.6656   -42705.681    15.229802    13.189338    28.623321    5749.5948 
  128500      128.484    375.12908    15.419578   -437.93811   -422.51853   -10939.953    3483.8022    3361.2575    -39664.92    15.229804     13.18934    28.623303    5749.5931 
  129000      128.984    362.48466    14.899833     -437.395   -422.49517   -11436.569    1735.3121    3620.6385   -39665.658    15.229806    13.189342    28.623286    5749.5914 
  129500      129.484    383.04284    15.744871   -438.21693   -422.47206   -12610.705    2020.9455    3142.3383     -42995.4    15.229809    13.189344    28.623268    5749.5897 
  130000      129.984    385.89287    15.862021   -438.31082    -422.4488    -11451.95    1473.5174    3333.1478   -39162.516    15.229811    13.189346    28.623251     5749.588 
  130500      130.484    368.32684    15.139974   -437.56536   -422.42539   -11781.925    3070.8185     4731.544   -43148.139    15.229813    13.189348    28.623233    5749.5863 
  131000      130.984    373.77094    15.363752   -437.76558   -422.40183   -13429.127     1840.619    2192.5513   -44320.552    15.229816     13.18935    28.623216    5749.5845 
  131500      131.484    378.81053    15.570903   -437.94949   -422.37859   -12633.152    1627.8834    2209.8431   -41737.182    15.229818    13.189352    28.623198    5749.5828 
  132000      131.984    362.51633    14.901135   -437.25637   -422.35523   -11649.654    6127.0511    2624.7065    -43700.72     15.22982    13.189354    28.623181    5749.5811 
  132500      132.484    385.80827    15.858543   -438.19064    -422.3321   -11253.901    2062.1501    3576.6704   -39400.523    15.229823    13.189356    28.623163    5749.5794 
  133000      132.984    365.57285    15.026772   -437.33582   -422.30905   -11405.216    3911.9003    3171.2317   -41298.779    15.229825    13.189359    28.623146    5749.5777 
  133500      133.484    360.73699    14.827995   -437.11341   -422.28542     -12379.1    143.13211    3644.5987   -40925.031    15.229827    13.189361    28.623128     5749.576 
  134000      133.984    360.75164    14.828598   -437.09001   -422.26141   -11329.503    1644.7212    4444.3085   -40077.538     15.22983    13.189363    28.623111    5749.5743 
  134500      134.484    360.83804    14.832149   -437.07013   -422.23798   -10969.649    3534.9694    4043.5758   -40487.494    15.229832    13.189365    28.623093    5749.5726 
  135000      134.984    370.16916    15.215702   -437.43036   -422.21466   -12019.942    2083.3267    4616.2255   -42759.377    15.229834    13.189367    28.623076    5749.5708 
  135500      135.484    357.06008    14.676857   -436.86816    -422.1913   -11756.529    2053.4959    4241.6602   -41564.742    15.229837    13.189369    28.623058    5749.5691 
  136000      135.984    384.85955    15.819546    -437.9874   -422.16785   -12285.323    2242.8441    4009.8442   -43108.657    15.229839    13.189371    28.623041    5749.5674 
  136500      136.484    380.68376    15.647902   -437.79243   -422.14453   -12037.249    3474.4642    2531.1951   -42117.407    15.229841    13.189373    28.623023    5749.5657 
  137000      136.984    373.24805    15.342259   -437.46292   -422.12066   -10183.657     4735.963    4551.6419   -39838.576    15.229844    13.189375    28.623006     5749.564 
  137500      137.484    397.55751    16.341493   -438.43917   -422.09768   -12827.127    3565.8635    160.02021   -42207.265    15.229846    13.189377    28.622988    5749.5623 
  138000      137.984    381.67867    15.688797   -437.76259   -422.07379   -12422.258    2568.3624    1110.3112   -40945.448    15.229849     13.18938    28.622971    5749.5606 
  138500      138.484     364.9353    15.000566    -437.0504   -422.04983   -11230.254    2698.7336    3174.5991   -39564.093    15.229851    13.189382    28.622953    5749.5589 
  139000      138.984    381.73276     15.69102   -437.71707   -422.02605    -10982.98    6699.8734    4225.9962    -43874.81    15.229853    13.189384    28.622936    5749.5571 
  139500      139.484    392.49289    16.133313   -438.13659   -422.00328   -10625.215    5241.5875    2613.1897   -39730.422    15.229856    13.189386    28.622918    5749.5554 
  140000      139.984    367.47643    15.105018   -437.08384   -421.97882   -11549.338    3674.9578    4293.4444   -42616.416    15.229858    13.189388    28.622901    5749.5537 
  140500      140.484    374.75578    15.404234    -437.3582   -421.95397   -12126.634    4037.4646    1640.7851   -42058.152     15.22986     13.18939    28.622883     5749.552 
  141000      140.984    376.32655      15.4688   -437.39901   -421.93021   -12217.011    2424.1521    2554.4175   -41629.603    15.229863    13.189392    28.622866    5749.5503 
  141500      141.484    360.89056    14.834308   -436.74109   -421.90678   -11064.427    5026.0483    3296.7108   -41516.042    15.229865    13.189394    28.622848    5749.5486 
  142000      141.984    364.99494    15.003017    -436.8857   -421.88268   -11488.545    2331.3698    5412.2524   -42209.257    15.229867    13.189396    28.622831    5749.5469 
  142500      142.484    391.32666    16.085375   -437.94437     -421.859   -10805.708    6087.5641    4182.5638   -42687.253     15.22987    13.189398    28.622813    5749.5452 
  143000      142.984    364.82024    14.995836   -436.83044    -421.8346   -10105.596    4004.1713     5497.582   -39818.542    15.229872    13.189401    28.622796    5749.5434 
  143500      143.484    366.93806    15.082888    -436.8939   -421.81101   -10400.679    7153.7702     3486.883    -41842.69    15.229874    13.189403    28.622778    5749.5417 
  144000      143.984    364.32833    14.975616   -436.76241   -421.78679   -12130.257    2367.1013    4889.0137   -43646.887    15.229877    13.189405    28.622761      5749.54 
  144500      144.484    377.07712    15.499652   -437.26316   -421.76351   -10938.725    3287.6325    5823.0308   -41926.838    15.229879    13.189407    28.622743    5749.5383 
  145000      144.984    354.56448    14.574276   -436.31276   -421.73849   -11633.709    3023.5113    4708.1006   -42632.738    15.229881    13.189409    28.622726    5749.5366 
  145500      145.484    367.09167    15.089203   -436.80429   -421.71508   -11773.014    2973.4736    5383.9684   -43676.483    15.229884    13.189411    28.622708    5749.5349 
  146000      145.984    387.48321    15.927391   -437.61878   -421.69139    -12375.68    2577.3041    3176.4061   -42880.749    15.229886    13.189413    28.622691    5749.5332 
  146500      146.484    376.91219    15.492872   -437.15962   -421.66675   -10682.371      5746.72    4935.9783   -42729.812    15.229888    13.189415    28.622673    5749.5315 
  147000      146.984    367.90485    15.122628   -436.76579   -421.64316   -10631.287    3866.8697    5498.1242   -41258.856    15.229891    13.189417    28.622656    5749.5297 
  147500      147.484    401.70445    16.511951   -438.13083   -421.61888   -11796.841    3071.2487    4728.3429   -43190.114    15.229893    13.189419    28.622638     5749.528 
  148000      147.984    380.82454    15.653689   -437.24796   -421.59427   -10766.449    2779.6001    3254.0335    -38332.98    15.229896    13.189422    28.622621    5749.5263 
  148500      148.484    346.20428    14.230632   -435.80035   -421.56971   -10790.874    3139.2352    1418.7058   -36930.564    15.229898    13.189424    28.622603    5749.5246 
  149000      148.984    370.82962     15.24285   -436.78896   -421.54611     -10801.4    4887.2893    4377.4737   -41668.962      15.2299    13.189426    28.622586    5749.5229 
  149500      149.484    374.44415    15.391424   -436.91375   -421.52233   -10501.021    4835.1448    5324.9044   -41663.112    15.229903    13.189428    28.622568    5749.5212 
  150000      149.984    370.27251     15.21995   -436.71784   -421.49789   -11734.093    3178.6661     5715.239   -44096.184    15.229905     13.18943    28.622551    5749.5195 
  150500      150.484    393.37244    16.169466   -437.64292   -421.47346    -11608.15    3915.1567    2814.9277   -41554.535    15.229907    13.189432    28.622533    5749.5178 
  151000      150.984    366.27373    15.055581   -436.50452   -421.44894   -11005.661    4055.0932     3777.597   -40849.672     15.22991    13.189434    28.622516     5749.516 
  151500      151.484    399.34296    16.414883   -437.83988     -421.425   -11687.424    2831.2982    2161.9302   -40055.501    15.229912    13.189436    28.622498    5749.5143 
  152000      151.984    388.85974    15.983973   -437.38449   -421.40052   -10799.075    3541.8454    4317.1219   -40256.193    15.229914    13.189438    28.622481    5749.5126 
  152500      152.484     382.2092    15.710604   -437.08677   -421.37617   -12477.505    4005.2099    1881.0868   -43318.812    15.229917     13.18944    28.622463    5749.5109 
  153000      152.984    396.85374    16.312564   -437.66514   -421.35258   -10062.898    5575.0948    2330.1951   -38093.985    15.229919    13.189443    28.622446    5749.5092 
  153500      153.484    383.82714    15.777109   -437.10466   -421.32755   -10584.356    5564.4332    4777.3404    -42094.84    15.229921    13.189445    28.622428    5749.5075 
  154000      153.984    389.76116    16.021026   -437.32438   -421.30335   -11308.909     2463.232    5747.5372   -42137.498    15.229924    13.189447    28.622411    5749.5058 
  154500      154.484    393.72655    16.184022   -437.46255   -421.27853   -11599.534    2067.4765    4149.0987   -41015.176    15.229926    13.189449    28.622393     5749.504 
  155000      154.984    395.50482    16.257117   -437.51067   -421.25355   -9654.5294    5624.5842    3918.8487   -38507.021    15.229928    13.189451    28.622376    5749.5023 
  155500      155.484    385.48241    15.845149   -437.07416   -421.22902    -10211.49     4584.678    4403.6709    -39622.82    15.229931    13.189453    28.622358    5749.5006 
  156000      155.984    375.89094    15.450894   -436.65491   -421.20402   -11391.387    5290.9671    4210.2537   -43675.382    15.229933    13.189455    28.622341    5749.4989 
  156500      156.484    385.67667    15.853134   -437.03286   -421.17972   -11483.246    5240.0652    3191.6733   -42881.475    15.229935    13.189457    28.622323    5749.4972 
  157000      156.984       382.32    15.715159   -436.87053   -421.15537   -11779.232    2747.0023    4631.8652   -42716.562    15.229938    13.189459    28.622306    5749.4955 
  157500      157.484    396.46672    16.296656   -437.42733   -421.13068   -11260.728     3284.521    3192.7739   -40259.478     15.22994    13.189461    28.622288    5749.4938 
  158000      157.984     360.1903    14.805524   -435.91079   -421.10527    -10714.37    5227.1183    6014.7311    -43384.96    15.229943    13.189464    28.622271    5749.4921 
  158500      158.484    389.62196    16.015304   -437.09657   -421.08127     -11462.3    3021.7837    4602.9034   -42011.586    15.229945    13.189466    28.622253    5749.4903 
  159000      158.984    370.87196     15.24459   -436.30107   -421.05648   -11287.983    4496.0567    4263.6334   -42623.639    15.229947    13.189468    28.622236    5749.4886 
  159500      159.484    382.34712    15.716274   -436.74794   -421.03167   -10789.882    3151.7936    4905.4395   -40426.879     15.22995     13.18947    28.622218    5749.4869 
  160000      159.984    383.57753     15.76685   -436.77355    -421.0067   -11035.142    5188.1176    5111.1621   -43404.706    15.229952    13.189472    28.622201    5749.4852 
  160500      160.484    387.35396    15.922078   -436.90469   -420.98262   -10524.886    6662.3681    2361.4604   -40598.486    15.229954    13.189474    28.622183    5749.4835 
  161000      160.984    381.15642     15.66733   -436.62488   -420.95755   -10610.962    3418.8869    3734.8083   -38986.581    15.229957    13.189476    28.622166    5749.4818 
  161500      161.484    387.09609    15.911479   -436.84409   -420.93261   -11247.621    4084.4678     4316.799    -42144.13    15.229959    13.189478    28.622148    5749.4801 
  162000      161.984    386.91484    15.904029   -436.81177   -420.90774   -10988.877    4230.4091    2905.8183   -40102.859    15.229961     13.18948    28.622131    5749.4784 
  162500      162.484    362.07515       14.883   -435.76584   -420.88284   -10940.668    3815.2214    4565.4121   -41202.637    15.229964    13.189482    28.622113    5749.4766 
  163000      162.984    392.34993    16.127436   -436.98615   -420.85872   -11252.846    3053.1526    2398.9434   -39210.634    15.229966    13.189485    28.622096    5749.4749 
  163500      163.484    394.45524    16.213975   -437.04833   -420.83435   -11249.891    2773.0262    3457.5849   -39980.285    15.229968    13.189487    28.622078    5749.4732 
  164000      163.984    373.61425    15.357311   -436.16644   -420.80913   -10839.642     4389.789    3807.6554   -40716.371    15.229971    13.189489    28.622061    5749.4715 
  164500      164.484    370.23497    15.218407   -436.00269   -420.78428   -11510.413    1392.1157    5821.9521   -41745.307    15.229973    13.189491    28.622043    5749.4698 
  165000      164.984    372.20949    15.299569   -436.05855   -420.75898   -10386.526    5070.6242    6703.5718   -42933.775    15.229975    13.189493    28.622026    5749.4681 
  165500      165.484    393.21293     16.16291   -436.89717   -420.73426   -11378.575    4800.1394    1338.8454   -40274.711    15.229978    13.189495    28.622008    5749.4664 
  166000      165.984    385.62594    15.851048   -436.56053   -420.70948   -10129.521    5093.2469     2799.841   -38281.651     15.22998    13.189497    28.621991    5749.4647 
  166500      166.484    384.75514    15.815255    -436.4992   -420.68394   -11255.591     4210.966    2458.1212    -40435.86    15.229982    13.189499    28.621973    5749.4629 
  167000      166.984    404.84665    16.641111   -437.30011     -420.659   -11263.869    447.32291    3932.7413   -38171.672    15.229985    13.189501    28.621956    5749.4612 
  167500      167.484    387.80352    15.940558   -436.57495   -420.63439   -10684.406    4708.2981    5392.2919   -42153.807    15.229987    13.189503    28.621938    5749.4595 
  168000      167.984    395.86763    16.272031   -436.88078   -420.60875   -11569.437     4640.156    1573.7139   -40922.182     15.22999    13.189506    28.621921    5749.4578 
  168500      168.484    407.18989    16.737429   -437.32054   -420.58311   -10966.761    3706.8679    2801.3197    -39408.47    15.229992    13.189508    28.621903    5749.4561 
  169000      168.984    391.29704    16.084158   -436.64208   -420.55793   -10462.688    5676.8579    5035.5837   -42100.506    15.229994     13.18951    28.621886    5749.4544 
  169500      169.484    388.75783    15.979784   -436.51191   -420.53212   -12105.089    2601.0088    2302.4619   -41218.739    15.229997    13.189512    28.621868    5749.4527 
  170000      169.984    405.40629    16.664115   -437.17153   -420.50741   -11196.465    4172.5535    4475.7202    -42237.67    15.229999    13.189514    28.621851     5749.451 
  170500      170.484    387.18932    15.915311   -436.39746   -420.48215   -9884.0522    3596.2076    4647.2988   -37895.663    15.230001    13.189516    28.621833    5749.4492 
  171000      170.984    397.23997     16.32844   -436.78487   -420.45643   -11287.326    1560.7136      6291.35   -41714.042    15.230004    13.189518    28.621816    5749.4475 
  171500      171.484    396.80252    16.310459    -436.7416   -420.43114   -10355.834    5983.7923    2668.0374   -39719.331    15.230006     13.18952    28.621798    5749.4458 
  172000      171.984    396.39902    16.293873    -436.6993   -420.40543   -11083.252    2535.7584    4694.4346    -40479.95    15.230008    13.189522    28.621781    5749.4441 
  172500      172.484    400.16472    16.448661   -436.82894   -420.38028   -10456.129    2164.2928    4055.0173   -37587.697    15.230011    13.189524    28.621763    5749.4424 
  173000      172.984    402.26652    16.535055   -436.88961   -420.35456    -12090.35    3921.2531    3815.6353   -44007.937    15.230013    13.189527    28.621746    5749.4407 
  173500      173.484    409.03808    16.813398   -437.14264   -420.32924   -12137.314    4670.4995    3257.0115   -44339.454    15.230015    13.189529    28.621728     5749.439 
  174000      173.984    395.42216     16.25372   -436.55711   -420.30339   -10176.046    6953.2111    4259.9994   -41741.348    15.230018    13.189531    28.621711    5749.4373 
  174500      174.484    393.02978    16.155381   -436.43355   -420.27816   -10559.357    5197.5865    3947.6667   -40823.323     15.23002    13.189533    28.621693    5749.4355 
  175000      174.984    417.31473    17.153608    -437.4071   -420.25349   -11328.153    3431.1057    4913.5562   -42329.122    15.230022    13.189535    28.621676    5749.4338 
  175500      175.484    414.05213    17.019499    -437.2466    -420.2271   -10675.295    2173.8094    5421.2273    -39620.92    15.230025    13.189537    28.621658    5749.4321 
  176000      175.984     409.3952    16.828077   -437.02923   -420.20116   -9766.5347    5607.7073    4606.4808   -39513.792    15.230027    13.189539    28.621641    5749.4304 
  176500      176.484    403.81275    16.598612   -436.77428   -420.17566   -11712.586    2497.9243    5582.3675    -43218.05    15.230029    13.189541    28.621623    5749.4287 
  177000      176.984    415.48204    17.078275   -437.22813   -420.14986   -11911.919    4827.0026    430.00888   -40992.768    15.230032    13.189543    28.621606     5749.427 
  177500      177.484    394.27579    16.206599   -436.33068   -420.12408   -11136.702    5266.2604    4791.0985   -43467.464    15.230034    13.189545    28.621588    5749.4253 
  178000      177.984     377.3977    15.512829    -435.6109   -420.09807   -9962.9889     4460.585    5739.1221   -40088.674    15.230037    13.189548    28.621571    5749.4235 
  178500      178.484    403.37715    16.580707   -436.65299   -420.07228   -10534.327    4209.3202    7171.6515   -42983.953    15.230039     13.18955    28.621553    5749.4218 
  179000      178.984    405.07287    16.650409   -436.69725   -420.04684   -9527.5019    5489.4933    3329.2028   -37401.202    15.230041    13.189552    28.621536    5749.4201 
  179500      179.484    393.73564    16.184396   -436.20535   -420.02095   -10614.755    4273.7265      4363.83   -40481.821    15.230044    13.189554    28.621518    5749.4184 
  180000      179.984    394.89134      16.2319    -436.2261    -419.9942   -10924.769    5531.9225    5795.6515    -44101.88    15.230046    13.189556    28.621501    5749.4167 
  180500      180.484    375.82906    15.448351   -435.41547   -419.96712   -10557.155    3298.3072      4221.28   -39191.051    15.230048    13.189558    28.621483     5749.415 
  181000      180.984    387.69118     15.93594   -435.87779   -419.94185   -10937.393    5043.0874    4563.7191   -42418.986    15.230051     13.18956    28.621466    5749.4133 
  181500      181.484    410.62462    16.878612   -436.79501    -419.9164   -11325.902    4354.7147    6594.9322   -44927.353    15.230053    13.189562    28.621448    5749.4116 
  182000      181.984    391.83116    16.106113   -435.99672   -419.89061   -10428.264    3606.1313    4323.6891   -39214.613    15.230055    13.189564    28.621431    5749.4098 
  182500      182.484    421.93481    17.343515   -437.20821   -419.86469   -10494.563     4205.537    4470.6726   -40159.899    15.230058    13.189566    28.621413    5749.4081 
  183000      182.984    421.56644    17.328373    -437.1672   -419.83883   -10967.399    7686.8151    4870.8217   -45459.833     15.23006    13.189569    28.621396    5749.4064 
  183500      183.484    409.44847    16.830267   -436.64334   -419.81308   -11586.854    5373.0624    3711.5896   -43845.214    15.230062    13.189571    28.621378    5749.4047 
  184000      183.984    384.44013    15.802306   -435.58819   -419.78588   -10272.037    5963.5698    4045.4108   -40825.091    15.230065    13.189573    28.621361     5749.403 
  184500      184.484    398.24262    16.369654   -436.13013   -419.76047   -9583.3274    5848.2829    5925.2381   -40523.503    15.230067    13.189575    28.621343    5749.4013 
  185000      184.984    399.88976    16.437359    -436.1715   -419.73414   -9837.5127    4436.1693    7341.0263   -41289.734    15.230069    13.189577    28.621326    5749.3996 
  185500      185.484    397.18346    16.326117   -436.03396   -419.70784   -10675.675     5822.002    3628.7742     -41477.8    15.230072    13.189579    28.621308    5749.3979 
  186000      185.984    412.22751    16.944499   -436.62686   -419.68236   -11235.831    4135.1869    4864.7887   -42707.469    15.230074    13.189581    28.621291    5749.3961 
  186500      186.484    395.89313    16.273079   -435.92859   -419.65551   -10005.123     4246.693    8074.6907   -42336.754    15.230076    13.189583    28.621273    5749.3944 
  187000      186.984    391.95152     16.11106   -435.74037   -419.62931   -9898.1722    5992.4528     3959.946   -39646.915    15.230079    13.189585    28.621256    5749.3927 
  187500      187.484    416.52307    17.121067   -436.72475   -419.60369   -10031.621    4050.1471    7773.4928   -41918.503    15.230081    13.189587    28.621238     5749.391 
  188000      187.984    416.59557    17.124047   -436.70153   -419.57749   -10166.767    4871.1826    3454.8093   -38826.292    15.230084     13.18959    28.621221    5749.3893 
  188500      188.484    388.07547    15.951736   -435.50233    -419.5506   -9387.1898    4715.8968    6356.2468   -39233.713    15.230086    13.189592    28.621203    5749.3876 
  189000      188.984    396.52025    16.298856   -435.82324   -419.52438   -10054.193    5761.7963    2419.3643    -38343.74    15.230088    13.189594    28.621186    5749.3859 
  189500      189.484    389.92657    16.027825   -435.52595   -419.49813   -10602.535    2416.5507    6493.7617   -40717.917    15.230091    13.189596    28.621168    5749.3842 
  190000      189.984    388.76916     15.98025   -435.45204   -419.47179   -9952.5135    4876.1252    5221.6622   -39955.328    15.230093    13.189598    28.621151    5749.3824 
  190500      190.484    411.76687    16.925564   -436.37178   -419.44622   -11382.151    4759.1584    3559.1248   -42464.735    15.230095      13.1896    28.621133    5749.3807 
  191000      190.984    407.63533    16.755739   -436.17525   -419.41951   -11421.229    3231.3011    2547.1307   -40042.118    15.230098    13.189602    28.621116     5749.379 
  191500      191.484    420.28967    17.275892     -436.669   -419.39311   -11688.681    3199.4423    2770.2142   -41035.698      15.2301    13.189604    28.621098    5749.3773 
  192000      191.984    397.78964    16.351034   -435.71772   -419.36668   -11760.794    2487.8372    4965.2459   -42735.466    15.230102    13.189606    28.621081    5749.3756 
  192500      192.484    415.46853     17.07772   -436.41834   -419.34062    -9941.664    6352.7556    5373.5982   -41551.346    15.230105    13.189608    28.621063    5749.3739 
  193000      192.984     414.0855    17.020871   -436.33532   -419.31445   -9385.3204    5267.9881    7850.4455   -41274.395    15.230107    13.189611    28.621046    5749.3722 
  193500      193.484    401.42219    16.500349   -435.78823   -419.28788   -10902.622    2452.0787     5857.384   -41017.328    15.230109    13.189613    28.621028    5749.3705 
  194000      193.984    424.69315    17.456896   -436.71921   -419.26232   -10847.505    3130.1054    2754.5737   -38427.195    15.230112    13.189615    28.621011    5749.3687 
  194500      194.484     386.0959    15.870366   -435.10662   -419.23625   -8987.4748    5401.5753    6402.4034   -38766.403    15.230114    13.189617    28.620993     5749.367 
  195000      194.984    412.43698    16.953109   -436.16313   -419.21002   -9640.8898    7019.4052    5278.6336   -41220.708    15.230116    13.189619    28.620976    5749.3653 
  195500      195.484    412.82891    16.969219    -436.1526   -419.18338   -10586.441    3717.1323    5645.4332   -41121.887    15.230119    13.189621    28.620958    5749.3636 
  196000      195.984    417.23031    17.150138   -436.30691   -419.15678   -10552.292    4354.5468    4492.1226   -40503.545    15.230121    13.189623    28.620941    5749.3619 
  196500      196.484    425.47258    17.488934   -436.61904    -419.1301   -9859.8026    8053.2603    5859.4401   -43492.108    15.230123    13.189625    28.620923    5749.3602 
  197000      196.984    411.15122    16.900258   -436.00308   -419.10282   -10940.905    4297.9678    1114.8122   -38235.494    15.230126    13.189627    28.620906    5749.3585 
  197500      197.484    424.57873    17.452192   -436.52907   -419.07688   -11025.997    4707.8805    3051.5711   -40837.443    15.230128    13.189629    28.620888    5749.3567 
  198000      197.984    412.60162    16.959877   -436.00978   -419.04991   -11537.272    2528.0022    5042.9586   -42182.775    15.230131    13.189632    28.620871     5749.355 
  198500      198.484    404.24777    16.616494   -435.63934   -419.02285   -10388.825    3053.5621    4757.9633       -38978    15.230133    13.189634    28.620853    5749.3533 
  199000      198.984     428.4899     17.61296   -436.60908   -418.99612   -11265.639    2481.9074    6024.2933   -42303.117    15.230135    13.189636    28.620836    5749.3516 
  199500      199.484    410.22115    16.862028   -435.83167   -418.96964   -10120.361    8379.6454    6279.6453   -45020.372    15.230138    13.189638    28.620818    5749.3499 
  200000      199.984    396.16753    16.284358    -435.2266   -418.94225   -9513.6721    5525.9551    8399.6955   -42466.667     15.23014     13.18964    28.620801    5749.3482 
  200500      200.484    427.10418       17.556   -436.47224   -418.91624   -11510.933    1237.1886    5791.1804   -41561.169    15.230142    13.189642    28.620783    5749.3465 
  201000      200.984    419.71353     17.25221   -436.14149   -418.88928   -10903.446    3804.2291    3256.6661   -39771.232    15.230145    13.189644    28.620766    5749.3448 
  201500      201.484    418.97651    17.221915   -436.08424   -418.86233   -10119.207    3409.6394    6221.9829   -39989.242    15.230147    13.189646    28.620748     5749.343 
  202000      201.984    419.70736    17.251956   -436.08741   -418.83545   -9888.6117    5029.8265    5391.0273   -40086.689    15.230149    13.189648    28.620731    5749.3413 
  202500      202.484    419.20985    17.231506   -436.04055   -418.80905   -10370.475    4709.5947    5082.8425   -40903.862    15.230152     13.18965    28.620713    5749.3396 
  203000      202.984     406.4495    16.706996   -435.48895   -418.78195   -11296.343    3549.0392    3083.8912    -40521.96    15.230154    13.189653    28.620696    5749.3379 
  203500      203.484    393.83877    16.188635   -434.94366   -418.75503   -10202.667    3802.1628    4673.7206   -39083.885    15.230156    13.189655    28.620678    5749.3362 
  204000      203.984    414.15176    17.023594   -435.75216   -418.72857   -9786.1628    6627.9034    4766.3282    -40752.72    15.230159    13.189657    28.620661    5749.3345 
  204500      204.484    402.76845    16.555687   -435.25789   -418.70221   -9482.4129    3857.6889    8194.6212   -40499.549    15.230161    13.189659    28.620643    5749.3328 
  205000      204.984    402.45373     16.54275   -435.21769   -418.67494   -10654.089    4406.9201    3979.8613   -40349.049    15.230163    13.189661    28.620626    5749.3311 
  205500      205.484    425.34801    17.483813   -436.13179   -418.64798   -11879.619    4794.9558    3124.4632   -43558.275    15.230166    13.189663    28.620608    5749.3293 
  206000      205.984    423.99586    17.428234   -436.04863    -418.6204   -9766.5211    6439.0253    6273.6081   -42012.197    15.230168    13.189665    28.620591    5749.3276 
  206500      206.484    397.75698    16.349692    -434.9426   -418.59291   -9517.8098     4243.396    6413.6623   -39210.488     15.23017    13.189667    28.620573    5749.3259 
  207000      206.984    419.33711    17.236737   -435.80363   -418.56689   -11131.337    5287.5425    6507.7141   -45189.269    15.230173    13.189669    28.620556    5749.3242 
  207500      207.484    404.98006    16.646594   -435.18633   -418.53974    -9679.652    6454.4388    5029.5001   -40522.895    15.230175    13.189671    28.620538    5749.3225 
  208000      207.984      424.038    17.429966   -435.94313   -418.51317   -11290.309    4372.4382    6118.5134   -44361.878    15.230178    13.189674    28.620521    5749.3208 
  208500      208.484    400.82099    16.475637   -434.96095   -418.48531   -8663.6721    8936.6797    6051.2237    -40978.92     15.23018    13.189676    28.620503    5749.3191 
  209000      208.984    412.64833    16.961796   -435.41937   -418.45757   -8970.9883    6424.3921    5077.0879   -38414.445    15.230182    13.189678    28.620486    5749.3174 
  209500      209.484    412.36236    16.950042   -435.38107   -418.43103   -9233.9129    6245.7925    5983.3384    -39930.87    15.230185     13.18968    28.620468    5749.3156 
  210000      209.984    406.38774    16.704457   -435.10788   -418.40342   -10654.318    1877.5595    6010.0023   -39850.517    15.230187    13.189682    28.620451    5749.3139 
  210500      210.484     423.1249    17.392433   -435.76855   -418.37612   -11115.581    3856.5168    3356.7754   -40560.034    15.230189    13.189684    28.620433    5749.3122 
  211000      210.984    405.99578    16.688346   -435.03686   -418.34852   -9598.2912    5264.7786    3636.6437   -37696.296    15.230192    13.189686    28.620416    5749.3105 
  211500      211.484     422.1906    17.354029   -435.67574   -418.32171   -10884.721    5438.1537    2927.2758   -41019.592    15.230194    13.189688    28.620398    5749.3088 
  212000      211.984    419.78793    17.255268   -435.55042   -418.29516   -10618.124    6345.8992    6199.8295   -44400.099    15.230196     13.18969    28.620381    5749.3071 
[...]
  948500      948.484    608.51207    25.012722   -431.89678   -406.88406   -6202.4487    8417.6993     8052.325    -35077.37    15.233658    13.192784    28.594603    5746.7818 
  949000      948.984    537.83083    22.107389   -428.98738   -406.87999   -5427.8777    6651.3431    11063.505   -33998.481     15.23366    13.192786    28.594586    5746.7801 
  949500      949.484    573.80506      23.5861   -430.46169   -406.87559   -4112.3738    10127.591    10820.158   -33284.871    15.233663    13.192788    28.594568    5746.7784 
  950000      949.984    525.39937    21.596397   -428.46848   -406.87209   -2703.6524    12525.317    14434.432   -35070.706    15.233665     13.19279    28.594551    5746.7767 
  950500      950.484    555.74386    22.843699   -429.71303   -406.86933   -6166.5684    12689.319    7437.7952    -38626.82    15.233667    13.192792    28.594533     5746.775 
  951000      950.984    542.53812    22.300881   -429.16752   -406.86664   -5247.9477    14461.385    8261.6624    -38466.89     15.23367    13.192794    28.594516    5746.7732 
  951500      951.484    578.93222    23.796851   -430.66132   -406.86447   -5579.9474    9628.5612    10096.541   -36464.944    15.233672    13.192796    28.594498    5746.7715 
  952000      951.984    596.31294     24.51128   -431.37268    -406.8614   -4615.5435    11323.672     9552.256   -34722.558    15.233674    13.192798    28.594481    5746.7698 
  952500      952.484    570.77138    23.461401   -430.31858   -406.85718   -4125.8314    14217.913     8640.864   -35236.271    15.233677      13.1928    28.594463    5746.7681 
  953000      952.984    558.35758    22.951135   -429.80397   -406.85283   -4086.2298     8377.552    12005.898   -32642.139    15.233679    13.192803    28.594446    5746.7664 
  953500      953.484    568.30564    23.360048   -430.20976   -406.84971   -4441.6517    10983.261      12179.5   -36487.716    15.233681    13.192805    28.594428    5746.7647 
  954000      953.984    591.94457    24.331719   -431.17832    -406.8466   -6544.2435     12673.24    5511.2973   -37817.268    15.233684    13.192807    28.594411     5746.763 
  954500      954.484    569.62594    23.414318     -430.257   -406.84268   -3453.9675    13093.512    9566.7662   -33022.181    15.233686    13.192809    28.594393    5746.7612 
  955000      954.984    589.01028    24.211106   -431.04935   -406.83824   -4895.0617    10872.718    11742.335   -37300.238    15.233688    13.192811    28.594376    5746.7595 
  955500      955.484    592.19635    24.342069    -431.1755   -406.83343   -5701.6294    10623.994    9142.5382    -36871.42    15.233691    13.192813    28.594358    5746.7578 
  956000      955.984    559.20518    22.985976   -429.81447   -406.82849   -4891.1583    13438.807    7296.8679    -35409.15    15.233693    13.192815    28.594341    5746.7561 
  956500      956.484    569.75352    23.419563   -430.24378   -406.82422   -4049.2689    14773.552    6443.9382   -33365.297    15.233695    13.192817    28.594323    5746.7544 
  957000      956.984    565.26152     23.23492   -430.05416   -406.81924   -6570.8291     11950.43    8812.1102   -40475.027    15.233698    13.192819    28.594306    5746.7527 
  957500      957.484    572.23066    23.521385   -430.33598   -406.81459   -5874.9648    10733.111    7140.9353    -35498.94      15.2337    13.192821    28.594288    5746.7509 
  958000      957.984    577.96994    23.757296   -430.56656   -406.80926   -6400.9778    9565.7879    7482.9345   -36251.656    15.233703    13.192824    28.594271    5746.7492 
  958500      958.484    555.06514      22.8158   -429.61992   -406.80412   -4712.7962    14769.352    8169.4174   -37077.158    15.233705    13.192826    28.594253    5746.7475 
  959000      958.984    541.69537     22.26624   -429.06568   -406.79944   -5188.2878    7254.6563    10491.554   -33311.074    15.233707    13.192828    28.594236    5746.7458 
  959500      959.484    569.62549      23.4143    -430.2092    -406.7949   -6889.8467    11842.762    8621.0376    -41133.34     15.23371     13.19283    28.594218    5746.7441 
  960000      959.984    568.55239     23.37019   -430.15965   -406.78946    -6180.903    10591.465    6863.4495   -35997.623    15.233712    13.192832    28.594201    5746.7424 
  960500      960.484    598.53999    24.602823   -431.38604   -406.78321   -7210.7705     8471.823    7364.1094   -37468.244    15.233714    13.192834    28.594183    5746.7406 
  961000      960.984    577.73386    23.747592   -430.52552   -406.77792   -5100.8678    7379.8256    8895.3413    -31577.77    15.233717    13.192836    28.594166    5746.7389 
  961500      961.484    593.17658    24.382361   -431.15615   -406.77379    -5950.674    9484.1996    10422.916   -37759.138    15.233719    13.192838    28.594148    5746.7372 
  962000      961.984    564.43762    23.201054   -429.96921   -406.76816   -4923.2691    8431.8234    9962.9593    -33164.59    15.233721     13.19284    28.594131    5746.7355 
  962500      962.484    605.29972    24.880679    -431.6435   -406.76282   -5798.2295     5800.999    10836.397   -34032.085    15.233724    13.192842    28.594113    5746.7338 
  963000      962.984    557.09158    22.899097   -429.65476   -406.75567   -4455.6939    10818.275    8764.4667   -32949.824    15.233726    13.192845    28.594096    5746.7321 
  963500      963.484     542.4733    22.298216   -429.04889   -406.75067   -5114.1559    8372.8358    8319.9865    -32035.29    15.233728    13.192847    28.594078    5746.7304 
  964000      963.984    545.60095    22.426778   -429.17165   -406.74487   -6811.5983    9939.6148    6795.2462   -37169.656    15.233731    13.192849    28.594061    5746.7286 
  964500      964.484    564.36926    23.198244   -429.93849   -406.74025   -4885.6521    8854.7216    9925.2092   -33436.887    15.233733    13.192851    28.594043    5746.7269 
  965000      964.984    604.30684    24.839867   -431.57562   -406.73575   -5886.7169     8013.645     10503.49   -36177.286    15.233735    13.192853    28.594026    5746.7252 
  965500      965.484    559.64043    23.003867   -429.73287     -406.729    -4568.402     8690.636    12818.808    -35214.65    15.233738    13.192855    28.594008    5746.7235 
  966000      965.984    583.02611    23.965129   -430.68887   -406.72375   -5487.7941    11547.254    9000.6131    -37011.25     15.23374    13.192857    28.593991    5746.7218 
  966500      966.484    576.32318    23.689606    -430.4091    -406.7195   -5886.8863    5693.0701      13643.6   -36997.329    15.233742    13.192859    28.593973    5746.7201 
  967000      966.984    582.66762    23.950393   -430.66504   -406.71465   -6412.7819    8346.2569    7878.8326   -35463.435    15.233745    13.192861    28.593956    5746.7183 
  967500      967.484     547.3305     22.49787   -429.20658   -406.70871   -5173.9173    9371.8407    10770.743   -35664.336    15.233747    13.192863    28.593938    5746.7166 
  968000      967.984    561.37815    23.075295   -429.77752   -406.70222   -5539.8255    11686.127    6951.0197   -35256.623     15.23375    13.192866    28.593921    5746.7149 
  968500      968.484    587.05268     24.13064   -430.82684    -406.6962   -6532.1773    8300.6346    6686.4665   -34583.633    15.233752    13.192868    28.593903    5746.7132 
  969000      968.984    582.74646    23.953634   -430.64416   -406.69052   -6778.2752    8402.8611    8564.1209   -37301.808    15.233754     13.19287    28.593886    5746.7115 
  969500      969.484    573.40639    23.569713   -430.25432   -406.68461   -4808.3768    9472.5882    12160.363   -36058.082    15.233757    13.192872    28.593868    5746.7098 
  970000      969.984    585.38401    24.062049   -430.73998   -406.67793   -5986.1323    11285.443    9129.0684   -38372.909    15.233759    13.192874    28.593851     5746.708 
  970500      970.484    582.30353    23.935427   -430.60734   -406.67192   -4131.1844     10252.76    8449.7375   -31096.051    15.233761    13.192876    28.593833    5746.7063 
  971000      970.984    595.71905    24.486868   -431.15371   -406.66684    -5937.615    11802.664    8836.7717   -38452.281    15.233764    13.192878    28.593816    5746.7046 
  971500      971.484    556.39526    22.870475   -429.53089   -406.66041   -5586.1177    7680.5172    10456.675   -34895.545    15.233766     13.19288    28.593798    5746.7029 
  972000      971.984    557.57865    22.919118   -429.57415   -406.65503   -4657.0441    7550.2988    9396.7622   -30918.193    15.233768    13.192882    28.593781    5746.7012 
  972500      972.484    599.93216    24.660047   -431.31102   -406.65098    -6180.021    6049.8446    7817.6981   -32407.606    15.233771    13.192884    28.593763    5746.6995 
  973000      972.984    530.69951    21.814258   -428.45802   -406.64376   -4646.6114     13610.77    7729.5503   -35280.155    15.233773    13.192887    28.593746    5746.6978 
  973500      973.484    604.16497    24.834036   -431.47335   -406.63932   -6407.1014    6839.3776    9784.2706   -35844.952    15.233775    13.192889    28.593728     5746.696 
  974000      973.984    606.75462    24.940483   -431.57429   -406.63381   -4608.4152    10581.002     9188.343   -33594.591    15.233778    13.192891    28.593711    5746.6943 
  974500      974.484    517.94348    21.289925   -427.91449   -406.62456   -2412.1991    14274.654     9061.959    -30573.21     15.23378    13.192893    28.593693    5746.6926 
  975000      974.984    571.96786    23.510582   -430.12893   -406.61835   -6370.4381    8940.5418     9144.197   -37196.053    15.233782    13.192895    28.593676    5746.6909 
  975500      975.484     557.5322    22.917208   -429.52943   -406.61222   -6980.4845    10292.892    9999.7255   -41234.071    15.233785    13.192897    28.593658    5746.6892 
  976000      975.984    582.00656     23.92322   -430.52802    -406.6048   -4292.2346    9855.3413    12654.371   -35386.416    15.233787    13.192899    28.593641    5746.6875 
  976500      976.484    568.39368    23.363667   -429.96249   -406.59883   -3133.3724    15130.522    10296.127   -34826.766    15.233789    13.192901    28.593623    5746.6857 
  977000      976.984    574.73288    23.624238   -430.21475   -406.59051    -5467.442     9103.737    10546.331   -36052.394    15.233792    13.192903    28.593606     5746.684 
  977500      977.484    576.05509    23.678587   -430.26287   -406.58428   -5446.4097    13574.531    10491.727   -40405.487    15.233794    13.192905    28.593588    5746.6823 
  978000      977.984    536.38062    22.047778   -428.62636   -406.57858   -4110.7241    11590.076    7791.0832   -31713.332    15.233797    13.192908    28.593571    5746.6806 
  978500      978.484    578.32722    23.771982   -430.34211   -406.57013   -5689.2162    12016.198    10530.417   -39614.264    15.233799     13.19291    28.593553    5746.6789 
  979000      978.984    558.26861    22.947478   -429.51091   -406.56343   -4918.5339    4900.7771    13545.356   -33201.735    15.233801    13.192912    28.593536    5746.6772 
  979500      979.484    577.34539    23.731624   -430.28789   -406.55626   -5574.0766    7453.7741    11539.477   -35715.481    15.233804    13.192914    28.593518    5746.6754 
  980000      979.984    577.05434    23.719661   -430.26826    -406.5486   -4479.6058    12457.175    11224.495   -37120.487    15.233806    13.192916    28.593501    5746.6737 
  980500      980.484    550.43983    22.625679   -429.16686   -406.54118   -4728.7563    10102.718    13563.858   -37852.845    15.233808    13.192918    28.593483     5746.672 
  981000      980.984    562.73682    23.131143   -429.66421   -406.53307   -5574.1683    8061.1194    12795.049   -37578.673    15.233811     13.19292    28.593466    5746.6703 
  981500      981.484    575.15055    23.641406    -430.1674   -406.52599   -3718.6745    10153.457    12447.471   -33756.952    15.233813    13.192922    28.593448    5746.6686 
  982000      981.984    588.25663    24.180128   -430.69615   -406.51603   -5117.1954    10017.427     13130.58   -38499.593    15.233815    13.192924    28.593431    5746.6669 
  982500      982.484    576.92538     23.71436   -430.22328   -406.50892   -5737.7979    8416.0668    10498.935   -36128.396    15.233818    13.192926    28.593413    5746.6652 
  983000      982.984    609.48043    25.052526   -431.55575   -406.50323   -5095.9029    10149.736    6613.6945   -32051.139     15.23382    13.192929    28.593396    5746.6634 
  983500      983.484    574.15852    23.600629   -430.09674   -406.49611   -5760.3176    10171.763     11432.37   -38885.086    15.233822    13.192931    28.593378    5746.6617 
  984000      983.984    588.60256    24.194347   -430.68257   -406.48823   -5456.2708    10924.668    7813.1694   -35106.649    15.233825    13.192933    28.593361      5746.66 
  984500      984.484    578.30257    23.770969   -430.25068   -406.47971   -4082.7837    13540.073    11425.292   -37213.716    15.233827    13.192935    28.593343    5746.6583 
  985000      984.984    598.87143    24.616446   -431.08962   -406.47318   -4620.6467    11887.224    10256.104   -36005.268    15.233829    13.192937    28.593326    5746.6566 
  985500      985.484    610.83615    25.108253   -431.57408   -406.46583   -6342.7767    8344.9098    9026.1293   -36399.369    15.233832    13.192939    28.593308    5746.6549 
  986000      985.984    580.97809    23.880945   -430.33843   -406.45748   -4341.0775    11916.643    12255.801   -37195.676    15.233834    13.192941    28.593291    5746.6531 
  986500      986.484    554.87352    22.807924   -429.25787   -406.44995   -4382.4657    10189.692    13206.171   -36543.259    15.233836    13.192943    28.593273    5746.6514 
  987000      986.984    576.51042    23.697303    -430.1398    -406.4425    -3530.565    14318.379    10967.497   -35877.571    15.233839    13.192945    28.593256    5746.6497 
  987500      987.484    571.51513    23.491973   -429.92447    -406.4325   -6671.9214    8899.9488    11523.507    -40439.22    15.233841    13.192947    28.593238     5746.648 
  988000      987.984    570.76632    23.461193   -429.88528   -406.42409   -5675.2458    6325.7182    13282.455    -36633.91    15.233844     13.19295    28.593221    5746.6463 
  988500      988.484    600.24865    24.673056    -431.0891   -406.41604   -5802.3738    7864.1825    9288.1855   -34559.489    15.233846    13.192952    28.593203    5746.6446 
  989000      988.984    572.11037     23.51644   -429.92252   -406.40608   -2990.9766    11380.896    11210.822   -31564.648    15.233848    13.192954    28.593186    5746.6428 
  989500      989.484    567.27528    23.317695    -429.7164   -406.39871   -4603.3612    9360.6305    10355.588   -33526.302    15.233851    13.192956    28.593168    5746.6411 
  990000      989.984    554.49857    22.792512    -429.1837   -406.39119    -5096.417    9548.9772    9538.7455   -34376.974    15.233853    13.192958    28.593151    5746.6394 
  990500      990.484    565.39693    23.240486   -429.62432   -406.38384   -4204.8554    13493.348    7448.0603   -33555.974    15.233855     13.19296    28.593133    5746.6377 
  991000      990.984    574.70454    23.623073   -429.99917    -406.3761   -3423.0087    11927.044    9633.5705   -31829.641    15.233858    13.192962    28.593116     5746.636 
  991500      991.484    589.57515    24.234325   -430.60204   -406.36771    -5553.522    13772.191    6970.8757   -37403.633     15.23386    13.192964    28.593098    5746.6343 
  992000      991.984    588.87014    24.205346    -430.5648   -406.35946   -5282.1371    8037.2983    9921.9181   -33805.628    15.233862    13.192966    28.593081    5746.6325 
  992500      992.484    573.70711    23.582074   -429.93397    -406.3519    -5114.543    12254.712    8640.4449   -36238.786    15.233865    13.192968    28.593063    5746.6308 
  993000      992.984    556.05707    22.856574   -429.19973   -406.34315   -3029.7903    12388.491    12192.372   -33670.234    15.233867    13.192971    28.593046    5746.6291 
  993500      993.484    611.53235     25.13687   -431.47232   -406.33545   -5285.6262     7278.321    8680.9495   -31816.149    15.233869    13.192973    28.593028    5746.6274 
  994000      993.984     595.5019    24.477943   -430.80439   -406.32644   -5585.2107    5410.5521    11644.697   -33810.882    15.233872    13.192975    28.593011    5746.6257 
  994500      994.484    538.23767    22.124112   -428.44074   -406.31663   -4366.7858    8444.1268    9244.4071   -30788.891    15.233874    13.192977    28.592993     5746.624 
  995000      994.984    557.97764    22.935518   -429.24466   -406.30914   -5078.4662    10687.174     5557.166   -31479.738    15.233876    13.192979    28.592976    5746.6223 
  995500      995.484    550.27878    22.619059   -428.91926    -406.3002   -3798.2057    11103.622    14472.479   -36970.718    15.233879    13.192981    28.592958    5746.6205 
  996000      995.984    571.88483    23.507169   -429.79813   -406.29097   -5488.6143    12018.127    8478.3258   -36962.296    15.233881    13.192983    28.592941    5746.6188 
  996500      996.484    578.07223    23.761501   -430.04557   -406.28407   -5501.9878    10698.042    9469.9771   -36673.982    15.233883    13.192985    28.592923    5746.6171 
  997000      996.984    569.51611    23.409804    -429.6848     -406.275   -4584.6545    10303.502    10954.761   -35012.227    15.233886    13.192987    28.592906    5746.6154 
  997500      997.484     573.3581    23.567728   -429.83418   -406.26645   -5473.8014    9513.5886     11602.58   -37537.572    15.233888    13.192989    28.592888    5746.6137 
  998000      997.984    583.44286    23.982259   -430.23929   -406.25703   -5663.8938    9794.2882    7865.1707    -34651.14    15.233891    13.192992    28.592871     5746.612 
  998500      998.484    611.24428    25.125029    -431.3735   -406.24848   -5822.1726    9836.5318    9125.8266   -36428.876    15.233893    13.192994    28.592853    5746.6102 
  999000      998.984    577.83859    23.751897   -429.99137   -406.23947   -5494.1943    9340.2695    9906.4268   -35729.279    15.233895    13.192996    28.592836    5746.6085 
  999500      999.484    590.22171    24.260902    -430.4909      -406.23   -5741.0455    10647.758     7920.516   -35791.411    15.233898    13.192998    28.592818    5746.6068 
 1000000      999.984    599.61238    24.646903    -430.8666    -406.2197   -5450.7102    10682.311    11122.258     -38156.7      15.2339       13.193    28.592801    5746.6051 
 1000016         1000    571.63144    23.496754   -429.71574   -406.21899   -4839.6386    10837.876    12452.848    -37809.64      15.2339       13.193      28.5928     5746.605 
Loop time of 867.829 on 28 procs for 1000000 steps with 319 atoms

Performance: 99.559 ns/day, 0.241 hours/ns, 1152.300 timesteps/s
86.7% CPU use with 28 MPI tasks x no OpenMP threads

MPI task timing breakdown:
Section |  min time  |  avg time  |  max time  |%varavg| %total
---------------------------------------------------------------
Pair    | 731.61     | 753.55     | 788.23     |  52.7 | 86.83
Neigh   | 0.035398   | 0.052101   | 0.06584    |   3.8 |  0.01
Comm    | 67.098     | 100.69     | 119.87     | 134.3 | 11.60
Output  | 0.10034    | 0.1025     | 0.12293    |   1.2 |  0.01
Modify  | 4.8667     | 8.3388     | 13.919     |  89.4 |  0.96
Other   |            | 5.097      |            |       |  0.59

Nlocal:    11.3929 ave 16 max 6 min
Histogram: 1 0 3 3 3 5 2 5 3 3
Nghost:    651.357 ave 703 max 597 min
Histogram: 4 2 2 5 3 0 1 3 1 7
Neighs:    690.821 ave 1025 max 367 min
Histogram: 1 3 3 3 5 2 6 2 2 1
FullNghs:  1381.64 ave 1972 max 730 min
Histogram: 1 3 3 3 4 2 5 3 2 2

Total # of neighbors = 38686
Ave neighs/atom = 121.273
Neighbor list builds = 780
Dangerous builds = 0

write_restart   POSCAR_1x1x1.rest

#unfix    1
#undump   1
Total wall time: 0:14:27
