LAMMPS (7 Dec 2015)
#----------- Initialize Simulation ------------ restart01
#processors	2 2 2
units		metal
boundary	p p p     ## periodic boundary condition  on x y z axis ##
atom_style atomic
#atom_modify map array sort 0 0.0

read_data	POSCAR_1x1x1.lammps
  triclinic box = (0 0 0) to (15.2767 13.23 28.2779) with tilt (-7.63825 0 0)
  2 by 2 by 7 MPI processor grid
  reading atoms ...
  319 atoms

#----------- Define Potential -----------------
pair_style meam
pair_coeff * * MgAlZn.library.meam Mg Al Zn MgAlZn.parameter.meam Mg Al Zn 	#1=Mg 2=Al 3=Zn	#atoms/mass

#----------- Neighbor List --------------------
neighbor 2.0 bin
neigh_modify delay 10 check yes

#--------------  Run a simulation (minimization) ---------------------------------------
minimize       1.0e-4   1.0e-6   100   1000          #結構優化的條件
WARNING: Resetting reneighboring criteria during minimization (../min.cpp:168)
Neighbor list info ...
  2 neighbor list requests
  update every 1 steps, delay 0 steps, check yes
  max neighbors/atom: 2000, page size: 100000
  master list distance cutoff = 8
  ghost atom cutoff = 8
  binsize = 4 -> bins = 6 4 8
Memory usage per processor = 8.02133 Mbytes
Step Temp E_pair E_mol TotEng Press 
       0            0   -430.74592            0   -430.74592   -8479.8505 
      14            0   -452.55745            0   -452.55745   -24065.693 
Loop time of 0.0202674 on 28 procs for 14 steps with 319 atoms

88.7% CPU use with 28 MPI tasks x no OpenMP threads

Minimization stats:
  Stopping criterion = energy tolerance
  Energy initial, next-to-last, final = 
        -430.745920719     -452.516157186     -452.557454642
  Force two-norm initial, final = 19.8471 0.891095
  Force max component initial, final = 5.22007 0.156166
  Final line search alpha, max atom move = 0.47868 0.0747536
  Iterations, force evaluations = 14 22

MPI task timing breakdown:
Section |  min time  |  avg time  |  max time  |%varavg| %total
---------------------------------------------------------------
Pair    | 0.016211   | 0.017118   | 0.018324   |   0.3 | 84.46
Neigh   | 0          | 0          | 0          |   0.0 |  0.00
Comm    | 0.0011071  | 0.0022417  | 0.0031439  |   1.0 | 11.06
Output  | 0          | 0          | 0          |   0.0 |  0.00
Modify  | 0          | 0          | 0          |   0.0 |  0.00
Other   |            | 0.0009073  |            |       |  4.48

Nlocal:    11.3929 ave 17 max 6 min
Histogram: 2 1 3 3 6 5 4 1 0 3
Nghost:    645.321 ave 698 max 591 min
Histogram: 2 4 5 1 3 1 1 3 5 3
Neighs:    692.893 ave 1068 max 361 min
Histogram: 1 1 4 4 6 6 3 0 1 2
FullNghs:  1385.79 ave 2108 max 719 min
Histogram: 1 2 3 3 7 4 5 0 1 2

Total # of neighbors = 38802
Ave neighs/atom = 121.636
Neighbor list builds = 0
Dangerous builds = 0
velocity all  create 600.0 4928459 #rot yes dist gaussian

#--------------  Run a simulation (Relaxation)  ----------------------------------------
fix  1  all  nvt   temp  600.0  600.0  100				#damping constant
#fix  2  all  npt   temp  393.0  393.0  50 iso 0.0 0.0 1000.0
fix  2  all deform 1 x final 0 15.2815 y final 0 13.2342 z final 0 28.243 xy final -7.64065 units lattice
#fix  3  all  npt   temp  393.0  393.0  50 z 0.0 0.0 1000.0

#variable b equal 1
#fix 2 all efield  0.0  0.0  v_b
#compute pot all pe/atom


#----------- Output --------------------------
thermo	 500
timestep  0.001		#1.0 fs
thermo_style	custom step time temp ke pe etotal press pxx pyy pzz lx ly lz vol

dump 1 all custom 10000 dump.eq id type x y z
dump_modify 1 sort  id

run        1000000	#1000 ps
Neighbor list info ...
  2 neighbor list requests
  update every 1 steps, delay 10 steps, check yes
  max neighbors/atom: 2000, page size: 100000
  master list distance cutoff = 8
  ghost atom cutoff = 8
  binsize = 4 -> bins = 6 4 8
Memory usage per processor = 7.55354 Mbytes
Step Time Temp KinEng PotEng TotEng Press Pxx Pyy Pzz Lx Ly Lz Volume 
      14            0          600    24.662836   -452.55745   -427.89462   -19456.493   -3931.5404   -12116.771   -42321.169      15.2767        13.23      28.2779    5715.2673 
     500        0.486    326.80368    13.433176   -441.32436   -427.89118   -11631.007    5555.6572   -2524.3118   -37924.367    15.276702    13.230002    28.277883    5715.2656 
    1000        0.986    312.68343    12.852767   -440.74313   -427.89036   -13200.419    4620.4219   -5861.8461   -38359.834    15.276705    13.230004    28.277866    5715.2639 
    1500        1.486    316.87181    13.024929   -440.91503    -427.8901   -12933.024    2521.1797   -2679.8326   -38640.418    15.276707    13.230006    28.277848    5715.2622 
    2000        1.986    317.20713    13.038712   -440.92784   -427.88912   -13819.891    1860.9469   -5585.3866   -37735.234     15.27671    13.230008    28.277831    5715.2605 
    2500        2.486    315.65741    12.975011   -440.86272   -427.88771   -13897.517    2529.3255   -6136.6817   -38085.195    15.276712     13.23001    28.277813    5715.2588 
    3000        2.986    300.21133    12.340105   -440.22619   -427.88608   -12423.519    1899.2587   -2318.0973   -36851.719    15.276714    13.230013    28.277796     5715.257 
    3500        3.486    307.94344    12.657931   -440.54196   -427.88403   -13105.181    2829.1565   -5928.9918   -36215.708    15.276717    13.230015    28.277778    5715.2553 
    4000        3.986     314.9261    12.944951   -440.82668   -427.88173   -11839.335    4668.2088    -5183.119   -35003.094    15.276719    13.230017    28.277761    5715.2536 
    4500        4.486    311.21787    12.792525   -440.67203    -427.8795   -13173.195    2456.0414   -3671.7394   -38303.886    15.276722    13.230019    28.277743    5715.2519 
    5000        4.986     291.3847    11.977288   -439.85323   -427.87594   -12200.249    2115.8754   -3718.2722   -34998.351    15.276724    13.230021    28.277726    5715.2502 
    5500        5.486    302.50287    12.434298   -440.30729   -427.87299   -12004.042    3533.9106   -5263.5165   -34282.519    15.276726    13.230023    28.277709    5715.2484 
    6000        5.986    322.73561    13.265959   -441.13586    -427.8699   -13101.224    1920.9327   -4650.8347   -36573.771    15.276729    13.230025    28.277691    5715.2467 
    6500        6.486    313.87841    12.901886    -440.7683   -427.86641   -12469.011    2754.3802   -1771.1373   -38390.275    15.276731    13.230027    28.277674     5715.245 
    7000        6.986    308.56389    12.683434    -440.5455   -427.86207   -12046.257    3492.4354   -3067.2044   -36564.001    15.276734    13.230029    28.277656    5715.2433 
    7500        7.486    321.17856    13.201957   -441.05975    -427.8578   -12623.769    4305.5798   -4722.1922   -37454.695    15.276736    13.230031    28.277639    5715.2415 
    8000        7.986    326.42593    13.417648   -441.27109   -427.85344   -12641.595    5065.0048   -3389.0657   -39600.725    15.276738    13.230034    28.277621    5715.2398 
    8500        8.486    310.70412    12.771408   -440.61914   -427.84773   -12244.586    3795.0717   -4985.3021   -35543.527    15.276741    13.230036    28.277604    5715.2381 
    9000        8.986    340.13188    13.981028   -441.82462   -427.84359   -12993.584    3300.1505   -5499.2197   -36781.684    15.276743    13.230038    28.277586    5715.2364 
    9500        9.486    311.72481    12.813363   -440.65022   -427.83686   -12554.793     3051.662   -4642.9923   -36073.047    15.276746     13.23004    28.277569    5715.2347 
   10000        9.986    313.57497    12.889413    -440.7209   -427.83148   -12675.853    4721.1371   -6143.3749   -36605.322    15.276748    13.230042    28.277551    5715.2329 
   10500       10.486    297.55261    12.230819   -440.05529   -427.82447    -13323.26    6118.8529   -8221.2749   -37867.359     15.27675    13.230044    28.277534    5715.2312 
   11000       10.986    312.82607     12.85863   -440.67711   -427.81848   -12588.548     4985.418   -3401.3951   -39349.666    15.276753    13.230046    28.277517    5715.2295 
   11500       11.486    321.49936    13.215143   -441.02682   -427.81168   -11848.309    3571.8061   -5646.1792   -33470.554    15.276755    13.230048    28.277499    5715.2278 
   12000       11.986    329.57889     13.54725    -441.3519   -427.80465   -13086.741    3564.8974   -6758.9268   -36066.194    15.276758     13.23005    28.277482     5715.226 
   12500       12.486    334.70247    13.757853   -441.55498   -427.79713   -13280.389    5572.1972    -4695.621   -40717.743     15.27676    13.230052    28.277464    5715.2243 
   13000       12.986    295.84004    12.160424   -439.94924   -427.78882   -12746.661     3468.961   -6472.5753   -35236.367    15.276762    13.230055    28.277447    5715.2226 
   13500       13.486    308.97435    12.700306   -440.48157   -427.78127   -12355.447    4070.6936    -6887.133   -34249.902    15.276765    13.230057    28.277429    5715.2209 
   14000       13.986    318.18732    13.079002   -440.85222   -427.77321   -12643.291    4916.2179   -4891.1254   -37954.965    15.276767    13.230059    28.277412    5715.2192 
   14500       14.486     312.9478    12.863634   -440.62786   -427.76423   -13390.351    2109.3595   -5401.1635    -36879.25     15.27677    13.230061    28.277394    5715.2174 
   15000       14.986    296.85054     12.20196   -439.95679   -427.75483    -13287.18     3184.378   -6054.5541   -36991.365    15.276772    13.230063    28.277377    5715.2157 
   15500       15.486    328.33185    13.495991   -441.24181   -427.74582   -12847.165    2938.4626   -5342.8231   -36137.136    15.276774    13.230065     28.27736     5715.214 
   16000       15.986    313.69095    12.894181   -440.62998    -427.7358   -13294.745    3953.5948   -4786.0715   -39051.757    15.276777    13.230067    28.277342    5715.2123 
   16500       16.486    323.15432     13.28317   -441.00944   -427.72627   -12661.038    4171.5445   -7871.0476   -34283.611    15.276779    13.230069    28.277325    5715.2106 
   17000       16.986    309.01764    12.702085    -440.4178   -427.71572   -12982.853    2213.5044   -2418.4238   -38743.639    15.276782    13.230071    28.277307    5715.2088 
   17500       17.486    324.50783    13.338805   -441.04426   -427.70546   -12685.908    4083.6931   -5187.9077    -36953.51    15.276784    13.230073     28.27729    5715.2071 
   18000       17.986    311.82039    12.817292   -440.51201   -427.69472   -12858.057    4295.0248   -6064.2921   -36804.903    15.276786    13.230076    28.277272    5715.2054 
   18500       18.486    313.06495    12.868449    -440.5519   -427.68345   -12372.444    4593.9201   -3892.7917    -37818.46    15.276789    13.230078    28.277255    5715.2037 
   19000       18.986    327.32986    13.454804   -441.12667   -427.67186   -12522.862     3075.468    -2711.788   -37932.266    15.276791     13.23008    28.277237    5715.2019 
   19500       19.486    328.98544    13.522857   -441.18333   -427.66047   -12398.697    4203.8459    -6085.157   -35314.779    15.276794    13.230082     28.27722    5715.2002 
   20000       19.986    316.52544    13.010691   -440.65867   -427.64798   -13185.175    4017.3363   -5931.2647   -37641.596    15.276796    13.230084    28.277202    5715.1985 
   20500       20.486    313.06483    12.868444   -440.50436   -427.63592   -13946.473    2617.7408   -6650.0778   -37807.083    15.276798    13.230086    28.277185    5715.1968 
   21000       20.986    332.01892    13.647547   -441.27105    -427.6235   -12535.524    3250.1766   -4907.9717   -35948.776    15.276801    13.230088    28.277168    5715.1951 
   21500       21.486    302.32932    12.427164   -440.03722   -427.61005   -12238.414    4134.7285   -5199.0757   -35650.894    15.276803     13.23009     28.27715    5715.1933 
   22000       21.986    331.39411    13.621864   -441.21908   -427.59721   -12687.105    3597.5458   -5657.1028   -36001.757    15.276806    13.230092    28.277133    5715.1916 
   22500       22.486    315.23547    12.957668   -440.54117    -427.5835   -12348.787    2468.1534   -2772.6177   -36741.897    15.276808    13.230094    28.277115    5715.1899 
   23000       22.986    322.00424    13.235896   -440.80549   -427.56959   -12106.573     4585.775   -4118.0524   -36787.443     15.27681    13.230097    28.277098    5715.1882 
   23500       23.486    312.75077    12.855535   -440.41104    -427.5555   -12605.059    4659.0315   -6393.0293   -36081.179    15.276813    13.230099     28.27708    5715.1864 
   24000       23.986    327.05111    13.443346   -440.98512   -427.54177   -12809.371    3661.0751   -5204.3789   -36884.809    15.276815    13.230101    28.277063    5715.1847 
   24500       24.486     312.5442    12.847044   -440.37432   -427.52727   -12592.112    4523.8789   -2880.9667   -39419.248    15.276818    13.230103    28.277045     5715.183 
   25000       24.986    316.28839    13.000948   -440.51311   -427.51216   -12029.515     5522.926   -4976.7868   -36634.683     15.27682    13.230105    28.277028    5715.1813 
   25500       25.486    315.35134    12.962431   -440.45951   -427.49708   -13305.011    2719.0863   -6743.8341   -35890.285    15.276822    13.230107    28.277011    5715.1796 
   26000       25.986     314.6708    12.934457   -440.41604   -427.48158   -12162.544    3217.1618   -2832.2849   -36872.509    15.276825    13.230109    28.276993    5715.1778 
   26500       26.486    314.08535    12.910392   -440.37648   -427.46609   -13051.458    3020.3947   -4883.4716   -37291.296    15.276827    13.230111    28.276976    5715.1761 
   27000       26.986    322.62246    13.261308   -440.71168   -427.45038   -12468.909    3568.6254   -4019.1446   -36956.207     15.27683    13.230113    28.276958    5715.1744 
   27500       27.486    316.16134    12.995725   -440.43021   -427.43448   -12370.842     1951.536   -2624.8485   -36439.213    15.276832    13.230115    28.276941    5715.1727 
   28000       27.986    319.04606    13.114301   -440.53267   -427.41837   -13278.765    2629.6656   -4156.3602     -38309.6    15.276834    13.230118    28.276923    5715.1709 
   28500       28.486    316.44515    13.007391   -440.40926   -427.40187   -13125.277    2394.4828   -6456.3143   -35313.999    15.276837     13.23012    28.276906    5715.1692 
   29000       28.986    326.08055    13.403452   -440.78847   -427.38502   -12493.899    5230.0653   -3814.1862   -38897.577    15.276839    13.230122    28.276888    5715.1675 
   29500       29.486    321.63659    13.220784   -440.58892   -427.36814   -12591.901    4112.3989   -3707.1197   -38180.982    15.276842    13.230124    28.276871    5715.1658 
   30000       29.986    312.16871    12.831609   -440.18255   -427.35094   -12881.205    4540.0754   -5221.6296    -37962.06    15.276844    13.230126    28.276853    5715.1641 
   30500       30.486    326.45372    13.418791   -440.75282   -427.33403   -13833.889    3665.3722   -5705.2546   -39461.786    15.276846    13.230128    28.276836    5715.1623 
   31000       30.986    301.38002    12.388143   -439.70433   -427.31619   -11954.726    5946.9741   -6031.5234   -35779.629    15.276849     13.23013    28.276819    5715.1606 
   31500       31.486    316.59585    13.013586   -440.31267   -427.29909   -11564.934    5388.3091   -3232.1535   -36850.959    15.276851    13.230132    28.276801    5715.1589 
   32000       31.986    312.78443    12.856918   -440.13792   -427.28101   -12515.269    2995.8672   -3100.5644   -37441.108    15.276854    13.230134    28.276784    5715.1572 
   32500       32.486    327.66238    13.468472   -440.73193   -427.26346    -12580.87    1784.0451   -4867.5363    -34659.12    15.276856    13.230136    28.276766    5715.1555 
   33000       32.986    327.31588    13.454229   -440.69911   -427.24488     -12485.9    3762.3163   -4573.9359    -36646.08    15.276858    13.230139    28.276749    5715.1537 
   33500       33.486    333.12774    13.693125   -440.92002    -427.2269   -12238.985    5224.3928   -5028.1908   -36913.156    15.276861    13.230141    28.276731     5715.152 
   34000       33.986    325.35718    13.373718    -440.5819   -427.20818    -12535.15    3772.9462   -4833.8591   -36544.538    15.276863    13.230143    28.276714    5715.1503 
   34500       34.486    328.16637    13.489189   -440.67967   -427.19048   -12526.898    1950.5146   -4611.6137   -34919.595    15.276866    13.230145    28.276696    5715.1486 
   35000       34.986    319.18785    13.120129    -440.2918   -427.17167   -13826.562    2913.1749   -5235.7188   -39157.142    15.276868    13.230147    28.276679    5715.1468 
   35500       35.486     314.0694    12.909737   -440.06277   -427.15303   -12889.204    1695.3192   -3284.5985   -37078.332     15.27687    13.230149    28.276662    5715.1451 
   36000       35.986    305.20277    12.545276   -439.67957    -427.1343   -12691.057    3123.9245   -2258.9493   -38938.146    15.276873    13.230151    28.276644    5715.1434 
   36500       36.486    313.92703    12.903885    -440.0193   -427.11541   -12059.591    5214.4885   -6729.4513   -34663.811    15.276875    13.230153    28.276627    5715.1417 
   37000       36.986    313.55223    12.888479    -439.9848   -427.09632   -11783.173     6183.397   -4947.6266   -36585.289    15.276878    13.230155    28.276609      5715.14 
   37500       37.486    339.87121    13.970313   -441.04836   -427.07805   -12710.919    1968.9371   -6295.2982   -33806.395     15.27688    13.230157    28.276592    5715.1382 
   38000       37.986    336.30103    13.823562   -440.88253   -427.05897   -13156.592    5695.9949   -7104.3698     -38061.4    15.276882     13.23016    28.276574    5715.1365 
   38500       38.486     325.6879    13.387312   -440.42724   -427.03993   -11648.316    5919.1602   -3128.7884   -37735.321    15.276885    13.230162    28.276557    5715.1348 
   39000       38.986     324.9105    13.355357   -440.37652   -427.02116   -12558.661    3558.6112   -5583.1054    -35651.49    15.276887    13.230164    28.276539    5715.1331 
   39500       39.486    325.61297    13.384232   -440.38631   -427.00208   -12823.345    4461.8217   -6596.8961   -36334.962     15.27689    13.230166    28.276522    5715.1313 
   40000       39.986    355.03427    14.593587   -441.57641   -426.98282   -11647.591    4552.8432   -5140.3243   -34355.292    15.276892    13.230168    28.276504    5715.1296 
   40500       40.486     347.4892    14.283448   -441.24713   -426.96368   -13048.633     3874.804   -6916.3058   -36104.397    15.276894     13.23017    28.276487    5715.1279 
   41000       40.986    343.40683    14.115644   -441.06002   -426.94438   -12692.735    3426.1056   -3707.3524   -37796.959    15.276897    13.230172     28.27647    5715.1262 
   41500       41.486    324.61636    13.343267   -440.26868   -426.92542    -12152.06    4150.9869   -2022.9513   -38584.216    15.276899    13.230174    28.276452    5715.1245 
   42000       41.986    339.50921    13.955433   -440.86156   -426.90613   -11939.583    5282.9436   -4750.5593   -36351.133    15.276902    13.230176    28.276435    5715.1227 
   42500       42.486    322.74041    13.266156   -440.15351   -426.88735   -11896.634    3479.0955   -5825.8025   -33343.196    15.276904    13.230178    28.276417     5715.121 
   43000       42.986    331.46822     13.62491   -440.49317   -426.86826   -12183.153    5489.5632   -2107.5683   -39931.453    15.276906    13.230181      28.2764    5715.1193 
   43500       43.486     350.9882    14.427274   -441.27659   -426.84931   -12545.861    2976.4895    -4131.419   -36482.654    15.276909    13.230183    28.276382    5715.1176 
   44000       43.986    324.17992    13.325327   -440.15506   -426.82974   -12758.288    3157.0176   -5793.2704   -35638.611    15.276911    13.230185    28.276365    5715.1158 
   44500       44.486    315.85332    12.983064   -439.79417    -426.8111   -12921.562     3053.301   -5508.1858     -36309.8    15.276914    13.230187    28.276347    5715.1141 
   45000       44.986    336.44467    13.829466    -440.6224   -426.79294   -13160.528    2694.8891    -3336.864   -38839.609    15.276916    13.230189     28.27633    5715.1124 
   45500       45.486    330.54017    13.586763   -440.36056    -426.7738   -13059.627    5196.3097    -7165.568   -37209.622    15.276918    13.230191    28.276313    5715.1107 
   46000       45.986    325.15124    13.365253   -440.12056   -426.75531   -11399.768    3872.4288   -1959.0067   -36112.727    15.276921    13.230193    28.276295     5715.109 
   46500       46.486    335.50418    13.790807   -440.52749   -426.73668   -12592.686    4227.1612   -4153.5119   -37851.709    15.276923    13.230195    28.276278    5715.1072 
   47000       46.986    328.73782    13.512678   -440.23063   -426.71795   -12355.817    6000.8633   -6735.6916   -36332.623    15.276926    13.230197     28.27626    5715.1055 
   47500       47.486    343.74553    14.129566   -440.82926   -426.69969    -11618.41    4921.4028   -4204.8205   -35571.812    15.276928    13.230199    28.276243    5715.1038 
   48000       47.986    331.99884    13.646721   -440.32829   -426.68157   -11624.227    5243.0573   -6339.9006   -33775.837     15.27693    13.230202    28.276225    5715.1021 
   48500       48.486    326.91642     13.43781   -440.10074   -426.66293   -12497.169    3066.2755    -5152.511   -35405.272    15.276933    13.230204    28.276208    5715.1004 
   49000       48.986    325.03904    13.360641   -440.00528   -426.64464    -11975.62    3294.7235   -2320.6515   -36900.932    15.276935    13.230206     28.27619    5715.0986 
   49500       49.486    343.71634    14.128366   -440.75534   -426.62697   -12397.983     2396.199   -4188.1601   -35401.987    15.276938    13.230208    28.276173    5715.0969 
   50000       49.986    303.98222    12.495106   -439.10325   -426.60815   -11084.694    5086.4989   -2384.6256   -35955.955     15.27694     13.23021    28.276155    5715.0952 
   50500       50.486    341.56047     14.03975   -440.63105    -426.5913   -13511.112    2535.8487     -4822.05   -38247.135    15.276942    13.230212    28.276138    5715.0935 
   51000       50.986     353.9128    14.547489   -441.12075   -426.57326   -12633.502     1634.287   -6103.8018   -33430.991    15.276945    13.230214    28.276121    5715.0917 
   51500       51.486    327.73734    13.471554   -440.02673   -426.55518   -11481.872    5553.3852   -6218.9715    -33780.03    15.276947    13.230216    28.276103      5715.09 
   52000       51.986      321.313    13.207483   -439.74518   -426.53769   -12556.026    4757.5505   -3384.9858   -39040.643     15.27695    13.230218    28.276086    5715.0883 
   52500       52.486    338.95663     13.93272   -440.45311   -426.52039   -12877.998    3691.0084   -3461.7291   -38863.272    15.276952     13.23022    28.276068    5715.0866 
   53000       52.986    322.62334    13.261344   -439.76392   -426.50257   -10636.852    6276.4494   -3335.1523   -34851.852    15.276954    13.230223    28.276051    5715.0849 
   53500       53.486    325.68537    13.387208    -439.8728    -426.4856   -11400.437    4786.0757   -4213.1174    -34774.27    15.276957    13.230225    28.276033    5715.0831 
   54000       53.986    335.29967    13.782401   -440.25096   -426.46856   -12475.151    3131.2561   -4047.4703   -36509.239    15.276959    13.230227    28.276016    5715.0814 
   54500       54.486    343.27649    14.110286   -440.56138   -426.45109   -12751.608    4527.3786   -6671.8543   -36110.348    15.276962    13.230229    28.275998    5715.0797 
   55000       54.986    341.96247    14.056274   -440.49004   -426.43377   -10773.498    4804.0029   -1635.2957   -35489.201    15.276964    13.230231    28.275981     5715.078 
   55500       55.486    324.79463    13.350594   -439.76757   -426.41698   -12248.249    4673.7172    -2908.083   -38510.382    15.276966    13.230233    28.275964    5715.0762 
   56000       55.986     318.2687    13.082348   -439.48246   -426.40011   -11724.542    5147.5108   -4455.2581   -35865.878    15.276969    13.230235    28.275946    5715.0745 
   56500       56.486    331.05746    13.608026   -439.99187   -426.38385   -12139.221     2554.538   -2522.1266   -36450.075    15.276971    13.230237    28.275929    5715.0728 
   57000       56.986    336.25044    13.821482   -440.18861   -426.36712   -12592.188    4939.8162   -5688.2458   -37028.135    15.276974    13.230239    28.275911    5715.0711 
   57500       57.486    345.05814     14.18352   -440.53373   -426.35021   -11954.173    3454.0413   -2676.8127   -36639.747    15.276976    13.230241    28.275894    5715.0694 
   58000       57.986    341.65631    14.043689   -440.37744   -426.33375   -12138.259    4325.9995   -2288.5561   -38452.221    15.276978    13.230244    28.275876    5715.0676 
   58500       58.486    319.31035    13.125165   -439.44248   -426.31731   -12341.721    6975.6836   -5145.1268   -38855.721    15.276981    13.230246    28.275859    5715.0659 
   59000       58.986    338.63342    13.919434   -440.22067   -426.30124   -12000.552    4932.4025   -5457.7904   -35476.268    15.276983    13.230248    28.275841    5715.0642 
   59500       59.486      315.537    12.970062   -439.25494   -426.28488   -11091.865    5231.8323   -3269.6222   -35237.804    15.276986     13.23025    28.275824    5715.0625 
   60000       59.986    333.45051    13.706392   -439.97534   -426.26895   -12427.051    3653.6097    -6496.126   -34438.638    15.276988    13.230252    28.275806    5715.0607 
   60500       60.486    329.68379    13.551562   -439.80422   -426.25266    -11563.43    5283.5888   -4110.5967   -35863.283     15.27699    13.230254    28.275789     5715.059 
   61000       60.986    333.19627    13.695941    -439.9324   -426.23645   -11669.227    4999.4732   -1527.5006   -38479.653    15.276993    13.230256    28.275772    5715.0573 
   61500       61.486     340.5654    13.998847    -440.2194   -426.22055   -12477.309    4332.0064   -4303.5164   -37460.418    15.276995    13.230258    28.275754    5715.0556 
   62000       61.986    318.46797    13.090539   -439.29465   -426.20411   -11297.031    4623.0782   -3626.3519    -34887.82    15.276998     13.23026    28.275737    5715.0539 
   62500       62.486    358.92724    14.753606   -440.94251    -426.1889   -12537.922    3697.5297   -3897.4228   -37413.873       15.277    13.230262    28.275719    5715.0521 
   63000       62.986     320.4337     13.17134   -439.34367   -426.17233   -12212.553    4249.5983   -5935.1074    -34952.15    15.277002    13.230265    28.275702    5715.0504 
   63500       63.486     344.7085    14.169149   -440.32618   -426.15703   -13704.672    2012.4646   -4852.2114   -38274.269    15.277005    13.230267    28.275684    5715.0487 
   64000       63.986    342.81664    14.091384   -440.23242   -426.14103   -12628.293    3192.4642   -3338.8514   -37738.492    15.277007    13.230269    28.275667     5715.047 
   64500       64.486    323.19701    13.284924   -439.40974   -426.12482   -10807.682    5604.0667   -3244.6497   -34782.463     15.27701    13.230271    28.275649    5715.0452 
   65000       64.986    333.13319    13.693348   -439.80226   -426.10891   -11706.925    5445.0431   -4278.8575   -36286.961    15.277012    13.230273    28.275632    5715.0435 
   65500       65.486    331.40588    13.622348   -439.71575    -426.0934   -11948.689    1938.5433   -3633.9724   -34150.639    15.277014    13.230275    28.275615    5715.0418 
   66000       65.986    351.48096    14.447529   -440.52537   -426.07784   -12984.459    4288.6471   -5291.5019   -37950.523    15.277017    13.230277    28.275597    5715.0401 
   66500       66.486    339.53605    13.956536   -440.01849   -426.06195   -12118.572    4796.5015   -3613.2369    -37538.98    15.277019    13.230279     28.27558    5715.0384 
   67000       66.986    341.04248    14.018458   -440.06456    -426.0461   -11179.418    3464.2717   -2032.0458   -34970.481    15.277022    13.230281    28.275562    5715.0366 
   67500       67.486    326.32448    13.413478   -439.44381   -426.03033   -12630.773    4541.9232   -3571.0268   -38863.215    15.277024    13.230283    28.275545    5715.0349 
   68000       67.986    340.55768     13.99853   -440.01305   -426.01452   -12340.646    4910.4575   -4016.4404   -37915.954    15.277026    13.230286    28.275527    5715.0332 
   68500       68.486    345.81989    14.214832   -440.21406   -425.99923   -12383.883    5874.5959   -5782.6634   -37243.582    15.277029    13.230288     28.27551    5715.0315 
   69000       68.986    333.30364    13.700355   -439.68357   -425.98322   -11610.312    5247.7427   -4434.4562   -35644.222    15.277031     13.23029    28.275492    5715.0297 
   69500       69.486     339.5671    13.957813   -439.92572   -425.96791    -12721.89    1350.3903   -3657.4008   -35858.661    15.277034    13.230292    28.275475     5715.028 
   70000       69.986     346.2362    14.231944   -440.18428   -425.95234   -12410.635    3827.7912   -3741.1296   -37318.567    15.277036    13.230294    28.275457    5715.0263 
   70500       70.486    367.21868    15.094423   -441.03123   -425.93681   -12836.046    2074.1674   -3690.2607   -36892.046    15.277038    13.230296     28.27544    5715.0246 
   71000       70.986    358.60495    14.740358   -440.66113   -425.92077   -13206.429    2484.1486   -3570.6488   -38532.788    15.277041    13.230298    28.275423    5715.0229 
   71500       71.486     337.8129    13.885707   -439.79037   -425.90467   -12138.335    7086.1122   -5342.0297   -38159.088    15.277043      13.2303    28.275405    5715.0211 
   72000       71.986    345.18783    14.188851   -440.07795    -425.8891   -12189.653    2154.9712   -5914.5147   -32809.417    15.277046    13.230302    28.275388    5715.0194 
   72500       72.486    342.34137    14.071848   -439.94497   -425.87312   -11613.585    4173.5555     -4658.03   -34356.281    15.277048    13.230304     28.27537    5715.0177 
   73000       72.986    331.59551    13.630143   -439.48734    -425.8572    -12448.56    5508.9947   -5621.0906   -37233.583     15.27705    13.230307    28.275353     5715.016 
   73500       73.486    355.94944    14.631204   -440.47255   -425.84134   -11242.038    4374.1926   -3773.6681    -34326.64    15.277053    13.230309    28.275335    5715.0143 
   74000       73.986    337.81983    13.885992   -439.71158   -425.82559   -11051.202    3734.7467   -4988.2627    -31900.09    15.277055    13.230311    28.275318    5715.0125 
   74500       74.486    335.44261    13.788277   -439.59759   -425.80931   -13659.499    2384.4541    -4415.146   -38947.805    15.277058    13.230313      28.2753    5715.0108 
   75000       74.986    347.89859    14.300276   -440.09376   -425.79348    -12635.94    6261.0962   -4806.2801   -39362.637     15.27706    13.230315    28.275283    5715.0091 
   75500       75.486    350.42601    14.404165   -440.18111   -425.77695   -12580.262    3572.7401   -5967.9413   -35345.586    15.277062    13.230317    28.275266    5715.0074 
   76000       75.986    343.36558    14.113948    -439.8746   -425.76065   -10849.224    5730.3219   -4236.3908   -34041.602    15.277065    13.230319    28.275248    5715.0056 
   76500       76.486    347.09138    14.267096   -440.01214   -425.74504   -12056.273    3733.4472   -2271.1749   -37631.091    15.277067    13.230321    28.275231    5715.0039 
   77000       76.986    364.57436    14.985729   -440.71455   -425.72882   -11904.506    3836.6341   -4172.8099   -35377.342     15.27707    13.230323    28.275213    5715.0022 
   77500       77.486    341.47138    14.036087   -439.74818   -425.71209   -12635.359    5674.8125    -7779.672   -35801.217    15.277072    13.230325    28.275196    5715.0005 
   78000       77.986    342.21326    14.066582   -439.76319    -425.6966   -11599.197    5774.0217   -4686.6322   -35884.981    15.277074    13.230328    28.275178    5714.9988 
   78500       78.486    352.00917     14.46924   -440.14932   -425.68008    -11143.44    4742.3993   -3711.1883   -34461.531    15.277077     13.23033    28.275161     5714.997 
   79000       78.986    337.87011    13.888058   -439.55149   -425.66343   -11404.846     6067.484   -3626.2814    -36655.74    15.277079    13.230332    28.275143    5714.9953 
   79500       79.486    368.37677    15.142026   -440.78913    -425.6471   -12047.742    4547.7878   -2532.3296   -38158.685    15.277082    13.230334    28.275126    5714.9936 
   80000       79.986    363.09458    14.924903   -440.55542   -425.63052   -11728.146    4776.6908   -4139.6864   -35821.443    15.277084    13.230336    28.275108    5714.9919 
   80500       80.486    358.40901    14.732304   -440.34574   -425.61343   -12802.258     3464.262    -3816.427   -38054.608    15.277086    13.230338    28.275091    5714.9901 
   81000       80.986    350.34683     14.40091   -439.99756   -425.59664   -12200.476    4126.8418   -5565.1978   -35163.071    15.277089     13.23034    28.275074    5714.9884 
   81500       81.486      346.718    14.251748   -439.83154   -425.57979   -12414.157    3269.3191   -4564.8038   -35946.987    15.277091    13.230342    28.275056    5714.9867 
   82000       81.986     331.4377    13.623656   -439.18631   -425.56266   -11679.723    6086.4586   -3923.3988   -37202.228    15.277094    13.230344    28.275039     5714.985 
   82500       82.486    360.69595    14.826308   -440.37254   -425.54623   -11651.429    5818.8921   -3896.9442   -36876.234    15.277096    13.230346    28.275021    5714.9833 
   83000       82.986    352.83402    14.503146   -440.03256   -425.52942   -12751.157    5778.2531    -5459.815    -38571.91    15.277098    13.230349    28.275004    5714.9815 
   83500       83.486    336.30395    13.823682   -439.33552   -425.51184   -10757.637    6512.2005   -4880.5214   -33904.591    15.277101    13.230351    28.274986    5714.9798 
   84000       83.986    348.83308    14.338688    -439.8331   -425.49441   -11688.548    4476.0607   -2933.8411   -36607.863    15.277103    13.230353    28.274969    5714.9781 
   84500       84.486    347.19964    14.271546   -439.74929   -425.47775   -11613.537    3167.8646   -4650.0098   -33358.465    15.277106    13.230355    28.274951    5714.9764 
   85000       84.986    359.79636    14.789331   -440.24983    -425.4605   -12348.199    3721.2968    -4531.873   -36234.022    15.277108    13.230357    28.274934    5714.9746 
   85500       85.486    341.82291    14.050537   -439.49299   -425.44245   -11314.019    4543.2433   -26.664264   -38458.638     15.27711    13.230359    28.274917    5714.9729 
   86000       85.986     362.8284    14.913962   -440.33914   -425.42518    -12160.24    4049.7032    -5954.396   -34576.027    15.277113    13.230361    28.274899    5714.9712 
   86500       86.486    345.11739    14.185956   -439.59328   -425.40732   -11977.797     4886.051    -4226.576   -36592.866    15.277115    13.230363    28.274882    5714.9695 
   87000       86.986    354.60119    14.575785   -439.96547   -425.38968    -12158.56    5870.9377   -6439.8355   -35906.782    15.277118    13.230365    28.274864    5714.9678 
   87500       87.486    341.85844    14.051998   -439.42365   -425.37166   -11352.765    4338.9726   -4483.2268   -33914.042     15.27712    13.230367    28.274847     5714.966 
   88000       87.986    332.37585    13.662218   -439.01583   -425.35361   -10959.792    4718.6278   -2968.3908   -34629.612    15.277122     13.23037    28.274829    5714.9643 
   88500       88.486    351.23073    14.437243   -439.77363   -425.33639   -11363.635    3174.1104   -502.45769   -36762.557    15.277125    13.230372    28.274812    5714.9626 
   89000       88.986    345.26824    14.192157    -439.5097   -425.31754   -11424.103     7330.978   -5153.5301   -36449.756    15.277127    13.230374    28.274794    5714.9609 
   89500       89.486    340.70989    14.004787   -439.30423   -425.29944   -10948.139    4329.7721   -5683.5281   -31490.661     15.27713    13.230376    28.274777    5714.9591 
   90000       89.986    349.62445    14.371217   -439.65272   -425.28151   -10563.291    4758.4748   -2844.9662   -33603.382    15.277132    13.230378    28.274759    5714.9574 
   90500       90.486    335.41179     13.78701   -439.05049   -425.26348   -12153.327      4646.31   -2763.7154   -38342.576    15.277134     13.23038    28.274742    5714.9557 
   91000       90.986    356.56236    14.656398   -439.90161   -425.24521   -11419.378    5593.0029   -2715.1904   -37135.945    15.277137    13.230382    28.274725     5714.954 
   91500       91.486    356.78026    14.665355   -439.89203   -425.22668   -11840.251    4331.5019   -5986.8345   -33865.422    15.277139    13.230384    28.274707    5714.9523 
   92000       91.986    348.98611    14.344979   -439.55263   -425.20765   -11543.011    5476.4921   -5373.3022   -34732.222    15.277142    13.230386     28.27469    5714.9505 
   92500       92.486    355.07607    14.595304   -439.78501   -425.18971   -12580.486    4082.2277   -4610.8537   -37212.831    15.277144    13.230388    28.274672    5714.9488 
   93000       92.986    361.24423    14.848845   -440.01953   -425.17068   -11266.488    5216.4481   -4983.4009   -34032.511    15.277146    13.230391    28.274655    5714.9471 
   93500       93.486    355.38652    14.608066   -439.75936   -425.15129   -11063.627    4092.8471   -123.07354   -37160.655    15.277149    13.230393    28.274637    5714.9454 
   94000       93.986    345.26148    14.191878   -439.32428    -425.1324   -10910.262    6148.7997   -1980.4346   -36899.152    15.277151    13.230395     28.27462    5714.9436 
   94500       94.486    338.49485    13.913738   -439.02707   -425.11333   -11657.463    5038.9146   -5541.0629   -34470.241    15.277154    13.230397    28.274602    5714.9419 
   95000       94.986    338.47195    13.912797   -439.00672   -425.09392   -11943.752     3449.455   -4160.3151   -35120.395    15.277156    13.230399    28.274585    5714.9402 
   95500       95.486     331.6644    13.632974   -438.70757   -425.07459    -10787.88    4549.0444   -3755.7297   -33156.954    15.277158    13.230401    28.274568    5714.9385 
   96000       95.986    338.74216    13.923904   -438.97925   -425.05535   -11751.689    3147.3697    -1333.684   -37068.752    15.277161    13.230403     28.27455    5714.9368 
   96500       96.486    345.98529    14.221631   -439.25757   -425.03594   -11877.549    4338.2647   -3647.9189   -36322.992    15.277163    13.230405    28.274533     5714.935 
   97000       96.986    363.09896    14.925083     -439.942   -425.01692    -10932.03    6916.3598   -4936.1661   -34776.284    15.277166    13.230407    28.274515    5714.9333 
   97500       97.486    349.51319    14.366644    -439.3635   -424.99685   -12058.473    5551.0744   -3718.3658   -38008.129    15.277168    13.230409    28.274498    5714.9316 
   98000       97.986    358.67549    14.743258   -439.72068   -424.97742   -12225.951    3990.3498   -3679.7357   -36988.467     15.27717    13.230412     28.27448    5714.9299 
   98500       98.486    353.66359    14.537245   -439.49496   -424.95771   -11251.167    4655.6608   -3070.3576   -35338.803    15.277173    13.230414    28.274463    5714.9281 
   99000       98.986    329.01765     13.52418   -438.46145   -424.93727   -10996.324    5296.7937    -3222.405   -35063.361    15.277175    13.230416    28.274445    5714.9264 
   99500       99.486    342.22026     14.06687   -438.98421   -424.91734    -11062.96    4490.8161   -3214.2547   -34465.441    15.277178    13.230418    28.274428    5714.9247 
  100000       99.986    368.55714     15.14944   -440.04695   -424.89751   -11737.383    3924.6822   -1259.1516   -37877.681     15.27718     13.23042     28.27441     5714.923 
  100500      100.486     337.2467    13.862433   -438.73931   -424.87687   -10839.012     5625.892   -3485.4956   -34657.433    15.277182    13.230422    28.274393    5714.9213 
  101000      100.986    388.24957    15.958892   -440.81654   -424.85764   -13014.787     4481.822   -5129.1532   -38397.031    15.277185    13.230424    28.274376    5714.9195 
  101500      101.486    343.48475    14.118846   -438.95556   -424.83672   -11182.416    3926.3487    -1798.753   -35674.843    15.277187    13.230426    28.274358    5714.9178 
  102000      101.986    357.08358    14.677823   -439.49414   -424.81632   -11063.597    6863.5594   -2645.8521   -37408.498     15.27719    13.230428    28.274341    5714.9161 
  102500      102.486    340.95716    14.014951   -438.81054   -424.79559       -10844    5022.9061   -4371.1435   -33183.762    15.277192     13.23043    28.274323    5714.9144 
  103000      102.986    360.67399    14.825405   -439.60077   -424.77537   -11885.122    3996.9986    -4464.753   -35187.612    15.277194    13.230433    28.274306    5714.9126 
  103500      103.486    343.79064     14.13142   -438.88618   -424.75476   -11115.142    4106.8092   -4004.7129   -33447.523    15.277197    13.230435    28.274288    5714.9109 
  104000      103.986    372.95763    15.330321   -440.06469   -424.73437   -12155.252    3680.9263   -2719.6901   -37426.993    15.277199    13.230437    28.274271    5714.9092 
  104500      104.486    372.04312     15.29273   -440.00649   -424.71376    -11015.12    3868.7071   -4786.2823   -32127.783    15.277202    13.230439    28.274253    5714.9075 
  105000      104.986    359.05505    14.758859   -439.45169   -424.69283   -11048.578    3583.2879   -1100.5165   -35628.505    15.277204    13.230441    28.274236    5714.9058 
  105500      105.486    341.96742    14.056477   -438.72805   -424.67157   -11212.629    4649.2551   -1128.0479   -37159.095    15.277206    13.230443    28.274219     5714.904 
  106000      105.986    369.14078    15.173431   -439.82432   -424.65089   -12630.497    3333.7479   -4291.5595   -36933.678    15.277209    13.230445    28.274201    5714.9023 
  106500      106.486    367.94607    15.124322   -439.75467   -424.63035   -11878.289    3861.1762   -2849.6895   -36646.355    15.277211    13.230447    28.274184    5714.9006 
  107000      106.986    366.94912    15.083343   -439.69238   -424.60904   -11670.619    4489.3833   -4747.3421   -34753.898    15.277214    13.230449    28.274166    5714.8989 
  107500      107.486    345.78515    14.213404    -438.8009   -424.58749   -10792.948    6323.9908   -2132.9949   -36569.841    15.277216    13.230451    28.274149    5714.8971 
  108000      107.986    366.32508    15.057692   -439.62389    -424.5662   -10509.513    5972.0193   -1961.1439   -35539.414    15.277218    13.230454    28.274131    5714.8954 
  108500      108.486    345.88195    14.217383   -438.76224   -424.54486   -11724.553    3976.2862   -3468.3657   -35681.578    15.277221    13.230456    28.274114    5714.8937 
  109000      108.986    362.27582    14.891248   -439.41497   -424.52372    -11786.59    3852.6921   -3331.2004    -35881.26    15.277223    13.230458    28.274096     5714.892 
  109500      109.486    352.31777    14.481925   -438.98417   -424.50225   -10970.224    4733.1421   -165.27723   -37478.536    15.277226     13.23046    28.274079    5714.8903 
  110000      109.986    375.24141    15.424196   -439.90581   -424.48162   -11177.135    3830.1703   -3170.9967   -34190.579    15.277228    13.230462    28.274061    5714.8885 
  110500      110.486    365.76592    15.034708   -439.49394   -424.45923   -12114.834    3188.0244   -4174.8267     -35357.7     15.27723    13.230464    28.274044    5714.8868 
  111000      110.986    362.71636    14.909356   -439.34699   -424.43763    -11146.04    3274.1526   -3913.6035   -32798.668    15.277233    13.230466    28.274027    5714.8851 
  111500      111.486    364.38955    14.978133   -439.39365   -424.41552   -11954.784    3450.1526   -2638.1882   -36676.316    15.277235    13.230468    28.274009    5714.8834 
  112000      111.986    340.12441    13.980721   -438.37412    -424.3934   -10133.068    7541.0508   -2921.1154   -35019.139    15.277238     13.23047    28.273992    5714.8816 
  112500      112.486    357.69843    14.703096   -439.07542   -424.37232    -10699.01    6718.5564   -4588.7041   -34226.882     15.27724    13.230472    28.273974    5714.8799 
  113000      112.986    365.83813    15.037676    -439.3886   -424.35093   -11197.406    3477.3827   -4966.4096   -32103.191    15.277242    13.230475    28.273957    5714.8782 
  113500      113.486      367.809    15.118688   -439.44712   -424.32844    -11786.05     4324.209   -6869.9533   -32812.405    15.277245    13.230477    28.273939    5714.8765 
  114000      113.986    372.10313    15.295197   -439.60185   -424.30666    -11417.37    5431.6241   -2551.2234   -37132.511    15.277247    13.230479    28.273922    5714.8748 
  114500      114.486    351.98893    14.468408   -438.75296   -424.28455   -12149.292    4849.7852   -2427.5581   -38870.104     15.27725    13.230481    28.273904     5714.873 
  115000      114.986    353.78102    14.542072   -438.80426   -424.26219   -10510.508    5470.6905   -3168.2842   -33833.931    15.277252    13.230483    28.273887    5714.8713 
  115500      115.486    370.13093    15.214131   -439.45452   -424.24039   -10216.728    6612.5202   -2868.5338    -34394.17    15.277254    13.230485     28.27387    5714.8696 
  116000      115.986    352.06836    14.471674   -438.68967     -424.218   -10299.195    5954.2171    -3735.101   -33116.701    15.277257    13.230487    28.273852    5714.8679 
  116500      116.486    360.47266     14.81713   -439.01297   -424.19584   -11456.443    1494.9714   -3250.6404    -32613.66    15.277259    13.230489    28.273835    5714.8661 
  117000      116.986    356.22694    14.642611   -438.81589   -424.17328   -10731.992    5997.7838   -3060.4251   -35133.335    15.277262    13.230491    28.273817    5714.8644 
  117500      117.486    360.81374     14.83115    -438.9827   -424.15155   -11733.548    4736.9977    -4915.211   -35022.431    15.277264    13.230493      28.2738    5714.8627 
  118000      117.986    365.55849    15.026182     -439.155   -424.12882    -11759.43    4197.6079   -4576.4483    -34899.45    15.277266    13.230496    28.273782     5714.861 
  118500      118.486    360.90825    14.835035   -438.94161   -424.10658   -11225.148    5838.5069   -4484.7229   -35029.229    15.277269    13.230498    28.273765    5714.8593 
  119000      118.986    359.52663    14.778244    -438.8618   -424.08356   -10933.495    5994.8164   -4551.0921    -34244.21    15.277271      13.2305    28.273747    5714.8575 
  119500      119.486    351.41089    14.444648    -438.5058   -424.06116   -10580.517    5300.4305    -3589.334   -33452.647    15.277274    13.230502     28.27373    5714.8558 
  120000      119.986    345.79436    14.213783   -438.25225   -424.03847   -8953.1693    8917.1432   -4905.0707   -30871.581    15.277276    13.230504    28.273712    5714.8541 
  120500      120.486    371.94642    15.288756    -439.3047   -424.01595   -10510.445    6195.8739   -2017.1176   -35710.091    15.277278    13.230506    28.273695    5714.8524 
  121000      120.986     389.9445    16.028562   -440.02216    -423.9936   -11447.674    3570.0061   -3235.3236   -34677.705    15.277281    13.230508    28.273678    5714.8506 
  121500      121.486    367.38993    15.101463   -439.07247     -423.971   -11675.029    4658.1027   -2403.9964   -37279.193    15.277283     13.23051     28.27366    5714.8489 
  122000      121.986    359.87652    14.792626   -438.74071   -423.94809   -10027.976    7385.4888   -3606.1915   -33863.226    15.277286    13.230512    28.273643    5714.8472 
  122500      122.486    373.50039    15.352631   -439.27767   -423.92504    -10612.75    4221.3296   -1091.2349   -34968.346    15.277288    13.230514    28.273625    5714.8455 
  123000      122.986    352.71772    14.498365    -438.4008   -423.90243    -11224.48    5537.2912   -4528.6957   -34682.035     15.27729    13.230517    28.273608    5714.8438 
  123500      123.486    390.10627    16.035212   -439.91549   -423.88028   -11140.734    4150.8911   -4529.8336   -33043.259    15.277293    13.230519     28.27359     5714.842 
  124000      123.986    369.34674    15.181896   -439.03842   -423.85653   -11456.093    4372.1644   -2019.5835    -36720.86    15.277295    13.230521    28.273573    5714.8403 
  124500      124.486    382.81806    15.735631   -439.56988   -423.83425   -10839.836    5430.8707   -4366.7342   -33583.643    15.277298    13.230523    28.273555    5714.8386 
  125000      124.986    354.99045    14.591785   -438.40219   -423.81041    -10889.26    6951.0555   -3819.2387   -35799.597      15.2773    13.230525    28.273538    5714.8369 
  125500      125.486    382.81564    15.735532   -439.52316   -423.78762   -12690.386     4264.945   -5739.6288   -36596.474    15.277302    13.230527    28.273521    5714.8351 
  126000      125.986    386.86376    15.901929   -439.66687   -423.76494   -12618.506    4998.4716   -6546.9619   -36307.027    15.277305    13.230529    28.273503    5714.8334 
  126500      126.486    375.56162    15.437358   -439.17936     -423.742   -9902.7534     7012.322   -3661.1331   -33059.449    15.277307    13.230531    28.273486    5714.8317 
  127000      126.986    376.65722    15.482392   -439.20126   -423.71887   -11561.753     3395.878    -3618.197    -34462.94     15.27731    13.230533    28.273468      5714.83 
  127500      127.486    380.83675     15.65419   -439.34963   -423.69544   -12399.631    6518.0697   -2696.4876   -41020.476    15.277312    13.230535    28.273451    5714.8283 
  128000      127.986    362.97765    14.920097   -438.59245   -423.67235   -11798.374    6105.3492   -4512.7331   -36987.737    15.277314    13.230538    28.273433    5714.8265 
  128500      128.486    381.42169    15.678234   -439.32815   -423.64991   -11150.547    6689.8121   -2402.5709   -37738.881    15.277317     13.23054    28.273416    5714.8248 
  129000      128.986    355.20277    14.600512    -438.2262   -423.62569   -11208.084    4878.5054   -3887.2109   -34615.548    15.277319    13.230542    28.273398    5714.8231 
  129500      129.486    346.32975    14.235789   -437.83896   -423.60317   -10005.451    5194.1806   -108.09891   -35102.435    15.277322    13.230544    28.273381    5714.8214 
  130000      129.986    360.62649    14.823453   -438.40374   -423.58028   -11397.183    4145.7508   -2772.6677   -35564.632    15.277324    13.230546    28.273363    5714.8196 
  130500      130.486    345.71169    14.210384   -437.76729   -423.55691   -9349.1112    6166.2619   -3043.1307   -31170.465    15.277326    13.230548    28.273346    5714.8179 
  131000      130.986     363.1513    14.927235   -438.46147   -423.53424     -10906.9    4529.3152   -3345.2578   -33904.757    15.277329     13.23055    28.273329    5714.8162 
  131500      131.486    366.62841     15.07016   -438.58087   -423.51071   -11609.941    5704.2332   -3438.6964    -37095.36    15.277331    13.230552    28.273311    5714.8145 
  132000      131.986    375.01107    15.414727   -438.90251   -423.48778   -10978.228    5265.1312   -3025.6946   -35174.121    15.277334    13.230554    28.273294    5714.8128 
  132500      132.486    375.02145    15.415154   -438.87953   -423.46437   -11143.436    3873.6748   -3482.1149   -33821.868    15.277336    13.230556    28.273276     5714.811 
  133000      132.986    361.93331    14.877169   -438.31759   -423.44042   -10405.243    4246.0465   -1694.0054   -33767.771    15.277338    13.230559    28.273259    5714.8093 
  133500      133.486    379.51251    15.599758   -439.01757   -423.41782   -12079.208    2972.9435   -3893.3692     -35317.2    15.277341    13.230561    28.273241    5714.8076 
  134000      133.986    367.55603     15.10829    -438.5017   -423.39341   -11233.784    5645.3392   -4803.1658   -34543.525    15.277343    13.230563    28.273224    5714.8059 
  134500      134.486    376.47233    15.474792   -438.84528   -423.37049   -11017.695    4743.4989   -2652.9335    -35143.65    15.277346    13.230565    28.273206    5714.8041 
  135000      134.986    391.71838    16.101477   -439.44846   -423.34698   -11202.004    4595.9538   -2944.8815   -35257.085    15.277348    13.230567    28.273189    5714.8024 
  135500      135.486     385.9849    15.865804   -439.18954   -423.32373   -11485.925    4798.8197   -143.76385   -39112.831     15.27735    13.230569    28.273172    5714.8007 
  136000      135.986    369.94053    15.206304   -438.50591   -423.29961   -10916.549    6094.4427   -1755.6188   -37088.469    15.277353    13.230571    28.273154     5714.799 
  136500      136.486    365.26347    15.014055   -438.28992   -423.27587   -10624.238    6627.1703   -825.32698   -37674.558    15.277355    13.230573    28.273137    5714.7973 
  137000      136.986    360.32223    14.810947   -438.06314    -423.2522   -9761.8545     3755.385    1090.7009   -34131.649    15.277358    13.230575    28.273119    5714.7955 
  137500      137.486    354.08986    14.554767   -437.78308   -423.22831   -10391.169     5754.351    -2929.006   -33998.852     15.27736    13.230577    28.273102    5714.7938 
  138000      137.986    385.15138    15.831542   -439.03699   -423.20545   -11208.424    3804.5969   -1442.1673   -35987.702    15.277362     13.23058    28.273084    5714.7921 
  138500      138.486    386.66099    15.893594     -439.075   -423.18141   -11711.183    4102.8892   -3083.3728   -36153.066    15.277365    13.230582    28.273067    5714.7904 
  139000      138.986    382.52998     15.72379   -438.88174   -423.15795   -10566.921    5768.5441   -3314.3512   -34154.955    15.277367    13.230584    28.273049    5714.7886 
  139500      139.486    372.38087    15.306614   -438.44113   -423.13451   -10349.747    5458.6165   -3391.2178   -33116.639     15.27737    13.230586    28.273032    5714.7869 
  140000      139.986    361.44645    14.857157   -437.96745    -423.1103   -10325.393     5383.932    -4447.507   -31912.604    15.277372    13.230588    28.273014    5714.7852 
  140500      140.486      380.118    15.624646   -438.71152   -423.08688   -11091.488    6456.3704   -3904.7779   -35826.056    15.277374     13.23059    28.272997    5714.7835 
  141000      140.986    379.54233    15.600984   -438.66387   -423.06289   -10671.788    7627.2518   -4982.5807   -34660.034    15.277377    13.230592     28.27298    5714.7818 
  141500      141.486    359.64153    14.782967   -437.82141   -423.03845   -9351.5926    6549.4223   -4181.9352   -30422.265    15.277379    13.230594    28.272962      5714.78 
  142000      141.986    380.76682    15.651316    -438.6666   -423.01528   -11048.466    5275.1816   -3276.1839   -35144.395    15.277382    13.230596    28.272945    5714.7783 
  142500      142.486    386.06191    15.868969   -438.86078   -422.99181   -11301.359      6179.12   -2117.0103   -37966.186    15.277384    13.230598    28.272927    5714.7766 
  143000      142.986    368.10443    15.130832   -438.09818   -422.96734   -10460.375    6658.0417    -3194.126   -34845.042    15.277386    13.230601     28.27291    5714.7749 
  143500      143.486     357.9936    14.715229   -437.65841   -422.94319   -10791.363    3020.8403   -1008.6976    -34386.23    15.277389    13.230603    28.272892    5714.7731 
  144000      143.986    397.56858    16.341948   -439.26145   -422.91951   -10705.669    6839.7197    -3481.224   -35475.502    15.277391    13.230605    28.272875    5714.7714 
  144500      144.486    374.97288    15.413158   -438.30865   -422.89549   -10885.466    6620.2845   -4319.8955   -34956.785    15.277394    13.230607    28.272857    5714.7697 
  145000      144.986    383.94448    15.781933    -438.6528   -422.87087   -10485.766    3596.3601   -1343.4073    -33710.25    15.277396    13.230609     28.27284     5714.768 
  145500      145.486    376.19989    15.463594   -438.31086   -422.84727   -9829.2533    5814.7747    -2550.086   -32752.449    15.277398    13.230611    28.272823    5714.7663 
  146000      145.986    360.05059    14.799781    -437.6222   -422.82242    -9942.385    5807.6244   -3375.2093    -32259.57    15.277401    13.230613    28.272805    5714.7645 
  146500      146.486    367.98293    15.125838   -437.92451   -422.79868   -10340.555    5970.4522    -2817.962   -34174.154    15.277403    13.230615    28.272788    5714.7628 
  147000      146.986    380.74817    15.650549   -438.42557   -422.77502   -10602.072    5773.7102   -1313.6928   -36266.234    15.277406    13.230617     28.27277    5714.7611 
  147500      147.486    403.70471    16.594172   -439.34535   -422.75118    -10940.26    6041.7801   -2688.6181   -36173.943    15.277408    13.230619    28.272753    5714.7594 
  148000      147.986    384.12276    15.789261   -438.51572   -422.72646    -11021.61    4197.2284   -271.64392   -36990.414     15.27741    13.230622    28.272735    5714.7576 
  148500      148.486    368.92306    15.164481   -437.86628    -422.7018   -9460.8765    5493.3262   -1636.1806   -32239.775    15.277413    13.230624    28.272718    5714.7559 
  149000      148.986    384.15718    15.790676   -438.46853   -422.67786   -10229.007     6155.778    -2928.633   -33914.167    15.277415    13.230626      28.2727    5714.7542 
  149500      149.486    385.66412    15.852618   -438.50598   -422.65336   -12042.334    3074.0227   -3227.0713   -35973.954    15.277418    13.230628    28.272683    5714.7525 
  150000      149.986    388.30922    15.961344   -438.59035     -422.629   -9180.3532    7890.4324   -1098.6968   -34332.795     15.27742     13.23063    28.272665    5714.7508 
  150500      150.486    380.70398    15.648733   -438.25322   -422.60448   -8392.9006    9571.3006    -2894.634   -31855.368    15.277422    13.230632    28.272648     5714.749 
  151000      150.986    358.89267    14.752185   -437.33212   -422.57994   -10326.107     6760.461    -1575.882   -36162.901    15.277425    13.230634    28.272631    5714.7473 
  151500      151.486    368.35939    15.141312   -437.69699   -422.55568    -9509.089    7630.1198   -890.03305   -35267.354    15.277427    13.230636    28.272613    5714.7456 
  152000      151.986    387.56623    15.930804   -438.46246   -422.53166   -9492.7899    5941.0513   -1101.0377   -33318.383     15.27743    13.230638    28.272596    5714.7439 
  152500      152.486    388.17005    15.955623   -438.46298   -422.50736   -10939.627    5957.7344   -4303.7303   -34472.884    15.277432     13.23064    28.272578    5714.7421 
  153000      152.986    367.85791    15.120699   -437.60281   -422.48211   -8768.0192    6165.8379   -1793.8722   -30676.023    15.277434    13.230643    28.272561    5714.7404 
  153500      153.486    374.93323    15.411528   -437.86911   -422.45758   -9989.0445    4942.7364   -2660.6991   -32249.171    15.277437    13.230645    28.272543    5714.7387 
  154000      153.986    377.05381    15.498693   -437.93173   -422.43303    -10038.85    4683.1994    1023.4316   -35823.181    15.277439    13.230647    28.272526     5714.737 
  154500      154.486    397.14379    16.324487   -438.73361   -422.40912   -11324.045    5500.2367   -3053.2824    -36419.09    15.277442    13.230649    28.272508    5714.7353 
  155000      154.986    397.40004     16.33502   -438.71916   -422.38414   -11962.271    4883.9001   -1499.5652   -39271.147    15.277444    13.230651    28.272491    5714.7335 
  155500      155.486    376.33868    15.469298   -437.82836   -422.35907   -9769.0546    4688.0186   -3515.8608   -30479.322    15.277446    13.230653    28.272474    5714.7318 
  156000      155.986    397.42526    16.336057   -438.67058   -422.33452    -10607.46    5452.2488   -2538.3971   -34736.232    15.277449    13.230655    28.272456    5714.7301 
  156500      156.486    364.41459    14.979162   -437.28869   -422.30953    -9823.183    4750.0693   -1121.9958   -33097.622    15.277451    13.230657    28.272439    5714.7284 
  157000      156.986    386.95398    15.905637   -438.19101   -422.28537     -11081.4    6775.6605   -3934.6686   -36085.192    15.277454    13.230659    28.272421    5714.7266 
  157500      157.486    386.80295    15.899429    -438.1602   -422.26077   -9332.3041    7378.7022   -2377.4659   -32998.149    15.277456    13.230661    28.272404    5714.7249 
  158000      157.986    370.62014    15.234239   -437.47013   -422.23589   -9978.5488    4550.0453   -3583.0454   -30902.646    15.277458    13.230664    28.272386    5714.7232 
  158500      158.486    383.98194    15.783473   -437.99535   -422.21187   -10457.259    7414.9567   -404.80257   -38381.932    15.277461    13.230666    28.272369    5714.7215 
  159000      158.986    384.67076    15.811786   -437.99855   -422.18676    -10590.73    6993.8027   -937.40921   -37828.582    15.277463    13.230668    28.272351    5714.7198 
  159500      159.486    388.67276    15.976288   -438.13853   -422.16225   -9753.9744    5893.1636   -996.59293   -34158.494    15.277466     13.23067    28.272334     5714.718 
  160000      159.986    403.65057    16.591946   -438.72878   -422.13684   -11322.161    5800.2239   -6170.6467    -33596.06    15.277468    13.230672    28.272316    5714.7163 
  160500      160.486    366.08739    15.047922   -437.15967   -422.11175   -9580.2843     7108.227   -970.94404   -34878.136     15.27747    13.230674    28.272299    5714.7146 
  161000      160.986    388.23246    15.958189   -438.04557   -422.08738   -10165.472    4495.2233   -475.01352   -34516.626    15.277473    13.230676    28.272282    5714.7129 
  161500      161.486    410.20055    16.861181   -438.92328    -422.0621   -10957.241    4964.0725   -3184.1831   -34651.613    15.277475    13.230678    28.272264    5714.7111 
  162000      161.986     377.3723    15.511785   -437.54822   -422.03644   -9874.5534    5326.6672   -2579.2921   -32371.035    15.277478     13.23068    28.272247    5714.7094 
  162500      162.486    395.40149     16.25287   -438.26513   -422.01226   -8981.1847     7528.891    -2206.804   -32265.641     15.27748    13.230682    28.272229    5714.7077 
  163000      162.986    379.15412    15.585026   -437.57208   -421.98705   -10003.237    6380.7054   -4585.4413   -31804.976    15.277482    13.230685    28.272212     5714.706 
  163500      163.486    383.81845    15.776752    -437.7388   -421.96204    -11952.68     6291.983   -3552.3721   -38597.652    15.277485    13.230687    28.272194    5714.7042 
  164000      163.986    375.50739    15.435128   -437.37211   -421.93699   -10700.027     6212.967   -1415.5988   -36897.449    15.277487    13.230689    28.272177    5714.7025 
  164500      164.486    374.47675    15.392764   -437.30474   -421.91198   -8485.4002    6729.2354   -890.18331   -31295.253     15.27749    13.230691    28.272159    5714.7008 
  165000      164.986    404.63369    16.632357   -438.51963   -421.88727   -10862.711    5239.2019   -2644.4308   -35182.905    15.277492    13.230693    28.272142    5714.6991 
  165500      165.486     390.4478     16.04925   -437.91132   -421.86207   -10495.128    4022.4273   -0.1031126   -35507.708    15.277494    13.230695    28.272125    5714.6974 
  166000      165.986    396.76895    16.309079   -438.14617   -421.83709   -11161.626    3585.7589   -3213.3852   -33857.252    15.277497    13.230697    28.272107    5714.6956 
  166500      166.486    385.80537    15.858424   -437.67004   -421.81161   -10703.227    4294.8551   -2608.7065   -33795.829    15.277499    13.230699     28.27209    5714.6939 
  167000      166.986    399.80958    16.434063   -438.22028   -421.78621   -10150.488    4740.3705    -4287.448   -30904.387    15.277502    13.230701    28.272072    5714.6922 
  167500      167.486    369.69206    15.196091   -436.95687   -421.76078   -8840.8924    9819.1497   -1164.8257   -35177.001    15.277504    13.230703    28.272055    5714.6905 
  168000      167.986    386.26012    15.877116   -437.61242    -421.7353    -11401.04    6009.6624   -1533.8579   -38678.925    15.277506    13.230706    28.272037    5714.6887 
  168500      168.486    386.88665     15.90287   -437.61289   -421.71002   -10698.465    6665.3906   -2851.7406   -35909.046    15.277509    13.230708     28.27202     5714.687 
  169000      168.986    399.13082    16.406163   -438.09117     -421.685   -10051.023    4677.2152   -3108.5274   -31721.756    15.277511     13.23071    28.272002    5714.6853 
  169500      169.486    396.42825    16.295075   -437.95447   -421.65939   -9334.1432    7800.5157    456.22434    -36259.17    15.277514    13.230712    28.271985    5714.6836 
  170000      169.986    400.56299    16.465032   -438.09969   -421.63466   -10366.613    4279.7892   -1450.1357   -33929.492    15.277516    13.230714    28.271967    5714.6819 
  170500      170.486    373.45029    15.350572    -436.9594   -421.60882   -10686.814    4911.9456   -3669.5899   -33302.797    15.277518    13.230716     28.27195    5714.6801 
  171000      170.986    386.96883    15.906248   -437.48991   -421.58366   -10376.409    3854.0344   -2981.7773   -32001.483    15.277521    13.230718    28.271933    5714.6784 
  171500      171.486    412.17582    16.942374   -438.50158    -421.5592    -10257.39    5280.4236    115.49607   -36168.091    15.277523     13.23072    28.271915    5714.6767 
  172000      171.986    392.94032    16.151704   -437.68454   -421.53284   -9932.3045    6750.8973     -1030.52   -35517.291    15.277526    13.230722    28.271898     5714.675 
  172500      172.486    400.06327    16.444491   -437.95282   -421.50833   -10176.156    4559.1843   -3410.0895   -31677.562    15.277528    13.230724     28.27188    5714.6732 
  173000      172.986    388.75152    15.979525   -437.46208   -421.48255   -10060.897    5228.2684    211.23991   -35622.198     15.27753    13.230727    28.271863    5714.6715 
  173500      173.486    396.74603    16.308137   -437.76526   -421.45712   -10348.892    4678.3923    -1524.932   -34200.137    15.277533    13.230729    28.271845    5714.6698 
  174000      173.986    372.05036    15.293028   -436.72444   -421.43141   -8840.3033    5155.6531    1636.5849   -33313.148    15.277535    13.230731    28.271828    5714.6681 
  174500      174.486    424.72391     17.45816   -438.86485   -421.40669   -11555.437    3056.1003   -2272.7859   -35449.624    15.277538    13.230733     28.27181    5714.6664 
  175000      174.986    398.71915    16.389241   -437.76973   -421.38049   -9413.1375    6033.2266   -496.84217   -33775.797     15.27754    13.230735    28.271793    5714.6646 
  175500      175.486    386.28791    15.878259    -437.2333   -421.35504   -10630.889      4739.97   -2315.6211   -34317.016    15.277542    13.230737    28.271776    5714.6629 
  176000      175.986    392.31389    16.125955   -437.45538   -421.32942   -9804.2376    7279.8188   -1813.1113    -34879.42    15.277545    13.230739    28.271758    5714.6612 
  176500      176.486    387.41764    15.924696   -437.22865   -421.30395    -9785.526     5937.662   -2636.5245   -32657.716    15.277547    13.230741    28.271741    5714.6595 
  177000      176.986    408.22728     16.78007   -438.05872   -421.27865   -10049.443    7766.1352   -4398.4162   -33516.048     15.27755    13.230743    28.271723    5714.6577 
  177500      177.486    402.50746    16.544959    -437.7972   -421.25224   -9462.0084     9427.625   -4298.4287   -33515.221    15.277552    13.230745    28.271706     5714.656 
  178000      177.986     386.9143    15.904006    -437.1308   -421.22679    -9423.789    5903.9921     -287.701   -33887.658    15.277554    13.230748    28.271688    5714.6543 
  178500      178.486    405.92966    16.685627   -437.88732   -421.20169   -10129.876    5835.5362   -922.13357   -35303.031    15.277557     13.23075    28.271671    5714.6526 
  179000      178.986    397.90579    16.355808   -437.53126   -421.17546   -8386.5408      4532.28     86.22264   -29778.125    15.277559    13.230752    28.271653    5714.6509 
  179500      179.486    415.06618    17.061181   -438.21094   -421.14976   -10630.957    6908.3482   -2741.9191   -36059.301    15.277562    13.230754    28.271636    5714.6491 
  180000      179.986    403.43018    16.582887   -437.70695   -421.12406   -8772.3443    7242.2828   -1792.1116   -31767.204    15.277564    13.230756    28.271618    5714.6474 
  180500      180.486    405.42209    16.664764   -437.76277     -421.098   -10461.658    4088.3385    187.55964   -35660.873    15.277566    13.230758    28.271601    5714.6457 
  181000      180.986    408.55901    16.793706   -437.86594   -421.07223   -9794.3715    5086.4651   -2015.8646   -32453.715    15.277569     13.23076    28.271584     5714.644 
  181500      181.486    413.04381    16.978053   -438.02422   -421.04617   -10227.711     4939.982   -1471.9319   -34151.182    15.277571    13.230762    28.271566    5714.6422 
  182000      181.986    409.71594    16.841261   -437.86134   -421.02007   -9723.8721    6655.9136   -3549.4586   -32278.071    15.277574    13.230764    28.271549    5714.6405 
  182500      182.486    401.26686    16.493964   -437.48775   -420.99379   -9673.0713    5678.2887    -3410.466   -31287.037    15.277576    13.230766    28.271531    5714.6388 
  183000      182.986    405.28144    16.658983   -437.62731   -420.96833   -9105.0816    7704.1826   -4062.6209   -30956.806    15.277578    13.230769    28.271514    5714.6371 
  183500      183.486    415.15571    17.064862    -438.0075   -420.94264   -9099.7281    7549.9542    874.19755   -35723.336    15.277581    13.230771    28.271496    5714.6354 
  184000      183.986    401.07462    16.486062    -437.4027   -420.91664   -9206.1455    6934.0456   -956.75887   -33595.723    15.277583    13.230773    28.271479    5714.6336 
  184500      184.486      402.382    16.539802   -437.43003   -420.89023   -10288.787     4222.033   -395.22155   -34693.173    15.277586    13.230775    28.271461    5714.6319 
  185000      184.986    402.89821    16.561021   -437.42523    -420.8642    -9130.565    4481.5053     398.3066   -32271.507    15.277588    13.230777    28.271444    5714.6302 
  185500      185.486    418.62297    17.207382    -438.0455   -420.83811   -9314.0279      5780.72   -1218.2571   -32504.547     15.27759    13.230779    28.271427    5714.6285 
  186000      185.986    408.97335    16.810738   -437.62232   -420.81158   -9736.3793    9935.0691   -4534.8056   -34609.402    15.277593    13.230781    28.271409    5714.6267 
  186500      186.486    389.36409    16.004704   -436.79007   -420.78537   -10258.356    9510.2138   -1787.7688   -38497.514    15.277595    13.230783    28.271392     5714.625 
  187000      186.986    408.09455    16.774615   -437.53435   -420.75974    -10754.76    6413.1563   -1129.0478   -37548.388    15.277598    13.230785    28.271374    5714.6233 
  187500      187.486    418.78784    17.214159   -437.94836    -420.7342   -9744.2006    6424.5226   -3356.5425   -32300.582      15.2776    13.230787    28.271357    5714.6216 
  188000      187.986    401.45735    16.501794   -437.20908   -420.70728   -9581.3657    5495.6124    -1997.818   -32241.891    15.277602     13.23079    28.271339    5714.6198 
  188500      188.486    402.68782    16.552373   -437.23372   -420.68135   -9370.9938    6529.6236    944.26535    -35586.87    15.277605    13.230792    28.271322    5714.6181 
  189000      188.986    419.17398    17.230032   -437.88518   -420.65515   -10444.211    4724.6184   -3087.7643   -32969.488    15.277607    13.230794    28.271304    5714.6164 
  189500      189.486    405.39358    16.663592   -437.29272   -420.62913   -10125.155    7528.6755   -1621.6523   -36282.489     15.27761    13.230796    28.271287    5714.6147 
  190000      189.986    404.96012    16.645775   -437.24856   -420.60279   -9278.9193    9535.9895   -4105.1129   -33267.635    15.277612    13.230798    28.271269     5714.613 
  190500      190.486    408.80515    16.803824   -437.38048   -420.57666    -10733.82    6290.9117   -3580.6326   -34911.739    15.277614      13.2308    28.271252    5714.6112 
  191000      190.986    405.35759    16.662113    -437.2121   -420.54998   -9748.6966    4640.6572    449.20469   -34335.952    15.277617    13.230802    28.271235    5714.6095 
  191500      191.486    409.64763    16.838454   -437.36283   -420.52438   -9140.4855    6599.3538   -1235.1907    -32785.62    15.277619    13.230804    28.271217    5714.6078 
  192000      191.986    397.92602     16.35664   -436.85369   -420.49705   -9073.8546    6990.0311    1121.4516   -35333.046    15.277622    13.230806      28.2712    5714.6061 
  192500      192.486    407.11986     16.73455   -437.20557   -420.47102   -10472.347    5700.5432   -1442.1328   -35675.452    15.277624    13.230808    28.271182    5714.6043 
  193000      192.986    421.13556    17.310662   -437.75573   -420.44507   -9542.1431    7054.9864   -7010.3785   -28671.037    15.277626    13.230811    28.271165    5714.6026 
  193500      193.486    423.62303    17.412909    -437.8314   -420.41849   -11757.293    4577.8039   -1925.3264   -37924.356    15.277629    13.230813    28.271147    5714.6009 
  194000      193.986    391.08384    16.075394   -436.46711   -420.39172   -8726.0289    9265.3213    674.94797   -36118.356    15.277631    13.230815     28.27113    5714.5992 
  194500      194.486    407.78319    16.761817   -437.12803   -420.36622   -9041.8456    5651.9268   -4163.4181   -28614.046    15.277634    13.230817    28.271112    5714.5975 
  195000      194.986    425.80102    17.502434   -437.84244   -420.34001   -10858.783    2577.4564   -24.960643   -35128.846    15.277636    13.230819    28.271095    5714.5957 
  195500      195.486    419.07857     17.22611    -437.5391   -420.31299    -8985.717    6493.5614    497.42565   -33948.138    15.277638    13.230821    28.271078     5714.594 
  196000      195.986    410.13342    16.858422   -437.14441   -420.28598   -11244.355    4518.1671   -1427.9755   -36823.256    15.277641    13.230823     28.27106    5714.5923 
  196500      196.486    410.75339    16.883906   -437.14302   -420.25912   -8540.6785    9046.7089   -2209.4086   -32459.336    15.277643    13.230825    28.271043    5714.5906 
  197000      196.986    400.40683    16.458613   -436.69149   -420.23287   -7793.9413    9406.5743    225.83348   -33014.232    15.277646    13.230827    28.271025    5714.5888 
  197500      197.486    400.52009    16.463269   -436.66908   -420.20582   -9482.5259    7627.1883   -1624.4763    -34450.29    15.277648    13.230829    28.271008    5714.5871 
  198000      197.986    420.50466    17.284729   -437.46494   -420.18021   -11127.457    4603.1166    -2402.994   -35582.494     15.27765    13.230832     28.27099    5714.5854 
  198500      198.486    405.53412    16.669369   -436.82226   -420.15289   -8901.3943    6180.9218    386.15954   -33271.264    15.277653    13.230834    28.270973    5714.5837 
  199000      198.986    407.43669    16.747574   -436.87303   -420.12545   -8911.1354    8016.0637   -3328.6034   -31420.867    15.277655    13.230836    28.270955     5714.582 
  199500      199.486    424.78854    17.460817   -437.56033   -420.09952   -9827.8826    8486.9946   -3902.4568   -34068.185    15.277658    13.230838    28.270938    5714.5802 
  200000      199.986    432.72373     17.78699   -437.85906   -420.07207   -10510.848    4970.9405    16.320656   -36519.805     15.27766     13.23084     28.27092    5714.5785 
  200500      200.486    429.77439    17.665759   -437.71173   -420.04597   -9752.8056    7509.6856   -2854.6802   -33913.422    15.277662    13.230842    28.270903    5714.5768 
  201000      200.986    428.81789    17.626442   -437.64541   -420.01897   -8456.2382    6414.7317    825.04111   -32608.487    15.277665    13.230844    28.270886    5714.5751 
  201500      201.486    423.69707    17.415952    -437.4084   -419.99244   -9310.6698    6240.6557   -1035.3329   -33137.332    15.277667    13.230846    28.270868    5714.5733 
  202000      201.986    429.79637    17.666662   -437.63256   -419.96589   -9450.2999    7643.7929   -4862.2181   -31132.475     15.27767    13.230848    28.270851    5714.5716 
  202500      202.486    403.22161    16.574314   -436.51256   -419.93825   -8871.2566    7280.5979    2394.1628   -36288.531    15.277672     13.23085    28.270833    5714.5699 
  203000      202.986    438.79387    18.036502   -437.94924   -419.91274   -9208.4594    6431.1492   -911.26765    -33145.26    15.277674    13.230853    28.270816    5714.5682 
  203500      203.486    411.82384    16.927906   -436.81207   -419.88417   -9797.5746    6805.8597   -822.02519   -35376.558    15.277677    13.230855    28.270798    5714.5665 
  204000      203.986    421.42344    17.322495   -437.18027   -419.85777   -7970.8236    7328.1425   -167.44039   -31073.173    15.277679    13.230857    28.270781    5714.5647 
  204500      204.486    421.40324    17.321665   -437.15266     -419.831   -9149.3106    9213.3021   -4117.3289   -32543.905    15.277682    13.230859    28.270763     5714.563 
  205000      204.986    431.36636    17.731196   -437.53534   -419.80414   -10488.512    5107.4886   -425.08511   -36147.938    15.277684    13.230861    28.270746    5714.5613 
  205500      205.486    408.96995    16.810598   -436.58786   -419.77726   -8550.4253    5402.9661    897.41941   -31951.661    15.277686    13.230863    28.270729    5714.5596 
  206000      205.986    407.42476    16.747083   -436.49681   -419.74972    -10285.36    7363.8544   -4172.0085   -34047.927    15.277689    13.230865    28.270711    5714.5578 
  206500      206.486    427.27021    17.562825   -437.28587   -419.72305   -9356.5869    5813.4791    -3136.838   -30746.402    15.277691    13.230867    28.270694    5714.5561 
  207000      206.986    422.38043    17.361832   -437.05808   -419.69625   -8389.1722    10608.901   -2117.6084   -33658.809    15.277694    13.230869    28.270676    5714.5544 
  207500      207.486    422.23032    17.355662    -437.0254   -419.66974   -9369.7972    7880.7787   -155.38577   -35834.784    15.277696    13.230871    28.270659    5714.5527 
  208000      207.986    431.13213    17.721568   -437.36382   -419.64225   -9137.2252    8614.9699   -3748.7257    -32277.92    15.277698    13.230874    28.270641    5714.5509 
  208500      208.486    422.77484    17.378044   -436.99333   -419.61529   -8703.8675    11286.401   -3577.8433    -33820.16    15.277701    13.230876    28.270624    5714.5492 
  209000      208.986    404.00923    16.606689   -436.19523   -419.58855   -8592.2184    5775.3903    1602.1068   -33154.152    15.277703    13.230878    28.270606    5714.5475 
  209500      209.486    410.61429    16.878188   -436.43902   -419.56083   -9572.4295    6709.2856    -2755.862   -32670.712    15.277706     13.23088    28.270589    5714.5458 
  210000      209.986    415.32718     17.07191   -436.60575   -419.53384   -9401.7057    6113.4125    1019.5897   -35338.119    15.277708    13.230882    28.270571    5714.5441 
  210500      210.486    435.60372    17.905372   -437.41231   -419.50694   -9744.2847    6785.4429   -2948.0709   -33070.226     15.27771    13.230884    28.270554    5714.5423 
  211000      210.986    424.76219    17.459734   -436.93945   -419.47971    -8804.217    8464.2155   -1330.9779   -33545.888    15.277713    13.230886    28.270537    5714.5406 
  211500      211.486    416.31915    17.112685   -436.56485   -419.45217   -10694.068    4031.9985   -1444.8829   -34669.321    15.277715    13.230888    28.270519    5714.5389 
  212000      211.986    415.50183    17.079089   -436.50457   -419.42548   -7617.8848    9660.4233   -1389.6722   -31124.406    15.277718     13.23089    28.270502    5714.5372 
[...]
  948500      948.486    598.27163    24.591791   -432.81535   -408.22356   -4689.1389    10893.244    8140.2759   -33100.937    15.281253    13.233984    28.244798    5711.9977 
  949000      948.986    565.64265    23.250586   -431.46962   -408.21904   -3274.7719    8290.2501    8429.9994   -26544.565    15.281255    13.233986     28.24478     5711.996 
  949500      949.486    550.50484    22.628351   -430.84464   -408.21629   -3961.2469    8646.9136    10037.554   -30568.208    15.281258    13.233988    28.244763    5711.9942 
  950000      949.986    558.56817    22.959791   -431.17335   -408.21355   -3734.4057    10056.672      7328.07   -28587.959     15.28126     13.23399    28.244745    5711.9925 
  950500      950.486    574.42783    23.611699   -431.82212   -408.21042   -4101.5595    6219.4283    10120.775   -28644.882    15.281262    13.233992    28.244728    5711.9908 
  951000      950.986    543.61549    22.345166   -430.55325   -408.20809   -2464.4154    7543.3972    15012.879   -29949.523    15.281265    13.233994    28.244711    5711.9891 
  951500      951.486    572.86755    23.547564   -431.75294   -408.20537   -3357.6207    10587.796    5860.8924    -26521.55    15.281267    13.233996    28.244693    5711.9873 
  952000      951.986    569.02054    23.389433   -431.59134   -408.20191   -2471.0333    8959.0132    10967.749   -27339.862     15.28127    13.233998    28.244676    5711.9856 
  952500      952.486    585.29168    24.058254   -432.25666   -408.19841   -4732.6335    7109.8237    8945.5813   -30253.306    15.281272       13.234    28.244658    5711.9839 
  953000      952.986    576.48873    23.696411     -431.891   -408.19459    -4364.255    9198.9562    7001.4691    -29293.19    15.281274    13.234003    28.244641    5711.9822 
  953500      953.486    566.60746    23.290245   -431.47987   -408.18962   -2976.2138    10411.478    3874.6204   -23214.739    15.281277    13.234005    28.244623    5711.9804 
  954000      953.986    596.31368     24.51131   -432.69863   -408.18732   -5598.8996    5563.7627    6522.4053   -28882.867    15.281279    13.234007    28.244606    5711.9787 
  954500      954.486    546.87462    22.479131   -430.66177   -408.18263   -4202.5742    4594.1472    11705.649   -28907.519    15.281282    13.234009    28.244588     5711.977 
  955000      954.986    557.70102    22.924148   -431.10163   -408.17748   -3438.4355      6216.62    8098.3305   -24630.257    15.281284    13.234011    28.244571    5711.9753 
  955500      955.486    595.46935    24.476605   -432.65037   -408.17377   -3495.6103    7846.7319    8686.8632   -27020.426    15.281286    13.234013    28.244554    5711.9735 
  956000      955.986     553.2349    22.740569   -430.91018   -408.16961   -3595.8031    5871.0434    8027.0962   -24685.549    15.281289    13.234015    28.244536    5711.9718 
  956500      956.486    562.85122    23.135845   -431.30065    -408.1648   -3720.6903    6727.8702    10906.498   -28796.439    15.281291    13.234017    28.244519    5711.9701 
  957000      956.986    567.71963     23.33596   -431.49612   -408.16016   -3543.3125    7144.1538     9414.536   -27188.627    15.281294    13.234019    28.244501    5711.9683 
  957500      957.486    579.01075    23.800078   -431.95575   -408.15567   -4408.6267    8542.7788    6411.0235   -28179.682    15.281296    13.234021    28.244484    5711.9666 
  958000      957.986     534.3443    21.964076   -430.11474   -408.15066   -2582.0177     5076.921    13763.075   -26586.049    15.281298    13.234024    28.244466    5711.9649 
  958500      958.486    566.29996    23.277605   -431.42309   -408.14549   -4300.2911     7980.228    9678.5701   -30559.671    15.281301    13.234026    28.244449    5711.9632 
  959000      958.986     587.7252    24.158284   -432.29917   -408.14089   -4239.6171    9359.6431    7690.6909   -29769.185    15.281303    13.234028    28.244431    5711.9614 
  959500      959.486    581.03506    23.883287   -432.01879    -408.1355   -4366.5914    8241.6173     10262.34   -31603.732    15.281306     13.23403    28.244414    5711.9597 
  960000      959.986    563.73922    23.172346   -431.30309   -408.13074   -4972.8247    7535.6429    4517.6854   -26971.802    15.281308    13.234032    28.244396     5711.958 
  960500      960.486    579.93687    23.838146   -431.96363   -408.12548   -3518.8281    8332.9175    8287.5895   -27176.991     15.28131    13.234034    28.244379    5711.9563 
  961000      960.986    587.59989    24.153133     -432.274   -408.12087   -3856.5582    6152.6088    9595.8245   -27318.108    15.281313    13.234036    28.244362    5711.9545 
  961500      961.486    573.56073    23.576057   -431.69137   -408.11531   -1915.2517    9131.3071     11731.47   -26608.532    15.281315    13.234038    28.244344    5711.9528 
  962000      961.986    541.37792    22.253191   -430.36361   -408.11041   -3117.3045    11490.634    9802.3651   -30644.913    15.281318     13.23404    28.244327    5711.9511 
  962500      962.486    569.62728    23.414373   -431.52094   -408.10657   -3336.8095    9562.4309    11708.143   -31281.003     15.28132    13.234042    28.244309    5711.9494 
  963000      962.986    545.48619     22.42206   -430.52241   -408.10035   -2346.9414    7170.2979    9782.9013   -23994.023    15.281322    13.234045    28.244292    5711.9476 
  963500      963.486    577.16359    23.724151   -431.81824   -408.09409   -4731.4361    4093.8494    10934.425   -29222.582    15.281325    13.234047    28.244274    5711.9459 
  964000      963.986    556.92063     22.89207   -430.98071   -408.08864   -3339.9283    11954.066    6943.6217   -28917.473    15.281327    13.234049    28.244257    5711.9442 
  964500      964.486    576.42504    23.693793    -431.7774    -408.0836   -3613.2327    7847.3179    8901.4592   -27588.475     15.28133    13.234051    28.244239    5711.9425 
  965000      964.986     580.7487    23.871516   -431.94975   -408.07824   -4099.2502    5223.1251     8927.355   -26448.231    15.281332    13.234053    28.244222    5711.9407 
  965500      965.486    557.22471    22.904569   -430.97579   -408.07123   -3661.7954    7812.5356    5490.5044   -24288.426    15.281334    13.234055    28.244205     5711.939 
  966000      965.986    594.33358    24.429919   -432.49603   -408.06612   -5548.0057    6445.7641    9618.1641   -32707.945    15.281337    13.234057    28.244187    5711.9373 
  966500      966.486    585.47654    24.065853   -432.12531   -408.05945   -5015.4684    5054.3952    7905.3758   -28006.176    15.281339    13.234059     28.24417    5711.9356 
  967000      966.986     551.6796    22.676639   -430.73048   -408.05384   -3787.6052    8627.8211    11543.595   -31534.232    15.281342    13.234061    28.244152    5711.9338 
  967500      967.486    556.28328    22.865872   -430.91324   -408.04737   -2758.0421    9664.1407    7938.0412   -25876.308    15.281344    13.234063    28.244135    5711.9321 
  968000      967.986    566.31989    23.278424   -431.32087   -408.04245   -4249.5245     6993.566    10903.003   -30645.143    15.281346    13.234066    28.244117    5711.9304 
  968500      968.486    557.61498    22.920611   -430.95748   -408.03687   -3132.1256    8109.4549    12172.037   -29677.869    15.281349    13.234068      28.2441    5711.9287 
  969000      968.986    594.72342    24.445943   -432.47787   -408.03192   -4333.5216    5635.2466    8329.3876   -26965.199    15.281351     13.23407    28.244082    5711.9269 
  969500      969.486    564.92502    23.221088   -431.24837   -408.02728   -4808.8941    6550.0043    5108.1605   -26084.847    15.281354    13.234072    28.244065    5711.9252 
  970000      969.986    566.73792    23.295607   -431.31523   -408.01962    -3706.386     10881.57     8160.571   -30161.299    15.281356    13.234074    28.244047    5711.9235 
  970500      970.486    571.42719    23.488358   -431.50356    -408.0152   -4175.6004    5628.8825    12148.854   -30304.538    15.281358    13.234076     28.24403    5711.9218 
  971000      970.986    557.66993     22.92287   -430.93119   -408.00832   -2416.2835    8710.7079    9734.0126   -25693.571    15.281361    13.234078    28.244013      5711.92 
  971500      971.486     587.9485    24.167462   -432.17015   -408.00268   -3897.0521     5299.369    8539.1082   -25529.634    15.281363     13.23408    28.243995    5711.9183 
  972000      971.986    592.05248    24.336155   -432.33453   -407.99838    -3481.956    6858.9778    9863.2392   -27168.085    15.281366    13.234082    28.243978    5711.9166 
  972500      972.486     577.2333    23.727017   -431.71778   -407.99076   -2995.1221    8644.8381    13749.408   -31379.612    15.281368    13.234084     28.24396    5711.9149 
  973000      972.986    587.96476    24.168131   -432.15274   -407.98461   -3868.3167    8798.9415    10284.532   -30688.424     15.28137    13.234087    28.243943    5711.9131 
  973500      973.486    557.63172    22.921299   -430.89918   -407.97788   -3466.1724    8196.1989    6771.9289   -25366.645    15.281373    13.234089    28.243925    5711.9114 
  974000      973.986    577.29501    23.729553   -431.70159   -407.97203    -3056.678    7268.6116    9610.2479   -26048.894    15.281375    13.234091    28.243908    5711.9097 
  974500      974.486    543.74234     22.35038   -430.31427   -407.96389   -4215.1953    3381.1981    9784.2686   -25811.053    15.281378    13.234093     28.24389     5711.908 
  975000      974.986    578.82213    23.792325   -431.75128   -407.95895   -3519.1387    5362.3641    8253.2714   -24173.052     15.28138    13.234095    28.243873    5711.9062 
  975500      975.486    561.17225    23.066832   -431.01847   -407.95163   -3558.2923    4947.8236    8383.7653   -24006.466    15.281382    13.234097    28.243856    5711.9045 
  976000      975.986    569.53256     23.41048   -431.35545   -407.94497   -3762.9804    8136.3555     9650.414   -29075.711    15.281385    13.234099    28.243838    5711.9028 
  976500      976.486    577.27636    23.728787   -431.66751   -407.93872   -3041.1378    8862.8057    7353.5675   -25339.787    15.281387    13.234101    28.243821    5711.9011 
  977000      976.986    570.13849    23.435387   -431.36766   -407.93228   -4329.7359    8012.7742    7339.9867   -28341.969     15.28139    13.234103    28.243803    5711.8993 
  977500      977.486    592.38434    24.349796   -432.27536   -407.92556   -4941.6061    5651.0962    9318.4624   -29794.377    15.281392    13.234105    28.243786    5711.8976 
  978000      977.986    575.31321    23.648092   -431.56676   -407.91866   -2061.7841    4568.0889    11018.256   -21771.697    15.281394    13.234108    28.243768    5711.8959 
  978500      978.486    618.84858    25.437601   -433.35016   -407.91256   -4872.5098    5231.7798    7744.7195   -27594.029    15.281397     13.23411    28.243751    5711.8942 
  979000      978.986    563.81737    23.175559   -431.08091   -407.90536   -5406.3877    5864.8066     9795.853   -31879.823    15.281399    13.234112    28.243733    5711.8924 
  979500      979.486     568.4348    23.365357   -431.26321   -407.89786   -2448.0121    11032.102    9241.0344   -27617.173    15.281402    13.234114    28.243716    5711.8907 
  980000      979.986    586.71155    24.116618   -432.00593   -407.88931   -2757.6929    8490.6353    7815.5292   -24579.243    15.281404    13.234116    28.243698     5711.889 
  980500      980.486    540.64247    22.222961   -430.10657   -407.88361   -3053.7157     6363.234     10612.07   -26136.451    15.281406    13.234118    28.243681    5711.8872 
  981000      980.986    606.90612     24.94671    -432.8241   -407.87739   -4090.0301    9849.6038    7552.0255    -29671.72    15.281409     13.23412    28.243664    5711.8855 
  981500      981.486    565.36367    23.239119   -431.10967   -407.87055   -2184.5025    9184.0052    11942.482   -27679.995    15.281411    13.234122    28.243646    5711.8838 
  982000      981.986    574.12003    23.599046    -431.4611   -407.86206   -2559.0802    10111.899    9996.1739   -27785.313    15.281414    13.234124    28.243629    5711.8821 
  982500      982.486    571.43024    23.488484   -431.34358   -407.85509   -3301.7027    6944.9737    10556.832   -27406.914    15.281416    13.234126    28.243611    5711.8803 
  983000      982.986    591.10843     24.29735   -432.14508   -407.84773   -3805.9197    3743.5974    13664.025   -28825.382    15.281418    13.234129    28.243594    5711.8786 
  983500      983.486    591.07599    24.296017   -432.13544   -407.83942   -4914.7509    6104.9774    8811.4701     -29660.7    15.281421    13.234131    28.243576    5711.8769 
  984000      983.986     532.3448    21.881887   -429.71311   -407.83123   -2453.5696    5993.6358     11570.31   -24924.654    15.281423    13.234133    28.243559    5711.8752 
  984500      984.486    579.92162     23.83752   -431.66184   -407.82433   -2949.8237    7215.8205    10547.396   -26612.687    15.281426    13.234135    28.243541    5711.8734 
  985000      984.986    589.62824    24.236507   -432.05295   -407.81644   -6087.6451    5825.7082    8896.9018   -32985.545    15.281428    13.234137    28.243524    5711.8717 
  985500      985.486    575.57327    23.658782   -431.46803   -407.80925   -2783.3669    10141.596    6913.7539    -25405.45     15.28143    13.234139    28.243507      5711.87 
  986000      985.986     559.7886    23.009957   -430.81131   -407.80135   -4375.7713    5354.9327    10534.307   -29016.553    15.281433    13.234141    28.243489    5711.8683 
  986500      986.486    612.68683    25.184324   -432.97937   -407.79504   -3962.0114    9812.7136    9535.1557   -31233.903    15.281435    13.234143    28.243472    5711.8665 
  987000      986.986    554.98606     22.81255   -430.59834   -407.78579   -3349.8987      6192.86    7014.6626   -23257.219    15.281438    13.234145    28.243454    5711.8648 
  987500      987.486    589.77596    24.242579   -432.02005   -407.77747   -3379.8594    8239.9992    11565.074   -29944.651     15.28144    13.234147    28.243437    5711.8631 
  988000      987.986    597.01712    24.540225   -432.30911   -407.76889   -4047.5977    7303.3619    8322.2583   -27768.413    15.281442     13.23415    28.243419    5711.8614 
  988500      988.486    564.74938    23.213869   -430.97533   -407.76146   -3326.5486    5658.6584    12352.811   -27991.115    15.281445    13.234152    28.243402    5711.8596 
  989000      988.986    584.99619    24.046108   -431.79985   -407.75374   -2184.9563    9670.5483     8804.721   -25030.138    15.281447    13.234154    28.243384    5711.8579 
  989500      989.486    600.25039    24.673128    -432.4194   -407.74627   -4046.1914    6988.8372    8802.3413   -27929.753     15.28145    13.234156    28.243367    5711.8562 
  990000      989.986    577.68215    23.745466   -431.48245   -407.73699   -5873.2319    6860.9677    6002.4053   -30483.069    15.281452    13.234158    28.243349    5711.8545 
  990500      990.486    598.37173    24.595906   -432.32545   -407.72955   -2059.9845    10530.615    8999.0809    -25709.65    15.281454     13.23416    28.243332    5711.8527 
  991000      990.986    581.84753    23.916683   -431.63842   -407.72174   -3344.2361    6210.2933    8454.6989     -24697.7    15.281457    13.234162    28.243315     5711.851 
  991500      991.486    563.79688    23.174716   -430.88647   -407.71175   -2475.0729     9266.265    11603.015   -28294.499    15.281459    13.234164    28.243297    5711.8493 
  992000      991.986    573.29432    23.565106   -431.26891   -407.70381   -1501.5344    14388.815    10569.926   -29463.344    15.281462    13.234166     28.24328    5711.8476 
  992500      992.486    560.94188    23.057362   -430.75179   -407.69443   -2864.8627    7373.2111    10573.099   -26540.899    15.281464    13.234168    28.243262    5711.8458 
  993000      992.986    585.47439    24.065765   -431.75299   -407.68723   -4443.0597    6607.2195    9510.4351   -29446.834    15.281466    13.234171    28.243245    5711.8441 
  993500      993.486    593.37912    24.390686   -432.06694   -407.67625   -4072.2854    5524.0144    8964.2842   -26705.155    15.281469    13.234173    28.243227    5711.8424 
  994000      993.986    603.58377    24.810145   -432.47918   -407.66903   -3502.7206    8068.9078    8634.9759   -27212.045    15.281471    13.234175     28.24321    5711.8407 
  994500      994.486    619.31275    25.456681   -433.11739   -407.66071   -3521.6632    8180.8796    7037.2203    -25783.09    15.281474    13.234177    28.243192    5711.8389 
  995000      994.986    583.63171    23.990022   -431.64185   -407.65183   -4946.7318     2859.968     7713.612   -25413.775    15.281476    13.234179    28.243175    5711.8372 
  995500      995.486    582.92669    23.961042   -431.60413   -407.64309   -3923.2773    7786.4418    7600.3106   -27156.584    15.281478    13.234181    28.243158    5711.8355 
  996000      995.986    547.53957    22.506464   -430.14092   -407.63445   -3262.8257     12492.58    8949.4225   -31230.479    15.281481    13.234183     28.24314    5711.8338 
  996500      996.486    559.24167    22.987476   -430.61315   -407.62568   -3289.5178    5881.7072    9493.3751   -25243.636    15.281483    13.234185    28.243123     5711.832 
  997000      996.986    571.66346     23.49807   -431.11518   -407.61711    -4677.479    6015.4996    8857.2541   -28905.191    15.281486    13.234187    28.243105    5711.8303 
  997500      997.486     580.6768    23.868561   -431.47749   -407.60893   -3461.2933    4630.4873    12788.659   -27803.026    15.281488    13.234189    28.243088    5711.8286 
  998000      997.986    580.25396     23.85118   -431.45071   -407.59953   -3217.4903    9815.7437    5419.1756    -24887.39     15.28149    13.234192     28.24307    5711.8269 
  998500      998.486    554.35275    22.786518    -430.3768   -407.59028   -2592.8913    10582.533    8637.8772   -26999.084    15.281493    13.234194    28.243053    5711.8251 
  999000      998.986    580.05994    23.843205    -431.4252   -407.58199   -3225.8675    9452.6084    8481.9299   -27612.141    15.281495    13.234196    28.243035    5711.8234 
  999500      999.486    574.69547      23.6227   -431.19545   -407.57275    -3906.482     4576.722    9606.8473   -25903.015    15.281498    13.234198    28.243018    5711.8217 
 1000000      999.986    606.47699    24.929071   -432.49287    -407.5638   -4280.6697    7531.4576    8116.9439   -28490.411      15.2815      13.2342       28.243      5711.82 
 1000014         1000    602.52279    24.766534    -432.3304   -407.56387   -3421.1062    7237.3211    8587.4039   -26088.044      15.2815      13.2342       28.243    5711.8199 
Loop time of 872.13 on 28 procs for 1000000 steps with 319 atoms

Performance: 99.068 ns/day, 0.242 hours/ns, 1146.618 timesteps/s
86.7% CPU use with 28 MPI tasks x no OpenMP threads

MPI task timing breakdown:
Section |  min time  |  avg time  |  max time  |%varavg| %total
---------------------------------------------------------------
Pair    | 730.04     | 758        | 791.95     |  60.1 | 86.91
Neigh   | 0.031021   | 0.04535    | 0.058375   |   3.7 |  0.01
Comm    | 70.096     | 100.73     | 127.13     | 161.2 | 11.55
Output  | 0.09923    | 0.10156    | 0.12364    |   1.4 |  0.01
Modify  | 4.6264     | 8.2267     | 14.956     | 103.8 |  0.94
Other   |            | 5.03       |            |       |  0.58

Nlocal:    11.3929 ave 16 max 6 min
Histogram: 1 2 3 3 0 3 4 6 2 4
Nghost:    647.643 ave 697 max 593 min
Histogram: 2 5 3 2 2 2 1 1 3 7
Neighs:    696.107 ave 1038 max 344 min
Histogram: 2 1 5 2 3 2 6 3 3 1
FullNghs:  1392.21 ave 2006 max 737 min
Histogram: 3 3 3 0 2 5 5 2 4 1

Total # of neighbors = 38982
Ave neighs/atom = 122.201
Neighbor list builds = 670
Dangerous builds = 0

write_restart   POSCAR_1x1x1.rest

#unfix    1
#undump   1
Total wall time: 0:14:32
