LAMMPS (7 Dec 2015)
#----------- Initialize Simulation ------------ restart01
#processors	2 2 2
units		metal
boundary	p p p     ## periodic boundary condition  on x y z axis ##
atom_style atomic
#atom_modify map array sort 0 0.0

read_data	POSCAR_1x1x1.lammps
  triclinic box = (0 0 0) to (15.3909 13.3289 27.4382) with tilt (-7.69535 0 0)
  2 by 2 by 7 MPI processor grid
  reading atoms ...
  319 atoms

#----------- Define Potential -----------------
pair_style meam
pair_coeff * * MgAlZn.library.meam Mg Al Zn MgAlZn.parameter.meam Mg Al Zn 	#1=Mg 2=Al 3=Zn	#atoms/mass

#----------- Neighbor List --------------------
neighbor 2.0 bin
neigh_modify delay 10 check yes

#--------------  Run a simulation (minimization) ---------------------------------------
minimize       1.0e-4   1.0e-6   100   1000          #結構優化的條件
WARNING: Resetting reneighboring criteria during minimization (../min.cpp:168)
Neighbor list info ...
  2 neighbor list requests
  update every 1 steps, delay 0 steps, check yes
  max neighbors/atom: 2000, page size: 100000
  master list distance cutoff = 8
  ghost atom cutoff = 8
  binsize = 4 -> bins = 6 4 7
Memory usage per processor = 8.65476 Mbytes
Step Temp E_pair E_mol TotEng Press 
       0            0   -435.03995            0   -435.03995   -3950.1604 
      13            0   -457.83602            0   -457.83602   -22280.274 
Loop time of 0.0205382 on 28 procs for 13 steps with 319 atoms

90.2% CPU use with 28 MPI tasks x no OpenMP threads

Minimization stats:
  Stopping criterion = energy tolerance
  Energy initial, next-to-last, final = 
        -435.039951526     -457.792841072     -457.836023887
  Force two-norm initial, final = 21.2938 0.864451
  Force max component initial, final = 3.75278 0.219209
  Final line search alpha, max atom move = 0.213402 0.0467798
  Iterations, force evaluations = 13 22

MPI task timing breakdown:
Section |  min time  |  avg time  |  max time  |%varavg| %total
---------------------------------------------------------------
Pair    | 0.016421   | 0.017528   | 0.018518   |   0.4 | 85.34
Neigh   | 0          | 0          | 0          |   0.0 |  0.00
Comm    | 0.0012096  | 0.002146   | 0.0032378  |   1.1 | 10.45
Output  | 0          | 0          | 0          |   0.0 |  0.00
Modify  | 0          | 0          | 0          |   0.0 |  0.00
Other   |            | 0.0008639  |            |       |  4.21

Nlocal:    11.3929 ave 16 max 6 min
Histogram: 1 2 2 2 2 4 5 3 4 3
Nghost:    638.536 ave 674 max 581 min
Histogram: 3 2 2 1 0 2 6 0 3 9
Neighs:    707.536 ave 983 max 353 min
Histogram: 1 2 3 1 4 5 2 4 2 4
FullNghs:  1415.07 ave 2001 max 732 min
Histogram: 1 3 2 3 3 3 3 3 6 1

Total # of neighbors = 39622
Ave neighs/atom = 124.207
Neighbor list builds = 0
Dangerous builds = 0
velocity all  create 600.0 4928459 #rot yes dist gaussian

#--------------  Run a simulation (Relaxation)  ----------------------------------------
fix  1  all  nvt   temp  600.0  600.0  100				#damping constant
#fix  2  all  npt   temp  393.0  393.0  50 iso 0.0 0.0 1000.0
fix  2  all deform 1 x final 0 15.3957 y final 0 13.333 z final 0 27.4032 xy final -7.69775 units lattice
#fix  3  all  npt   temp  393.0  393.0  50 z 0.0 0.0 1000.0

#variable b equal 1
#fix 2 all efield  0.0  0.0  v_b
#compute pot all pe/atom


#----------- Output --------------------------
thermo	 500
timestep  0.001		#1.0 fs
thermo_style	custom step time temp ke pe etotal press pxx pyy pzz lx ly lz vol

dump 1 all custom 10000 dump.eq id type x y z
dump_modify 1 sort  id

run        1000000	#1000 ps
Neighbor list info ...
  2 neighbor list requests
  update every 1 steps, delay 10 steps, check yes
  max neighbors/atom: 2000, page size: 100000
  master list distance cutoff = 8
  ghost atom cutoff = 8
  binsize = 4 -> bins = 6 4 7
Memory usage per processor = 7.56343 Mbytes
Step Time Temp KinEng PotEng TotEng Press Pxx Pyy Pzz Lx Ly Lz Volume 
      13            0          600    24.662836   -457.83602   -433.17319   -17600.249   -11882.169   -10226.246   -30692.332      15.3909      13.3289      27.4382    5628.7757 
     500        0.487    321.12474    13.199744   -446.36906   -433.16931   -11345.091   -7152.9932   -4367.9275   -22514.352    15.390902    13.328902    27.438183    5628.7739 
    1000        0.987    313.46919    12.885065    -446.0539   -433.16883   -11193.515    -5312.204   -4907.9639   -23360.377    15.390905    13.328904    27.438165    5628.7721 
    1500        1.487    314.36187    12.921758   -446.09006    -433.1683   -11129.014   -5296.0792   -5430.6521   -22660.311    15.390907    13.328906    27.438148    5628.7702 
    2000        1.987    316.19986    12.997309   -446.16461    -433.1673   -10647.711   -6495.5918   -2692.3169   -22755.225     15.39091    13.328908     27.43813    5628.7684 
    2500        2.487    315.82384    12.981853    -446.1474   -433.16555   -10650.034   -5906.6116   -3878.5187   -22164.971    15.390912     13.32891    27.438113    5628.7665 
    3000        2.987    297.10268    12.212324   -445.37573   -433.16341   -9686.9872   -5947.0907   -1469.5604   -21644.311    15.390914    13.328912    27.438095    5628.7647 
    3500        3.487    312.67654    12.852483   -446.01461   -433.16213   -11027.438   -4747.0079   -6876.7325   -21458.573    15.390917    13.328914    27.438078    5628.7628 
    4000        3.987    313.12907    12.871084   -446.03097   -433.15989   -10180.376    -6090.733   -3636.4491   -20813.945    15.390919    13.328916     27.43806     5628.761 
    4500        4.487    310.43252    12.760244   -445.91737   -433.15713   -10949.457    -3930.035   -5799.9387   -23118.398    15.390922    13.328918    27.438043    5628.7591 
    5000        4.987    304.64722    12.522441   -445.67666   -433.15422   -10909.461   -5995.5982   -3088.3853   -23644.399    15.390924     13.32892    27.438025    5628.7573 
    5500        5.487     322.4902    13.255872   -446.40716   -433.15129   -11133.375   -4910.4725   -3841.1987   -24648.455    15.390926    13.328922    27.438008    5628.7554 
    6000        5.987    314.11196    12.911486    -446.0594   -433.14791    -10631.91   -5070.3211   -4336.9731   -22488.437    15.390929    13.328925     27.43799    5628.7536 
    6500        6.487     301.6731     12.40019   -445.54423   -433.14404   -11777.077   -8200.7285   -4678.0902   -22452.413    15.390931    13.328927    27.437973    5628.7518 
    7000        6.987    303.81738     12.48833   -445.62764   -433.13931   -12031.143   -7013.5762   -7373.2282   -21706.625    15.390934    13.328929    27.437955    5628.7499 
    7500        7.487    301.59988     12.39718   -445.53267   -433.13549   -9958.9448    -7581.376   -3548.2647   -18747.194    15.390936    13.328931    27.437938    5628.7481 
    8000        7.987    308.92796    12.698399   -445.82899   -433.13059    -11763.14   -5420.1514   -5980.0474   -23889.221    15.390938    13.328933     27.43792    5628.7462 
    8500        8.487    324.13974    13.323675   -446.44948    -433.1258   -11685.117   -6440.5025   -4399.4616   -24215.386    15.390941    13.328935    27.437903    5628.7444 
    9000        8.987    318.79909    13.104149   -446.22471   -433.12056    -10976.26    -5159.927   -4644.7466   -23124.107    15.390943    13.328937    27.437885    5628.7425 
    9500        9.487    314.69117    12.935294   -446.05006   -433.11476   -10876.968   -5649.4844   -4319.4248   -22661.995    15.390946    13.328939    27.437868    5628.7407 
   10000        9.987    319.72477    13.142199   -446.25111   -433.10891   -11038.939   -6854.7524   -4947.7394   -21314.325    15.390948    13.328941     27.43785    5628.7388 
   10500       10.487    323.30073    13.289188   -446.39194   -433.10276   -11395.201    -7386.606    -2731.922   -24067.076     15.39095    13.328943    27.437833     5628.737 
   11000       10.987    305.80772    12.570143   -445.66622   -433.09608   -10365.108   -6993.6647    -2611.353   -21490.307    15.390953    13.328945    27.437815    5628.7351 
   11500       11.487    299.79808    12.323118   -445.41203   -433.08891   -9361.0625   -7818.4547   -4785.8794   -15478.853    15.390955    13.328947    27.437798    5628.7333 
   12000       11.987     310.5076     12.76333   -445.84524   -433.08191   -9458.6867     -5188.44   -2504.2109   -20683.409    15.390958    13.328949     27.43778    5628.7314 
   12500       12.487    298.24334    12.259211   -445.33325   -433.07404   -10851.748   -6158.7682   -4929.5283   -21466.948     15.39096    13.328951    27.437763    5628.7296 
   13000       12.987    325.99898    13.400099   -446.46717   -433.06707   -10654.139   -3828.3145   -4989.7581   -23144.343    15.390962    13.328953    27.437745    5628.7277 
   13500       13.487    312.54757    12.847182   -445.90572   -433.05854   -11569.231    -6345.127   -5127.2247    -23235.34    15.390965    13.328955    27.437728    5628.7259 
   14000       13.987    309.03056    12.702616   -445.75286   -433.05024   -10116.215    -6689.076   -4947.2579   -18712.313    15.390967    13.328957     27.43771    5628.7241 
   14500       14.487    312.52111    12.846095   -445.88764   -433.04154   -10320.098   -6105.2534   -4102.4446   -20752.595     15.39097    13.328959    27.437693    5628.7222 
   15000       14.987    295.41054    12.142769   -445.17475   -433.03198   -10606.964   -3154.5696   -4809.2474   -23857.076    15.390972    13.328961    27.437675    5628.7204 
   15500       15.487    310.80866    12.775705   -445.79867   -433.02296   -9648.0618   -5466.6183   -2554.0318   -20923.535    15.390974    13.328963    27.437658    5628.7185 
   16000       15.987    333.02044    13.688714   -446.70224   -433.01352   -11312.438    -3545.521   -4113.5195   -26278.274    15.390977    13.328966     27.43764    5628.7167 
   16500       16.487    331.48683    13.625675    -446.6291   -433.00342   -11174.158   -5469.1605   -4228.1771   -23825.136    15.390979    13.328968    27.437623    5628.7148 
   17000       16.987    323.43127    13.294554   -446.28788   -432.99333   -10758.825   -7202.0203   -5456.6624   -19617.793    15.390982     13.32897    27.437605     5628.713 
   17500       17.487    308.65039     12.68699   -445.66938   -432.98239   -10034.878   -3670.6154   -4217.5758   -22216.443    15.390984    13.328972    27.437588    5628.7111 
   18000       17.987    306.75065    12.608901   -445.58034   -432.97144   -10816.434   -5944.9232   -3329.2874   -23175.091    15.390986    13.328974     27.43757    5628.7093 
   18500       18.487    326.68717    13.428387     -446.389   -432.96061   -11092.024   -6272.5372   -3400.4255   -23603.108    15.390989    13.328976    27.437553    5628.7074 
   19000       18.987    309.40282    12.717918   -445.66609   -432.94818    -10937.34   -8392.4653   -4597.5223   -19822.031    15.390991    13.328978    27.437535    5628.7056 
   19500       19.487    316.96631    13.028813   -445.96578   -432.93697   -11447.523   -6547.8614    -8048.225   -19746.484    15.390994     13.32898    27.437518    5628.7037 
   20000       19.987     325.6668    13.386445   -446.31126   -432.92481   -10590.559   -5579.6945   -4172.0219   -22019.959    15.390996    13.328982      27.4375    5628.7019 
   20500       20.487    329.79464    13.556118   -446.46875   -432.91263   -11314.405   -6503.8883   -8773.2855    -18666.04    15.390998    13.328984    27.437483       5628.7 
   21000       20.987    322.90611    13.272967    -446.1727   -432.89973   -10597.882   -6151.9919   -4316.1147   -21325.541    15.391001    13.328986    27.437465    5628.6982 
   21500       21.487    317.32672    13.043628   -445.93042   -432.88679   -10409.461    -6702.763    -3669.268   -20856.353    15.391003    13.328988    27.437448    5628.6964 
   22000       21.987     320.0178    13.154244    -446.0278   -432.87355   -10865.821   -6332.8224   -5911.8456   -20352.795    15.391006     13.32899     27.43743    5628.6945 
   22500       22.487    303.64454    12.481226   -445.34089   -432.85967   -10865.226   -6905.9517   -5295.7365    -20393.99    15.391008    13.328992    27.437413    5628.6927 
   23000       22.987    321.30737    13.207252   -446.05293   -432.84568   -11206.688   -5608.5903    -4175.003   -23836.471     15.39101    13.328994    27.437395    5628.6908 
   23500       23.487    321.62607    13.220351   -446.05209   -432.83174   -9742.5576   -4428.1359   -4918.5245   -19881.012    15.391013    13.328996    27.437378     5628.689 
   24000       23.987    311.54053    12.805788   -445.62325   -432.81746   -10687.464   -4835.8906   -5550.9769   -21675.524    15.391015    13.328998     27.43736    5628.6871 
   24500       24.487    302.11636     12.41841   -445.22096   -432.80255   -10227.422   -5813.6715   -3321.7769   -21546.818    15.391018       13.329    27.437343    5628.6853 
   25000       24.987    315.26648    12.958942    -445.7465   -432.78756   -10294.923   -3743.9015   -3616.2317   -23524.636     15.39102    13.329002    27.437325    5628.6834 
   25500       25.487    317.01207    13.030694   -445.80332   -432.77262   -11795.334   -7849.0186   -4279.4925    -23257.49    15.391022    13.329004    27.437308    5628.6816 
   26000       25.987    313.01401    12.866355   -445.62353   -432.75717   -10238.268   -6673.5065   -3436.0864   -20605.211    15.391025    13.329007     27.43729    5628.6797 
   26500       26.487     309.7222    12.731046   -445.47322   -432.74218   -10164.803   -5265.7387   -4645.8938   -20582.777    15.391027    13.329009    27.437273    5628.6779 
   27000       26.987    309.41907    12.718586   -445.44471   -432.72612   -10169.044   -5098.3052   -5779.3983    -19629.43     15.39103    13.329011    27.437255     5628.676 
   27500       27.487    329.61725    13.548827   -446.25926   -432.71044   -11467.835   -7362.5142   -4391.0041   -22649.988    15.391032    13.329013    27.437238    5628.6742 
   28000       27.987    323.65755    13.303855   -445.99866    -432.6948   -11370.775   -7677.1772   -2407.9704   -24027.177    15.391034    13.329015     27.43722    5628.6723 
   28500       28.487    312.60347     12.84948   -445.52748     -432.678   -10788.392   -4207.9839    -5072.599   -23084.594    15.391037    13.329017    27.437203    5628.6705 
   29000       28.987    322.97441    13.275775   -445.93728    -432.6615   -10790.801   -6272.2017   -5660.6069   -20439.596    15.391039    13.329019    27.437185    5628.6687 
   29500       29.487    309.87166     12.73719   -445.38146   -432.64427   -9675.2517    -3896.688   -4614.2834   -20514.784    15.391042    13.329021    27.437168    5628.6668 
   30000       29.987    301.21677    12.381433   -445.00885   -432.62742   -11333.415   -6597.0764   -5620.8815   -21782.286    15.391044    13.329023     27.43715     5628.665 
   30500       30.487    339.71489    13.963888   -446.57402   -432.61014   -10838.603   -5434.5506     -4716.33   -22364.927    15.391046    13.329025    27.437133    5628.6631 
   31000       30.987    326.79308     13.43274   -446.02556   -432.59282   -9848.4981   -3983.6412   -3620.5853   -21941.268    15.391049    13.329027    27.437115    5628.6613 
   31500       31.487    328.20281    13.490687   -446.06583   -432.57514   -11322.692    -5774.602   -5603.0125   -22590.463    15.391051    13.329029    27.437098    5628.6594 
   32000       31.987    307.76575    12.650627   -445.20786   -432.55724   -10499.409   -5972.7384   -2087.1663   -23438.322    15.391054    13.329031     27.43708    5628.6576 
   32500       32.487    316.99749    13.030095   -445.56977   -432.53968   -11109.056   -7109.8479   -4960.9631   -21256.356    15.391056    13.329033    27.437063    5628.6557 
   33000       32.987    309.59657    12.725882    -445.2472   -432.52132   -10091.581   -7143.7688   -3592.5559   -19538.418    15.391058    13.329035    27.437045    5628.6539 
   33500       33.487    329.74667    13.554147   -446.05754   -432.50339   -11066.067   -5746.0317   -3816.8114   -23635.358    15.391061    13.329037    27.437028     5628.652 
   34000       33.987     327.0708    13.444156   -445.92886    -432.4847   -11166.721   -7278.2372   -2889.9777   -23331.948    15.391063    13.329039     27.43701    5628.6502 
   34500       34.487    315.41049    12.964862   -445.43113   -432.46626   -11236.421   -8099.5343   -3689.2931   -21920.435    15.391066    13.329041    27.436993    5628.6483 
   35000       34.987    322.49096    13.255902   -445.70364   -432.44774    -10599.52   -6113.0657   -4513.0775   -21172.418    15.391068    13.329043    27.436975    5628.6465 
   35500       35.487    328.44692     13.50072   -445.92999   -432.42927   -9891.9831   -5478.5465    -4099.941   -20097.462     15.39107    13.329045    27.436958    5628.6446 
   36000       35.987    317.76405    13.061604   -445.47202   -432.41041     -10206.4   -6836.0871   -5789.8723   -17993.241    15.391073    13.329048     27.43694    5628.6428 
   36500       36.487    315.88747    12.984468   -445.37592   -432.39146   -10110.056   -6910.5418   -4261.4624   -19158.164    15.391075     13.32905    27.436923     5628.641 
   37000       36.987    318.65194    13.098101   -445.47063   -432.37253   -10851.594   -5157.2025   -5647.8534   -21749.725    15.391078    13.329052    27.436905    5628.6391 
   37500       37.487    325.36722    13.374131   -445.72749   -432.35336   -10879.321   -7548.8091   -6016.3489   -19072.805     15.39108    13.329054    27.436888    5628.6373 
   38000       37.987    317.67417     13.05791   -445.39244   -432.33453   -11856.687   -6989.0591   -4677.3471   -23903.656    15.391082    13.329056     27.43687    5628.6354 
   38500       38.487    299.16754      12.2972   -444.61216   -432.31496   -10071.797   -5037.6673   -3092.1557   -22085.567    15.391085    13.329058    27.436853    5628.6336 
   39000       38.987    321.93379       13.233   -445.52966   -432.29666   -9934.8649   -5619.0663   -3084.2757   -21101.253    15.391087     13.32906    27.436835    5628.6317 
   39500       39.487    341.83992    14.051236   -446.32906   -432.27783    -11045.93    -6057.201   -3894.4649   -23186.123     15.39109    13.329062    27.436818    5628.6299 
   40000       39.987    330.90209     13.60164   -445.86044    -432.2588   -10873.108   -5043.2998   -6031.7434   -21544.281    15.391092    13.329064      27.4368     5628.628 
   40500       40.487    332.33462    13.660523   -445.90008   -432.23955   -9939.4368   -7527.2802   -2455.8097    -19835.22    15.391094    13.329066    27.436783    5628.6262 
   41000       40.987    320.23693    13.163251   -445.38358   -432.22033   -11414.445   -5632.4857   -5268.5053   -23342.343    15.391097    13.329068    27.436765    5628.6243 
   41500       41.487    322.77066      13.2674   -445.46853   -432.20113    -10245.51   -5498.2868   -4677.8105   -20560.434    15.391099     13.32907    27.436748    5628.6225 
   42000       41.987    351.32223    14.441004   -446.62349   -432.18249   -10872.391   -5820.6076   -5293.7262   -21502.838    15.391102    13.329072     27.43673    5628.6206 
   42500       42.487    340.12541    13.980762   -446.14377   -432.16301   -10491.548   -3613.6503   -4720.4139    -23140.58    15.391104    13.329074    27.436713    5628.6188 
   43000       42.987     314.2198    12.915919   -445.05963   -432.14371   -9643.1572   -3884.8278   -5783.6333    -19261.01    15.391106    13.329076    27.436695    5628.6169 
   43500       43.487    367.83251    15.119654   -447.24527   -432.12561   -11903.433   -7310.2463   -5144.1883   -23255.864    15.391109    13.329078    27.436678    5628.6151 
   44000       43.987    337.43964    13.870364   -445.97636   -432.10599   -10191.793   -4856.6417   -5200.2433   -20518.493    15.391111     13.32908     27.43666    5628.6132 
   44500       44.487    338.91336    13.930941    -446.0187   -432.08776   -10685.474   -7583.2311   -3351.1942   -21121.996    15.391114    13.329082    27.436643    5628.6114 
   45000       44.987    326.56679    13.423438   -445.49192   -432.06848   -10262.366   -5565.6791   -4323.8075   -20897.612    15.391116    13.329084    27.436625    5628.6096 
   45500       45.487    349.47525    14.365084   -446.41533   -432.05024   -11134.057   -5228.7465   -5569.8227   -22603.601    15.391118    13.329086    27.436608    5628.6077 
   46000       45.987    335.81074    13.803409   -445.83515   -432.03174   -10171.414   -6027.9092   -5198.6398   -19287.693    15.391121    13.329089     27.43659    5628.6059 
   46500       46.487    327.32522    13.454613   -445.46721    -432.0126   -11108.608   -5196.8616    -4750.136   -23378.827    15.391123    13.329091    27.436573     5628.604 
   47000       46.987    317.59952    13.054841   -445.04884     -431.994   -10071.215   -4527.5088   -5165.8009   -20520.337    15.391126    13.329093    27.436555    5628.6022 
   47500       47.487    324.31311    13.330802   -445.30616   -431.97536   -10487.566   -4325.4873    -4601.521   -22535.691    15.391128    13.329095    27.436538    5628.6003 
   48000       47.987    326.71803    13.429655   -445.38669   -431.95703   -11420.602   -4724.6916    -6547.621   -22989.494     15.39113    13.329097     27.43652    5628.5985 
   48500       48.487    331.70021    13.634446   -445.57333   -431.93888   -9598.2314   -4602.1212   -3771.2744   -20421.299    15.391133    13.329099    27.436503    5628.5966 
   49000       48.987    323.23591    13.286524   -445.20674   -431.92022   -9615.7605   -3849.4547   -3895.4001   -21102.427    15.391135    13.329101    27.436485    5628.5948 
   49500       49.487    343.20566    14.107375   -446.01009   -431.90272   -10250.424   -5173.0753   -2201.6968   -23376.498    15.391138    13.329103    27.436468    5628.5929 
   50000       49.987    328.33886    13.496279   -445.38098   -431.88471    -10334.37   -6156.7023   -4948.7317   -19897.675     15.39114    13.329105     27.43645    5628.5911 
   50500       50.487    335.75122    13.800962   -445.66766    -431.8667   -10676.096    -4634.644   -5138.0094   -22255.635    15.391142    13.329107    27.436433    5628.5892 
   51000       50.987    327.90326    13.478374   -445.32742   -431.84904   -9738.1274   -5350.2334   -2481.0002   -21383.149    15.391145    13.329109    27.436415    5628.5874 
   51500       51.487    320.55093    13.176158   -445.00765   -431.83149   -10379.434   -4529.1748     -5095.07   -21514.058    15.391147    13.329111    27.436398    5628.5855 
   52000       51.987    314.32828    12.920378   -444.73416   -431.81378   -9587.7594    -3691.725   -4613.3414   -20458.212     15.39115    13.329113     27.43638    5628.5837 
   52500       52.487    322.35854     13.25046   -445.04681   -431.79635   -8887.8752   -2470.7373   -5639.9528   -18552.936    15.391152    13.329115    27.436363    5628.5819 
   53000       52.987    340.40875    13.992409   -445.77151    -431.7791   -10237.815   -7367.9643   -4717.4837   -18627.997    15.391154    13.329117    27.436345      5628.58 
   53500       53.487    316.63332    13.015126   -444.77698   -431.76186   -9011.7982   -3577.9678   -3442.1842   -20015.243    15.391157    13.329119    27.436328    5628.5782 
   54000       53.987    326.47859    13.419813   -445.16507   -431.74526   -10013.733   -5813.3758    -4433.322   -19794.501    15.391159    13.329121     27.43631    5628.5763 
   54500       54.487    342.75498     14.08885   -445.81657   -431.72772   -8296.0025   -4499.3239    -3796.929   -16591.755    15.391162    13.329123    27.436293    5628.5745 
   55000       54.987    351.54467    14.450148   -446.16094   -431.71079   -10199.597    -4165.397   -4343.3574   -22090.036    15.391164    13.329125    27.436275    5628.5726 
   55500       55.487    309.51893    12.722691   -444.41592   -431.69323   -9814.8451   -6133.7163   -5156.2618   -18154.557    15.391166    13.329127    27.436258    5628.5708 
   56000       55.987    312.01571     12.82532   -444.50186   -431.67654    -10455.34   -5151.5453   -3718.9682   -22495.507    15.391169     13.32913     27.43624    5628.5689 
   56500       56.487    339.74827     13.96526   -445.62577   -431.66051   -9514.9729    -5097.518   -2651.3603   -20796.041    15.391171    13.329132    27.436223    5628.5671 
   57000       56.987    320.66502    13.180848   -444.82449   -431.64364   -10663.569   -6344.0972   -2817.5568   -22829.053    15.391174    13.329134    27.436205    5628.5652 
   57500       57.487    317.92903    13.068386   -444.69582   -431.62744    -9206.876   -3514.9457   -4301.6012   -19804.081    15.391176    13.329136    27.436188    5628.5634 
   58000       57.987    351.00599    14.428005    -446.0397    -431.6117   -10672.673   -4760.1979   -4451.7056   -22806.115    15.391178    13.329138     27.43617    5628.5615 
   58500       58.487    335.02898    13.771275   -445.36606   -431.59479   -9907.4246   -5028.7527   -3910.3628   -20783.158    15.391181     13.32914    27.436153    5628.5597 
   59000       58.987    334.23802    13.738762   -445.31754   -431.57878   -10752.944   -3701.9665   -4285.7045    -24271.16    15.391183    13.329142    27.436135    5628.5578 
   59500       59.487    330.74797    13.595305   -445.15754   -431.56224   -8920.6695   -3674.6322   -3396.0544   -19691.322    15.391186    13.329144    27.436118     5628.556 
   60000       59.987    344.95219    14.179165   -445.72552   -431.54636   -10889.914   -5435.7023   -3821.6593   -23412.381    15.391188    13.329146      27.4361    5628.5542 
   60500       60.487    346.53775    14.244339   -445.77438   -431.53004   -10292.115   -4981.1993   -4322.2683   -21572.878     15.39119    13.329148    27.436083    5628.5523 
   61000       60.987    341.45141    14.035267   -445.54877   -431.51351   -10460.935   -5448.6248   -3099.1889    -22834.99    15.391193     13.32915    27.436065    5628.5505 
   61500       61.487    347.99503     14.30424   -445.80168   -431.49744    -10754.34   -4368.2228   -3810.7426   -24084.055    15.391195    13.329152    27.436048    5628.5486 
   62000       61.987    331.28508    13.617382   -445.09821   -431.48083   -10028.034   -5390.3632   -4558.3071    -20135.43    15.391198    13.329154     27.43603    5628.5468 
   62500       62.487    325.99726    13.400028   -444.86521   -431.46519   -9338.4448   -7178.4439   -2495.4123   -18341.478      15.3912    13.329156    27.436013    5628.5449 
   63000       62.987    337.22853    13.861686   -445.31139   -431.44971   -9173.2148   -4502.4611   -454.55143   -22562.632    15.391202    13.329158    27.435995    5628.5431 
   63500       63.487    335.24096    13.779988   -445.21335   -431.43337   -9815.0782   -4057.5249   -3759.4322   -21628.277    15.391205     13.32916    27.435978    5628.5412 
   64000       63.987    342.40536    14.074479   -445.49235   -431.41788   -10357.362   -5887.4364   -2866.1895   -22318.459    15.391207    13.329162     27.43596    5628.5394 
   64500       64.487     345.2444    14.191177   -445.59324   -431.40207   -11800.726    -6470.371   -5132.4916   -23799.314     15.39121    13.329164    27.435943    5628.5375 
   65000       64.987     343.9068    14.136195   -445.52272   -431.38653   -10754.368   -4853.2473   -5910.9487   -21498.909    15.391212    13.329166    27.435925    5628.5357 
   65500       65.487    338.80335    13.926419   -445.29689   -431.37047   -9570.8788   -5170.0172    -1131.978   -22410.641    15.391214    13.329168    27.435908    5628.5338 
   66000       65.987    335.74415    13.800671   -445.15575   -431.35508   -10714.075   -7107.2829   -3438.1634    -21596.78    15.391217    13.329171     27.43589     5628.532 
   66500       66.487     326.2527    13.410528   -444.74959   -431.33906   -8884.4302   -3975.7445   -2245.2114   -20432.335    15.391219    13.329173    27.435873    5628.5301 
   67000       66.987    322.57272    13.259263   -444.58271   -431.32345   -9614.3323    -3691.428   -1603.6773   -23547.892    15.391222    13.329175    27.435855    5628.5283 
   67500       67.487     322.2561    13.246249   -444.55382   -431.30757   -9070.2505   -4828.7733   -2153.1295   -20228.849    15.391224    13.329177    27.435838    5628.5265 
   68000       67.987    335.97921    13.810334    -445.1021   -431.29176   -9835.4929    -4366.713   -3250.4908   -21889.275    15.391226    13.329179     27.43582    5628.5246 
   68500       68.487    317.65411    13.057085   -444.33323   -431.27614   -9040.8063   -3645.2593   -3867.9558   -19609.204    15.391229    13.329181    27.435803    5628.5228 
   69000       68.987    325.39367    13.375218   -444.63517   -431.25995   -10744.367   -5000.2023   -4857.7227   -22375.177    15.391231    13.329183    27.435785    5628.5209 
   69500       69.487    368.83126    15.160708   -446.40562   -431.24491   -10568.478    -5563.725   -4379.3887   -21762.319    15.391234    13.329185    27.435768    5628.5191 
   70000       69.987    320.99304    13.194331   -444.42351   -431.22918   -9555.8358   -5116.5593   -1704.1737   -21846.774    15.391236    13.329187     27.43575    5628.5172 
   70500       70.487    341.12552    14.021871   -445.23522   -431.21335   -9788.8584   -5136.7802   -4531.0806   -19698.714    15.391238    13.329189    27.435733    5628.5154 
   71000       70.987    342.45722     14.07661   -445.27466   -431.19805   -11091.102   -5342.9346   -4185.3376   -23745.035    15.391241    13.329191    27.435715    5628.5135 
   71500       71.487    326.52418    13.421687   -444.60312   -431.18143   -10041.256   -6246.9022   -2819.0425   -21057.823    15.391243    13.329193    27.435698    5628.5117 
   72000       71.987    332.51494    13.667935   -444.83363    -431.1657   -10183.093   -3285.7366   -7975.4167   -19288.124    15.391246    13.329195     27.43568    5628.5098 
   72500       72.487    334.93334    13.767343    -444.9174   -431.15006   -9021.5101   -3978.0196    -4439.843   -18646.668    15.391248    13.329197    27.435663     5628.508 
   73000       72.987     335.3904     13.78613   -444.92016   -431.13403   -9482.5148   -4979.5641   -3317.3334   -20150.647     15.39125    13.329199    27.435645    5628.5061 
   73500       73.487    348.13105    14.309831   -445.42832   -431.11849   -10458.649   -5977.1091   -5419.0254   -19979.811    15.391253    13.329201    27.435628    5628.5043 
   74000       73.987    354.06881    14.553901   -445.65619   -431.10229   -10455.741    -5427.046   -3608.1741   -22332.002    15.391255    13.329203     27.43561    5628.5024 
   74500       74.487    338.61307    13.918597    -445.0047    -431.0861   -11550.513   -6288.3538   -3867.8823   -24495.303    15.391258    13.329205    27.435593    5628.5006 
   75000       74.987     335.5843    13.794101     -444.864    -431.0699   -9742.2719   -4131.3165   -1926.5396   -23168.959     15.39126    13.329207    27.435575    5628.4987 
   75500       75.487     332.6741    13.674478   -444.72799   -431.05351   -9420.5316   -3497.4131   -4585.8095   -20178.372    15.391262    13.329209    27.435558    5628.4969 
   76000       75.987    330.67868    13.592457   -444.63028   -431.03782   -9918.3565   -5841.9497   -5321.9535   -18591.166    15.391265    13.329212     27.43554    5628.4951 
   76500       76.487    345.04743     14.18308   -445.20458    -431.0215   -9951.7954   -4761.2906   -5384.3195   -19709.776    15.391267    13.329214    27.435523    5628.4932 
   77000       76.987    351.02073    14.428611   -445.43426   -431.00565   -10379.469   -6795.4837   -4171.3331    -20171.59     15.39127    13.329216    27.435505    5628.4914 
   77500       77.487    326.39371    13.416324   -444.40532     -430.989   -9407.1158   -3686.5564   -4397.0828   -20137.708    15.391272    13.329218    27.435488    5628.4895 
   78000       77.987    340.13859    13.981304   -444.95421    -430.9729   -10569.923   -5597.5885   -4198.8091   -21913.373    15.391274     13.32922     27.43547    5628.4877 
   78500       78.487    342.73489    14.088024   -445.04423   -430.95621   -9379.5272   -4332.1055   -2582.6008   -21223.875    15.391277    13.329222    27.435453    5628.4858 
   79000       78.987     357.3198    14.687532   -445.62728   -430.93975   -9766.0454   -3796.6514   -3552.6471   -21948.838    15.391279    13.329224    27.435435     5628.484 
   79500       79.487    349.66905     14.37305   -445.29632   -430.92327   -10806.973   -6504.1177   -3334.7992   -22582.002    15.391282    13.329226    27.435418    5628.4821 
   80000       79.987    341.84942    14.051627   -444.95785   -430.90622   -9095.9245   -2985.8474   -5025.9613   -19275.965    15.391284    13.329228      27.4354    5628.4803 
   80500       80.487     348.2557    14.314955   -445.20483   -430.88987   -10206.864   -5838.7683   -2985.6496   -21796.174    15.391286     13.32923    27.435383    5628.4784 
   81000       80.987     354.7946    14.583735   -445.45634   -430.87261   -11221.795   -6006.4964   -4317.9368   -23340.952    15.391289    13.329232    27.435365    5628.4766 
   81500       81.487    337.03774    13.853844   -444.70926   -430.85542   -10072.716   -5992.9228    -4227.693   -19997.531    15.391291    13.329234    27.435348    5628.4747 
   82000       81.987    333.55538    13.710702   -444.54932   -430.83861   -9724.4988   -3538.9128   -2570.8033    -23063.78    15.391294    13.329236     27.43533    5628.4729 
   82500       82.487    337.87923    13.888433   -444.71042   -430.82199   -9970.7596   -5186.8002   -3278.9419   -21446.537    15.391296    13.329238    27.435313     5628.471 
   83000       82.987    342.18774    14.065533   -444.86994    -430.8044   -10068.531   -3798.7745   -3282.5612   -23124.256    15.391298     13.32924    27.435295    5628.4692 
   83500       83.487    351.52395    14.449296   -445.23757   -430.78827   -9522.7637   -4307.9357   -3984.9854    -20275.37    15.391301    13.329242    27.435278    5628.4674 
   84000       83.987     333.2935    13.699938   -444.47071   -430.77077   -9124.2379   -4711.7284   -3762.9527   -18898.032    15.391303    13.329244     27.43526    5628.4655 
   84500       84.487    354.62281    14.576673   -445.33038    -430.7537   -8820.5523   -4504.3407   -3430.4417   -18526.875    15.391306    13.329246    27.435243    5628.4637 
   85000       84.987    336.30146    13.823579   -444.55874   -430.73516   -8583.2117   -2198.0292   -3331.7465   -20219.859    15.391308    13.329248    27.435225    5628.4618 
   85500       85.487    336.47228    13.830601   -444.54845   -430.71785   -10030.686   -4789.8587   -3359.7615   -21942.439     15.39131     13.32925    27.435208      5628.46 
   86000       85.987    340.81625    14.009159   -444.70978   -430.70062   -9013.1797   -1798.0724   -2232.4091   -23009.058    15.391313    13.329253     27.43519    5628.4581 
   86500       86.487    334.84518    13.763719   -444.44637   -430.68265    -8874.307   -2821.9045   -5502.8526   -18298.164    15.391315    13.329255    27.435173    5628.4563 
   87000       86.987    371.21362    15.258634   -445.92386   -430.66522   -9558.9372   -5574.3298   -4523.1893   -18579.292    15.391318    13.329257    27.435155    5628.4544 
   87500       87.487    348.76675    14.335962   -444.98298   -430.64702   -9778.9047   -5332.6544   -1910.2619   -22093.798     15.39132    13.329259    27.435138    5628.4526 
   88000       87.987    348.36859    14.319595   -444.94812   -430.62852   -9144.7112   -4385.3915   -4285.2369   -18763.505    15.391322    13.329261     27.43512    5628.4507 
   88500       88.487     348.4656    14.323583   -444.93439   -430.61081   -10073.993   -5248.6652   -1470.4246    -23502.89    15.391325    13.329263    27.435103    5628.4489 
   89000       88.987    352.41081     14.48575   -445.07882   -430.59307   -9383.9645   -6407.8099   -3228.6702   -18515.413    15.391327    13.329265    27.435085     5628.447 
   89500       89.487     338.8009    13.926318    -444.5008   -430.57449   -9826.3003   -6255.1156   -2752.1458   -20471.639     15.39133    13.329267    27.435068    5628.4452 
   90000       89.987    345.03325    14.182497    -444.7383    -430.5558   -10935.593   -7263.8671   -4627.2448   -20915.667    15.391332    13.329269     27.43505    5628.4433 
   90500       90.487    354.22337    14.560255   -445.09841   -430.53815    -10408.22   -5624.6071   -4551.5524     -21048.5    15.391334    13.329271    27.435033    5628.4415 
   91000       90.987    350.93395    14.425044   -444.94405     -430.519   -8386.0246   -5650.3694   -3885.4481   -15622.256    15.391337    13.329273    27.435015    5628.4396 
   91500       91.487    343.27408    14.110187   -444.61052   -430.50033   -10192.025   -4598.0145    -4858.958   -21119.102    15.391339    13.329275    27.434998    5628.4378 
   92000       91.987    352.03477    14.470293   -444.95227   -430.48198   -9829.4323   -4540.8613   -2208.5575   -22738.878    15.391342    13.329277     27.43498     5628.436 
   92500       92.487     361.3248    14.852157   -445.31508   -430.46292   -9012.5845   -6553.6719   -3741.3164   -16742.765    15.391344    13.329279    27.434963    5628.4341 
   93000       92.987    334.90794    13.766299   -444.21009   -430.44379   -8450.6303   -1800.3632   -4742.1092   -18809.419    15.391346    13.329281    27.434945    5628.4323 
   93500       93.487    343.26867    14.109965   -444.53473   -430.42477   -8870.3787   -5550.7451   -3211.8989   -17848.492    15.391349    13.329283    27.434928    5628.4304 
   94000       93.987    355.42766    14.609757   -445.01592   -430.40617   -9939.7977   -4208.3886   -1211.3102   -24399.694    15.391351    13.329285     27.43491    5628.4286 
   94500       94.487    334.67352    13.756663   -444.14251   -430.38584   -8662.8845      -2274.5   -3255.9413   -20458.212    15.391354    13.329287    27.434893    5628.4267 
   95000       94.987    344.86228     14.17547   -444.54259   -430.36712   -9153.6065   -4832.0118   -4935.1089   -17693.699    15.391356    13.329289    27.434875    5628.4249 
   95500       95.487    354.58576    14.575151   -444.92288   -430.34773   -8999.3072   -3242.6759   -2062.2824   -21692.963    15.391358    13.329291    27.434858     5628.423 
   96000       95.987     357.8973    14.711271   -445.03917    -430.3279   -10023.677   -7347.4113   -3474.1229   -19249.497    15.391361    13.329294     27.43484    5628.4212 
   96500       96.487    340.90074    14.012631   -444.32107   -430.30844   -9094.0062   -4263.1641   -2122.6018   -20896.253    15.391363    13.329296    27.434823    5628.4193 
   97000       96.987    348.46461    14.323542   -444.61279   -430.28924    -10504.94   -5431.0482   -5707.3031   -20376.468    15.391366    13.329298    27.434805    5628.4175 
   97500       97.487    354.16249    14.557752   -444.82716   -430.26941   -9748.7354   -3539.0934   -7280.2643   -18426.849    15.391368      13.3293    27.434788    5628.4156 
   98000       97.987    357.15443    14.680735   -444.93042   -430.24968   -10219.032   -5173.3955   -1971.9832   -23511.719     15.39137    13.329302     27.43477    5628.4138 
   98500       98.487    359.91978    14.794404   -445.02439   -430.22999   -9919.9058   -4245.0599   -2445.4924   -23069.165    15.391373    13.329304    27.434753    5628.4119 
   99000       98.987    366.92485    15.082346   -445.29258   -430.21023    -10305.02   -5587.0448   -4999.6574   -20328.358    15.391375    13.329306    27.434735    5628.4101 
   99500       99.487    347.83943    14.297844   -444.48762   -430.18977   -8506.5436   -1424.9615   -4000.5644   -20094.105    15.391378    13.329308    27.434718    5628.4082 
  100000       99.987    326.72436    13.429916   -443.59964   -430.16973   -9321.6961   -4243.4819   -4080.8779   -19640.729     15.39138     13.32931      27.4347    5628.4064 
  100500      100.487    353.72758    14.539875   -444.68996   -430.15008   -10246.881   -5765.4441   -2760.2528   -22214.946    15.391382    13.329312    27.434683    5628.4046 
  101000      100.987    341.27853     14.02816   -444.15773   -430.12957   -8572.5801   -5531.5426   -2614.8025   -17571.395    15.391385    13.329314    27.434665    5628.4027 
  101500      101.487    367.10978    15.089947   -445.20018   -430.11023   -10642.273   -2660.9508   -5235.7458   -24030.124    15.391387    13.329316    27.434648    5628.4009 
  102000      101.987    343.14059      14.1047   -444.19389   -430.08919   -9083.0679   -4254.0762   -2142.7684   -20852.359     15.39139    13.329318     27.43463     5628.399 
  102500      102.487    361.07597    14.841929   -444.91061   -430.06868    -10743.23   -5833.4239   -3949.1517   -22447.115    15.391392     13.32932    27.434613    5628.3972 
  103000      102.987    336.67728    13.839028   -443.88674   -430.04771   -9085.0952   -5592.8411   -1011.7207   -20650.724    15.391394    13.329322    27.434595    5628.3953 
  103500      103.487    338.43116     13.91112    -443.9379   -430.02678   -9441.4129   -3914.6363   -1951.6805   -22457.922    15.391397    13.329324    27.434578    5628.3935 
  104000      103.987    359.87806    14.792689   -444.79939    -430.0067   -9193.2381   -4657.0654   -2193.1253   -20729.524    15.391399    13.329326     27.43456    5628.3916 
  104500      104.487    354.78642    14.583399   -444.56886   -429.98546   -10479.509   -4419.5686   -4407.5303   -22611.428    15.391402    13.329328    27.434543    5628.3898 
  105000      104.987    361.93048    14.877053   -444.84198   -429.96493   -9603.1949    -6337.966   -4759.7855   -17711.833    15.391404     13.32933    27.434525    5628.3879 
  105500      105.487    339.14671    13.940533   -443.88383    -429.9433   -9868.1413   -3334.5145   -4529.7129   -21740.196    15.391406    13.329332    27.434508    5628.3861 
  106000      105.987    350.42764    14.404232   -444.32655   -429.92232   -9303.9698   -5970.4428   -1881.9963    -20059.47    15.391409    13.329335     27.43449    5628.3842 
  106500      106.487    356.61528    14.658573   -444.55983   -429.90126   -8929.3752   -4868.6149   -276.42444   -21643.086    15.391411    13.329337    27.434473    5628.3824 
  107000      106.987     373.4728    15.351497    -445.2321    -429.8806   -9599.0628   -5523.9097   -3404.1253   -19869.153    15.391414    13.329339    27.434455    5628.3805 
  107500      107.487     358.4766    14.735082   -444.59441   -429.85933   -9895.5569   -5206.2817   -4018.1179   -20462.271    15.391416    13.329341    27.434438    5628.3787 
  108000      107.987    345.87701     14.21718   -444.05442   -429.83724   -9434.3037   -3605.4061   -2877.8136   -21819.691    15.391418    13.329343     27.43442    5628.3769 
  108500      108.487    355.32566    14.605564   -444.42187   -429.81631    -9405.309   -5442.5283   -4492.2971   -18281.102    15.391421    13.329345    27.434403     5628.375 
  109000      108.987    338.94311    13.932164   -443.72694   -429.79478   -9549.0982   -3726.5876   -4610.3001   -20310.407    15.391423    13.329347    27.434385    5628.3732 
  109500      109.487    359.64068    14.782932   -444.55633    -429.7734   -9344.8547   -6126.1406   -4789.8184   -17118.605    15.391426    13.329349    27.434368    5628.3713 
  110000      109.987    366.14304    15.050209   -444.80246   -429.75225   -9444.6368   -4790.4853   -3193.7864   -20349.639    15.391428    13.329351     27.43435    5628.3695 
  110500      110.487    343.27464     14.11021   -443.84061    -429.7304   -9538.7971   -2861.2932    -5797.389   -19957.709     15.39143    13.329353    27.434333    5628.3676 
  111000      110.987    361.65398    14.865688   -444.57437   -429.70868   -9742.6656   -3206.3991   -3025.0418   -22996.556    15.391433    13.329355    27.434315    5628.3658 
  111500      111.487    340.71825     14.00513   -443.69232   -429.68719   -8468.1659   -2317.6206    -3055.948   -20030.929    15.391435    13.329357    27.434298    5628.3639 
  112000      111.987    370.19539     15.21678   -444.88237   -429.66559   -8281.6087   -4974.3491   -3016.4445   -16854.032    15.391438    13.329359     27.43428    5628.3621 
  112500      112.487    350.42774    14.404236   -444.04771   -429.64348   -9658.8055    -3691.697   -3743.9371   -21540.782     15.39144    13.329361    27.434263    5628.3602 
  113000      112.987    361.48195    14.858617   -444.47988   -429.62126   -10160.786   -5135.5033   -5527.7283   -19819.126    15.391442    13.329363    27.434245    5628.3584 
  113500      113.487    357.03215    14.675709   -444.27529   -429.59958   -8891.0593   -3634.6731   -2778.6711   -20259.834    15.391445    13.329365    27.434228    5628.3565 
  114000      113.987    343.61602    14.124242   -443.70189   -429.57765    -9731.165   -6284.1934   -3022.9585   -19886.343    15.391447    13.329367     27.43421    5628.3547 
  114500      114.487    355.73758    14.622496   -444.17798   -429.55549   -8821.9443   -5453.2636    -1828.291   -19184.278     15.39145    13.329369    27.434193    5628.3528 
  115000      114.987    370.63795    15.234971   -444.76836   -429.53338   -10103.238   -5089.8977   -3737.5364   -21482.278    15.391452    13.329371    27.434175     5628.351 
  115500      115.487    366.11651    15.049119    -444.5609   -429.51178   -8691.3651   -5060.6625   -1030.3127    -19983.12    15.391454    13.329373    27.434158    5628.3491 
  116000      115.987     378.9295    15.575793   -445.06539    -429.4896   -9734.6603   -6468.7659   -1840.5413   -20894.674    15.391457    13.329376     27.43414    5628.3473 
  116500      116.487    356.02326    14.634239   -444.10091   -429.46667   -9429.4432    -5287.314   -1258.7406   -21742.275    15.391459    13.329378    27.434123    5628.3455 
  117000      116.987    356.95067     14.67236   -444.11704   -429.44468    -8440.651   -4654.4395   -1112.3789   -19555.135    15.391462     13.32938    27.434105    5628.3436 
  117500      117.487     386.6307    15.892349   -445.31488   -429.42253   -9929.5774   -3471.6706    -4047.117   -22269.945    15.391464    13.329382    27.434088    5628.3418 
  118000      117.987    372.98984    15.331645   -444.73206   -429.40041   -9606.7244    -3375.106   -4574.5704   -20870.497    15.391466    13.329384     27.43407    5628.3399 
  118500      118.487    349.17965    14.352934   -443.73052   -429.37759   -9440.4899   -4897.0564   -5642.5701   -17781.843    15.391469    13.329386    27.434053    5628.3381 
  119000      118.987    360.20793    14.806248   -444.16197   -429.35572   -8955.4889   -6210.0081   -3763.4097   -16893.049    15.391471    13.329388    27.434035    5628.3362 
  119500      119.487    374.02526    15.374206   -444.70697   -429.33277   -9511.6409   -4664.6334   -4055.6084   -19814.681    15.391474     13.32939    27.434018    5628.3344 
  120000      119.987    359.19596    14.764652   -444.07394   -429.30929   -8415.3491   -2382.0179   -1744.9118   -21119.118    15.391476    13.329392       27.434    5628.3325 
  120500      120.487    388.93885    15.987225   -445.27542    -429.2882   -9485.4767    -4794.332   -4003.7093   -19658.389    15.391478    13.329394    27.433983    5628.3307 
  121000      120.987     357.5521    14.697081   -443.96179   -429.26471   -8795.8327   -5158.6364   -2812.4516    -18416.41    15.391481    13.329396    27.433965    5628.3288 
  121500      121.487     358.4642    14.734573   -443.97611   -429.24154   -8751.7584   -4509.3076   -1018.2089   -20727.759    15.391483    13.329398    27.433948     5628.327 
  122000      121.987    366.92102    15.082188    -444.3017   -429.21951   -8902.8745   -2845.3783    664.34122   -24527.587    15.391486      13.3294     27.43393    5628.3251 
  122500      122.487    369.85643    15.202847   -444.39934   -429.19649   -8866.5554   -3192.1247   -2112.8918    -21294.65    15.391488    13.329402    27.433913    5628.3233 
  123000      122.987    376.21876    15.464369   -444.63815   -429.17378   -10164.042   -6051.4228   -3534.1164   -20906.588     15.39149    13.329404    27.433895    5628.3214 
  123500      123.487    375.46808    15.433513   -444.58438   -429.15087   -9288.7914   -2211.9602   -5966.4687   -19687.945    15.391493    13.329406    27.433878    5628.3196 
  124000      123.987    364.88188     14.99837   -444.12619   -429.12782   -7567.6886   -3511.5248   -2379.8974   -16811.644    15.391495    13.329408     27.43386    5628.3177 
  124500      124.487    361.64948    14.865503   -443.97016   -429.10466   -8812.4367   -2579.4226    -4891.655   -18966.233    15.391498     13.32941    27.433843    5628.3159 
  125000      124.987    356.13976    14.639027   -443.72048   -429.08146   -8148.3729   -4085.3875   -1913.3785   -18446.353      15.3915    13.329412    27.433825    5628.3141 
  125500      125.487       375.76    15.445512   -444.50418   -429.05867   -8712.9733    -3018.273   -3084.4007   -20036.246    15.391502    13.329414    27.433808    5628.3122 
  126000      125.987     352.1383    14.474549   -443.50992   -429.03538   -8498.6305    -4143.232   -2654.9924   -18697.667    15.391505    13.329417     27.43379    5628.3104 
  126500      126.487    376.59205    15.479713   -444.49239   -429.01268    -9996.616   -4070.6208   -4723.0123   -21196.215    15.391507    13.329419    27.433773    5628.3085 
  127000      126.987    372.37078    15.306199   -444.29582   -428.98962   -9416.6215   -5016.8566   -2737.5432   -20495.465     15.39151    13.329421    27.433755    5628.3067 
  127500      127.487    365.46989     15.02254   -443.98889   -428.96635   -8201.5548   -4719.8487   -3620.9418   -16263.874    15.391512    13.329423    27.433738    5628.3048 
  128000      127.987    370.05375    15.210958   -444.15362   -428.94267   -7607.9322   -5284.5812   -1341.9703   -16197.245    15.391514    13.329425     27.43372     5628.303 
  128500      128.487    365.18235     15.01072   -443.93009   -428.91937   -9715.5077   -3132.9516   -4765.7324   -21247.839    15.391517    13.329427    27.433703    5628.3011 
  129000      128.987    357.63713    14.700576   -443.59679   -428.89621   -8141.0374   -2761.4688   -329.40952   -21332.234    15.391519    13.329429    27.433685    5628.2993 
  129500      129.487    374.42811    15.390765   -444.26406   -428.87329    -9365.787   -5196.1249   -2397.4626   -20503.773    15.391522    13.329431    27.433668    5628.2974 
  130000      129.987    378.79728    15.570359   -444.42023   -428.84987   -9491.8231   -5267.6523    -4215.073   -18992.744    15.391524    13.329433     27.43365    5628.2956 
  130500      130.487    370.29663    15.220942   -444.04764   -428.82669   -8533.5996   -3108.9777   -4319.7558   -18172.065    15.391526    13.329435    27.433633    5628.2937 
  131000      130.987    365.32076     15.01641   -443.81936   -428.80295   -8658.3584   -3936.2801   -789.69975   -21249.095    15.391529    13.329437    27.433615    5628.2919 
  131500      131.487    371.35641    15.264504   -444.04446   -428.77996    -8471.168    -3047.669   -1409.8267   -20956.008    15.391531    13.329439    27.433598      5628.29 
  132000      131.987    366.07211    15.047294   -443.80407   -428.75677   -8854.1574   -4226.2263    -4799.876    -17536.37    15.391534    13.329441     27.43358    5628.2882 
  132500      132.487    372.99739    15.331956   -444.06542   -428.73346   -8980.5519   -3085.4448   -1921.1724   -21935.038    15.391536    13.329443    27.433563    5628.2863 
  133000      132.987    356.05813    14.635672   -443.34541   -428.70974   -8507.2826   -7270.0659   -614.08708   -17637.695    15.391538    13.329445    27.433545    5628.2845 
  133500      133.487    381.40976    15.677744   -444.36422   -428.68647   -8206.4499   -3356.0586   -2154.3644   -19108.927    15.391541    13.329447    27.433528    5628.2827 
  134000      133.987    368.00556    15.126768   -443.78977     -428.663   -8424.0767   -4514.7009    -680.1915   -20077.338    15.391543    13.329449     27.43351    5628.2808 
  134500      134.487    350.69079    14.415049    -443.0546   -428.63955   -9737.0658   -4977.4065   -6133.5138   -18100.277    15.391546    13.329451    27.433493     5628.279 
  135000      134.987    371.34297    15.263951   -443.88037   -428.61642   -9162.1679   -3836.7604   -4103.1779   -19546.565    15.391548    13.329453    27.433475    5628.2771 
  135500      135.487    374.56592    15.396429   -443.98924   -428.59281   -9124.9542   -5264.6331   -3317.1073   -18793.122     15.39155    13.329455    27.433458    5628.2753 
  136000      135.987    385.03886    15.826917   -444.39631   -428.56939   -8327.5634   -1351.7648   -6153.8864   -17477.039    15.391553    13.329458     27.43344    5628.2734 
  136500      136.487    379.49264    15.598941   -444.14439   -428.54545   -9601.4833   -5018.2693   -2550.3532   -21235.827    15.391555     13.32946    27.433423    5628.2716 
  137000      136.987    366.07886    15.047571   -443.56948   -428.52191   -8545.4322   -4791.6415   -838.01174   -20006.644    15.391558    13.329462    27.433405    5628.2697 
  137500      137.487    368.24517    15.136617   -443.63445   -428.49784   -8882.9539   -3344.7478   -3862.2123   -19441.902     15.39156    13.329464    27.433388    5628.2679 
  138000      137.987    378.82511    15.571502   -444.04615   -428.47465    -9290.411   -1976.6043   -3773.9858   -22120.643    15.391562    13.329466     27.43337     5628.266 
  138500      138.487    385.84069    15.859876    -444.3109   -428.45102   -9885.4502   -5233.5674   -4042.9157   -20379.868    15.391565    13.329468    27.433353    5628.2642 
  139000      138.987    377.55814    15.519424   -443.94619   -428.42677   -8790.0097   -4218.5207   -4266.3888    -17885.12    15.391567     13.32947    27.433335    5628.2623 
  139500      139.487    381.37646    15.676375   -444.07947    -428.4031    -10220.37   -6871.2718   -4293.2409   -19496.598     15.39157    13.329472    27.433318    5628.2605 
  140000      139.987    364.36995    14.977327   -443.35594   -428.37861   -8753.3495   -3910.5813    -2310.231   -20039.236    15.391572    13.329474      27.4333    5628.2586 
  140500      140.487    393.81229    16.187546   -444.54303   -428.35548   -8408.7749   -5049.2134   -3098.3157   -17078.796    15.391574    13.329476    27.433283    5628.2568 
  141000      140.987    400.41339    16.458883   -444.79059   -428.33171    -9589.616   -3570.5321   -5074.7554   -20123.561    15.391577    13.329478    27.433265    5628.2549 
  141500      141.487    360.93864    14.836284    -443.1435   -428.30721   -8652.7962   -3387.3897    -1376.819    -21194.18    15.391579     13.32948    27.433248    5628.2531 
  142000      141.987    395.10307    16.240603   -444.52391   -428.28331   -8821.8555   -6351.7263   -1379.3148   -18734.525    15.391582    13.329482     27.43323    5628.2513 
  142500      142.487    368.77462     15.15838   -443.41775   -428.25937   -7774.0407    -3787.631   -3716.6381   -15817.853    15.391584    13.329484    27.433213    5628.2494 
  143000      142.987    355.59188    14.616507   -442.85145   -428.23495   -8877.8076   -4368.5662   -2380.2034   -19884.653    15.391586    13.329486    27.433195    5628.2476 
  143500      143.487    380.66081    15.646958   -443.85837   -428.21141   -8161.8777   -3522.4108   -3888.6113   -17074.611    15.391589    13.329488    27.433178    5628.2457 
  144000      143.987    385.41497    15.842377   -444.02971   -428.18733   -8617.5795   -3039.3597   -4495.4521   -18317.927    15.391591     13.32949     27.43316    5628.2439 
  144500      144.487    360.42163    14.815032   -442.97764    -428.1626   -8117.4014   -4149.9048   -1855.1981   -18347.101    15.391594    13.329492    27.433143     5628.242 
  145000      144.987    381.43829    15.678917   -443.81775   -428.13883   -9597.5358   -5769.7549   -2599.7744   -20423.078    15.391596    13.329494    27.433125    5628.2402 
  145500      145.487    371.04588    15.251739   -443.36704   -428.11531   -7744.3617   -3111.6984   -2622.4221   -17498.964    15.391598    13.329496    27.433108    5628.2383 
  146000      145.987    380.37868    15.635362   -443.72626    -428.0909   -8238.7319   -4315.0847   -3315.7346   -17085.376    15.391601    13.329499     27.43309    5628.2365 
  146500      146.487    378.76406    15.568993   -443.63559   -428.06659   -7779.3466   -4140.7927   -1182.7229   -18014.524    15.391603    13.329501    27.433073    5628.2346 
  147000      146.987     365.5656    15.026474   -443.06903   -428.04256   -8344.8649   -5401.1779   -4258.0433   -15375.373    15.391606    13.329503    27.433055    5628.2328 
  147500      147.487    395.51182    16.257405   -444.27623   -428.01883   -9211.6387   -4267.8409   -4267.3706   -19099.705    15.391608    13.329505    27.433038    5628.2309 
  148000      147.987    388.70763    15.977721   -443.97162    -427.9939   -7692.6612   -5066.1287   -469.46955   -17542.385     15.39161    13.329507     27.43302    5628.2291 
  148500      148.487    368.04176    15.128256    -443.0976   -427.96934   -8705.6462   -3114.2104   -1947.7983    -21054.93    15.391613    13.329509    27.433003    5628.2272 
  149000      148.987    370.89902    15.245703    -443.1911    -427.9454   -7711.0967   -4008.3009   -2962.2469   -16162.742    15.391615    13.329511    27.432985    5628.2254 
  149500      149.487    396.64185    16.303855   -444.22562   -427.92176   -8897.1161   -4957.5521   -3577.9447   -18155.851    15.391618    13.329513    27.432968    5628.2235 
  150000      149.987     387.4568    15.926305   -443.82338   -427.89708   -7682.2792   -1066.4516   -4123.7333   -17856.653     15.39162    13.329515     27.43295    5628.2217 
  150500      150.487    378.97706    15.577748   -443.45062   -427.87287   -7211.5549   -4884.8801   -1110.0249    -15639.76    15.391622    13.329517    27.432933    5628.2198 
  151000      150.987     371.6014    15.274574   -443.12245   -427.84788   -8989.7545   -4914.4304   -3579.4998   -18475.333    15.391625    13.329519    27.432915     5628.218 
  151500      151.487    389.08751    15.993336   -443.81741   -427.82408   -9046.3426    -4478.784   -5039.5383   -17620.705    15.391627    13.329521    27.432898    5628.2162 
  152000      151.987    375.99181     15.45504   -443.25452   -427.79948   -7135.4562    -2617.653   -12.109705   -18776.606     15.39163    13.329523     27.43288    5628.2143 
  152500      152.487    379.45467     15.59738   -443.37214   -427.77476   -8226.5638   -2383.6487   -837.02393   -21459.019    15.391632    13.329525    27.432863    5628.2125 
  153000      152.987    413.95048    17.015321    -444.7664   -427.75107   -8888.5971   -4664.7033   -2773.1103   -19227.978    15.391634    13.329527    27.432845    5628.2106 
  153500      153.487    385.09137    15.829075   -443.55491   -427.72584   -8455.2689   -4091.5502   -3600.3014   -17673.955    15.391637    13.329529    27.432828    5628.2088 
  154000      153.987    375.07671    15.417426   -443.11852   -427.70109   -8693.0137   -5965.9525     -4664.43   -15448.659    15.391639    13.329531     27.43281    5628.2069 
  154500      154.487    376.20378    15.463753   -443.14053   -427.67677   -8293.2753   -4192.6823    -2418.755   -18268.389    15.391642    13.329533    27.432793    5628.2051 
  155000      154.987    384.89204    15.820882   -443.47357   -427.65268   -8901.1292    -3880.016   -2433.6405   -20389.731    15.391644    13.329535    27.432775    5628.2032 
  155500      155.487    412.21142    16.943838   -444.57199   -427.62816   -9097.2828    -5259.439   -265.62535   -21766.784    15.391646    13.329537    27.432758    5628.2014 
  156000      155.987    400.62676    16.467653   -444.07016    -427.6025   -9433.8552   -7561.7011    -2917.147   -17822.717    15.391649     13.32954     27.43274    5628.1995 
  156500      156.487     394.3177    16.208321   -443.78625   -427.57793   -7845.1852   -1727.7236   -769.98435   -21037.848    15.391651    13.329542    27.432723    5628.1977 
  157000      156.987    375.84378    15.448956   -443.00178   -427.55282   -8522.0406   -6638.6699   -2198.1285   -16729.323    15.391654    13.329544    27.432705    5628.1958 
  157500      157.487    402.64782    16.550728   -444.07934   -427.52861   -8734.3244   -2196.1253   -3394.2346   -20612.613    15.391656    13.329546    27.432688     5628.194 
  158000      157.987    383.10845    15.747568   -443.25066   -427.50309   -8175.8993    -3875.618   -328.59833   -20323.482    15.391658    13.329548     27.43267    5628.1921 
  158500      158.487    377.72682    15.526358   -443.00507   -427.47871   -7901.4214    68.649357   -3591.8298   -20181.084    15.391661     13.32955    27.432653    5628.1903 
  159000      158.987    375.88851    15.450794   -442.90437   -427.45357   -7568.9124   -2312.7073   -3045.2433   -17348.787    15.391663    13.329552    27.432635    5628.1884 
  159500      159.487    395.35395    16.250916   -443.68018   -427.42926   -8087.0695   -3472.9154   -1843.2683   -18945.025    15.391666    13.329554    27.432618    5628.1866 
  160000      159.987    396.30584    16.290043   -443.69406   -427.40402   -7585.7017   -701.46468   -2556.2046   -19499.436    15.391668    13.329556      27.4326    5628.1848 
  160500      160.487    375.08004    15.417562   -442.79633   -427.37877    -8130.843    -3566.382   -3256.0519   -17570.095     15.39167    13.329558    27.432583    5628.1829 
  161000      160.987    389.15538    15.996125   -443.35051   -427.35439   -8211.3372   -4024.8661   -1949.8274   -18659.318    15.391673     13.32956    27.432565    5628.1811 
  161500      161.487    360.48569    14.817666   -442.14693   -427.32927   -8227.4705   -2888.2261   -5371.2076   -16422.978    15.391675    13.329562    27.432548    5628.1792 
  162000      161.987    407.94227    16.768355   -444.07349   -427.30513   -8236.5208   -3497.3203   -3134.8111   -18077.431    15.391678    13.329564     27.43253    5628.1774 
  162500      162.487     387.3218    15.920756    -443.2004   -427.27964    -7622.879   -3153.9009   -3088.7424   -16625.994     15.39168    13.329566    27.432513    5628.1755 
  163000      162.987    398.58587    16.383763    -443.6379   -427.25414   -7496.6057   -1662.0797   -3063.3075    -17764.43    15.391682    13.329568    27.432495    5628.1737 
  163500      163.487    379.10709    15.583093   -442.81242   -427.22932   -8104.1997   -3057.6662   -5910.9546   -15343.978    15.391685     13.32957    27.432478    5628.1718 
  164000      163.987    380.01701    15.620495   -442.82471   -427.20422   -7981.4268   -3574.6487   -3196.8408   -17172.791    15.391687    13.329572     27.43246      5628.17 
  164500      164.487    418.84988     17.21671   -444.39559   -427.17888   -8874.3616   -2682.1264   -2621.8754   -21319.083     15.39169    13.329574    27.432443    5628.1681 
  165000      164.987     395.9062    16.273616   -443.42628   -427.15266   -7706.0129   -3352.1728   -1512.1793   -18253.686    15.391692    13.329576    27.432425    5628.1663 
  165500      165.487    373.89172    15.368717   -442.49588   -427.12717   -7410.3892   -3119.9352   -1400.4385   -17710.794    15.391694    13.329578    27.432408    5628.1644 
  166000      165.987    383.43399    15.760949   -442.86293   -427.10198   -8312.3516   -4423.1453   -2489.3267   -18024.583    15.391697    13.329581     27.43239    5628.1626 
  166500      166.487    396.26782     16.28848   -443.36499   -427.07651   -7796.2155   -4086.3459   -554.65064    -18747.65    15.391699    13.329583    27.432373    5628.1607 
  167000      166.987    382.89767    15.738904   -442.78983   -427.05092   -8109.9782   -3006.4736   -2738.3061   -18585.155    15.391702    13.329585    27.432355    5628.1589 
  167500      167.487    403.23907    16.575031   -443.60094   -427.02591   -8260.4516   -655.50709   -2063.9304   -22061.917    15.391704    13.329587    27.432338     5628.157 
  168000      167.987    377.94861    15.535474   -442.53583   -427.00035   -8316.7148   -4376.2559   -2226.0244   -18347.864    15.391706    13.329589     27.43232    5628.1552 
  168500      168.487    393.65088    16.180912   -443.15626   -426.97535    -9188.704    -3874.576    -4454.588   -19236.948    15.391709    13.329591    27.432303    5628.1533 
  169000      168.987    387.36391    15.922487   -442.87247   -426.94999   -7843.3676   -712.43143   -3777.0681   -19040.603    15.391711    13.329593    27.432285    5628.1515 
  169500      169.487    385.13343    15.830804   -442.75554   -426.92474   -8529.6791   -4864.8531    -3059.521   -17664.663    15.391714    13.329595    27.432268    5628.1497 
  170000      169.987    384.24749    15.794388    -442.6943   -426.89991    -8341.361   -1585.2752   -3880.2322   -19558.575    15.391716    13.329597     27.43225    5628.1478 
  170500      170.487    405.74984    16.678236   -443.55258   -426.87434   -8756.7021   -4796.1482   -1501.7737   -19972.185    15.391718    13.329599    27.432233     5628.146 
  171000      170.987    395.84342    16.271036    -443.1201   -426.84906   -7328.2452   -1874.2858   -2323.8215   -17786.628    15.391721    13.329601    27.432215    5628.1441 
  171500      171.487    402.18934    16.531883   -443.35531   -426.82343   -8496.4856   -4889.7831   -2623.5012   -17976.173    15.391723    13.329603    27.432198    5628.1423 
  172000      171.987    413.07786    16.979452   -443.77733   -426.79788   -6708.8122   -2912.8108   -885.60737   -16328.018    15.391726    13.329605     27.43218    5628.1404 
  172500      172.487    388.93256    15.986966   -442.75969   -426.77273   -7715.9926   -5064.1981   -1394.0105   -16689.769    15.391728    13.329607    27.432163    5628.1386 
  173000      172.987    394.88389    16.231594   -442.97876   -426.74716   -8066.4306   -2952.4963   -2730.9592   -18515.836     15.39173    13.329609    27.432145    5628.1367 
  173500      173.487    372.81991     15.32466   -442.04604   -426.72138   -7606.8545   -3661.7049   -4951.2368   -14207.622    15.391733    13.329611    27.432128    5628.1349 
  174000      173.987    404.28811    16.618152   -443.31447   -426.69632   -8478.2328   -3870.8497   -3889.9448   -17673.904    15.391735    13.329613     27.43211     5628.133 
  174500      174.487    400.29309    16.453938    -443.1242   -426.67026   -7022.1098   -2762.0825   -1171.1212   -17133.126    15.391738    13.329615    27.432093    5628.1312 
  175000      174.987    368.53325    15.148458   -441.79338   -426.64492   -7905.3012   -4743.8789   -1827.3425   -17144.682     15.39174    13.329617    27.432075    5628.1293 
  175500      175.487    379.29765    15.590926   -442.21038   -426.61945   -7956.0423   -5265.2041   -1256.7816   -17346.141    15.391742    13.329619    27.432058    5628.1275 
  176000      175.987    394.78776    16.227643   -442.82155    -426.5939   -8087.1979   -2370.4635   -1641.7858   -20249.345    15.391745    13.329622     27.43204    5628.1256 
  176500      176.487    410.54507    16.875343   -443.44362   -426.56828   -8460.2292    -3936.806   -2093.1087   -19350.773    15.391747    13.329624    27.432023    5628.1238 
  177000      176.987    401.88303    16.519292   -443.06185   -426.54256   -9406.8939   -5647.3192   -2293.0289   -20280.333     15.39175    13.329626    27.432005    5628.1219 
  177500      177.487    396.39771    16.293819   -442.81071   -426.51689   -7434.8152   -5326.8348    1376.2544   -18353.865    15.391752    13.329628    27.431988    5628.1201 
  178000      177.987    409.43209    16.829594   -443.32085   -426.49126   -7395.4718   -4163.2605   -874.40939   -17148.746    15.391754     13.32963     27.43197    5628.1183 
  178500      178.487    414.78948    17.049808    -443.5153   -426.46549   -8335.4332   -4947.3525   -92.434241   -19966.513    15.391757    13.329632    27.431953    5628.1164 
  179000      178.987    381.15351    15.667211   -442.10614   -426.43893    -6444.566   -2354.2415     -86.7684   -16892.688    15.391759    13.329634    27.431935    5628.1146 
  179500      179.487     412.6551    16.962075   -443.37567    -426.4136   -9056.5617   -5929.0569   -682.25667   -20558.371    15.391762    13.329636    27.431918    5628.1127 
  180000      179.987    390.13344    16.036328   -442.42434   -426.38801   -7449.7232   -2801.7885    -2609.869   -16937.512    15.391764    13.329638      27.4319    5628.1109 
  180500      180.487    392.32831    16.126548   -442.48786   -426.36132   -8421.5127   -4400.2961   -1805.4543   -19058.788    15.391766     13.32964    27.431883     5628.109 
  181000      180.987    415.64767    17.085084   -443.42031   -426.33523   -8548.3319   -3765.1631   -2075.2404   -19804.592    15.391769    13.329642    27.431865    5628.1072 
  181500      181.487    402.70397    16.553036   -442.86215   -426.30911   -6333.3722   -586.05558   -3501.7252   -14912.336    15.391771    13.329644    27.431848    5628.1053 
  182000      181.987    394.08453    16.198737   -442.48153    -426.2828   -7240.2928   -3525.2131   -1560.8976   -16634.768    15.391774    13.329646     27.43183    5628.1035 
  182500      182.487    424.06161    17.430936   -443.68814   -426.25721   -8322.9976    -2428.292    -1659.935   -20880.766    15.391776    13.329648    27.431813    5628.1016 
  183000      182.987    416.85477    17.134701   -443.36592   -426.23122   -7590.7147   -795.35074   -3657.6538    -18319.14    15.391778     13.32965    27.431795    5628.0998 
  183500      183.487    393.22985    16.163605   -442.36835   -426.20475   -7025.4184   -2078.8592     -2662.42   -16334.976    15.391781    13.329652    27.431778    5628.0979 
  184000      183.987    407.80111    16.762553   -442.94103   -426.17847   -8327.3232   -3179.5525   -2663.1193   -19139.298    15.391783    13.329654     27.43176    5628.0961 
  184500      184.487    407.75608    16.760702   -442.91279   -426.15209   -7550.1694   -5125.2688    -3526.883   -13998.356    15.391786    13.329656    27.431743    5628.0942 
  185000      184.987    400.40623    16.458588   -442.58432   -426.12573   -7695.6453   -2124.8516   -1231.7931   -19730.291    15.391788    13.329658    27.431725    5628.0924 
  185500      185.487    408.75125    16.801608   -442.90167   -426.10006   -8352.1146   -4998.2715   -3488.4211   -16569.651     15.39179     13.32966    27.431708    5628.0905 
  186000      185.987    409.11039    16.816371   -442.89028   -426.07391   -9460.1092   -4163.7928   -1004.8764   -23211.658    15.391793    13.329663     27.43169    5628.0887 
  186500      186.487    414.04645    17.019266   -443.06649   -426.04722   -8749.2299   -3925.8181   -1899.7088   -20422.163    15.391795    13.329665    27.431673    5628.0868 
  187000      186.987    414.13015    17.022706   -443.04354   -426.02084   -6067.5151   -2579.4125    -443.3196   -15179.813    15.391798    13.329667    27.431655     5628.085 
  187500      187.487    416.67729    17.127406   -443.12185   -425.99444   -8263.2105    -4357.966   -5782.6198   -14649.046      15.3918    13.329669    27.431638    5628.0832 
  188000      187.987    396.57798    16.301229   -442.26875   -425.96752   -6669.1142    440.79779   -2109.5927   -18338.548    15.391802    13.329671     27.43162    5628.0813 
  188500      188.487    417.01398    17.141245   -443.08289   -425.94164   -8791.1483   -4008.2847   -1834.0577   -20531.103    15.391805    13.329673    27.431603    5628.0795 
  189000      188.987    412.10945    16.939646   -442.85498   -425.91533   -7182.7508   -3367.3987   -763.19675   -17417.657    15.391807    13.329675    27.431585    5628.0776 
  189500      189.487    419.76856    17.254472   -443.14378   -425.88931   -8759.3435   -4524.0394    -2316.054   -19437.937     15.39181    13.329677    27.431568    5628.0758 
  190000      189.987    388.75651     15.97973   -441.84286   -425.86313   -7755.3006   -2485.0537    172.09817   -20952.946    15.391812    13.329679     27.43155    5628.0739 
  190500      190.487    420.46248    17.282995   -443.12055   -425.83756   -7409.5002   -6239.2943    1301.3839    -17290.59    15.391814    13.329681    27.431533    5628.0721 
  191000      190.987    412.19924    16.943337   -442.75441   -425.81108   -8255.3774   -1859.8157   -2336.4396   -20569.877    15.391817    13.329683    27.431515    5628.0702 
  191500      191.487    396.07681    16.280629   -442.06613    -425.7855   -7267.7304   -1551.4369   -4424.6356   -15827.119    15.391819    13.329685    27.431498    5628.0684 
  192000      191.987    428.07022    17.595709   -443.35488   -425.75917   -7631.3227   -3567.7008   -5231.1188   -14095.148    15.391822    13.329687     27.43148    5628.0665 
  192500      192.487    395.39109    16.252442   -441.98498   -425.73254   -7965.9112   -4581.7403    896.01708    -20212.01    15.391824    13.329689    27.431463    5628.0647 
  193000      192.987    410.06796    16.855731   -442.56218   -425.70645   -7181.3959   -4166.0047    1717.9402   -19096.123    15.391826    13.329691    27.431445    5628.0628 
  193500      193.487    406.49541    16.708883   -442.38777   -425.67889   -7468.8851   -3355.8231   -1633.6933   -17417.139    15.391829    13.329693    27.431428     5628.061 
  194000      193.987    403.80078    16.598121   -442.25062    -425.6525   -7367.6838   -1822.2794   -801.15952   -19479.613    15.391831    13.329695     27.43141    5628.0591 
  194500      194.487    403.44107    16.583335   -442.20947   -425.62613   -8364.1919    -5911.608    466.08426   -19647.052    15.391834    13.329697    27.431393    5628.0573 
  195000      194.987    413.28226    16.987854   -442.58732   -425.59946   -7180.8651   -2861.5477    2466.0299   -21147.077    15.391836    13.329699    27.431375    5628.0554 
  195500      195.487    421.14252    17.310948   -442.88463   -425.57368   -7144.1887   -3317.7273    1011.7075   -19126.546    15.391838    13.329701    27.431358    5628.0536 
  196000      195.987    419.12564    17.228045   -442.77534    -425.5473   -6846.9424   -5475.0035    -1847.699   -13218.125    15.391841    13.329704     27.43134    5628.0517 
  196500      196.487    409.37589    16.827284   -442.34714   -425.51986   -8399.3426   -3297.8533   -2324.6967   -19575.478    15.391843    13.329706    27.431323    5628.0499 
  197000      196.987    402.00939    16.524486   -442.01751   -425.49302   -7628.8751   -1800.1009   -2327.9669   -18758.558    15.391846    13.329708    27.431305    5628.0481 
  197500      197.487    399.77196    16.432517   -441.89867   -425.46615   -6724.7177   -795.16894   -3134.5474   -16244.437    15.391848     13.32971    27.431288    5628.0462 
  198000      197.987    413.91124    17.013708   -442.45289   -425.43918   -6541.8009   -2759.9193   -1382.6425   -15482.841     15.39185    13.329712     27.43127    5628.0444 
  198500      198.487    410.74846    16.883703   -442.29709   -425.41339    -7003.434   -1477.7019   -1549.7918   -17982.808    15.391853    13.329714    27.431253    5628.0425 
  199000      198.987    409.80293    16.844837   -442.23093    -425.3861   -8160.7802   -3755.1239   -3674.9769    -17052.24    15.391855    13.329716    27.431235    5628.0407 
  199500      199.487    429.60078    17.658622   -443.01875   -425.36013   -8157.9835   -2751.9841   -2313.5075   -19408.459    15.391858    13.329718    27.431218    5628.0388 
  200000      199.987    413.88307     17.01255   -442.34557   -425.33302   -7577.2855   -6059.6012   -1460.0382   -15212.217     15.39186     13.32972      27.4312     5628.037 
  200500      200.487    398.89212    16.396351   -441.70189   -425.30554    -6055.365   -425.76442   -1627.9827   -16112.348    15.391862    13.329722    27.431183    5628.0351 
  201000      200.987    435.42199    17.897902   -443.17719   -425.27929   -8482.1173    -3584.804   -1794.3145   -20067.233    15.391865    13.329724    27.431165    5628.0333 
  201500      201.487    430.19293    17.682962   -442.93527   -425.25231   -6485.8682   -1640.5246   -358.30168   -17458.778    15.391867    13.329726    27.431148    5628.0314 
  202000      201.987    426.78673    17.542952   -442.76852   -425.22557   -7513.2522   -2985.2598   -3361.8789   -16192.618     15.39187    13.329728     27.43113    5628.0296 
  202500      202.487    400.65451    16.468794   -441.66716   -425.19837   -7187.5092   -2913.0018   -2613.9153   -16035.611    15.391872     13.32973    27.431113    5628.0277 
  203000      202.987    426.97016    17.550491   -442.72261   -425.17212   -7473.5991   -4069.4495   -1554.1723   -16797.175    15.391874    13.329732    27.431095    5628.0259 
  203500      203.487    401.82795    16.517028    -441.6614   -425.14438    -7279.682   -2168.1889   -1465.2836   -18205.574    15.391877    13.329734    27.431078     5628.024 
  204000      203.987     419.8112    17.256224   -442.37341   -425.11719   -7443.6704   -3274.0819   -2839.0957   -16217.833    15.391879    13.329736     27.43106    5628.0222 
  204500      204.487    428.35999     17.60762     -442.699   -425.09138   -7817.9086   -3781.5536   -2145.4967   -17526.675    15.391882    13.329738    27.431043    5628.0203 
  205000      204.987     417.1829    17.148189   -442.21199   -425.06381   -7495.1068   -578.74472   -4344.2557    -17562.32    15.391884     13.32974    27.431025    5628.0185 
  205500      205.487    429.48474    17.653853    -442.6912   -425.03735   -8093.4694   -3377.0284   -1907.5305   -18995.849    15.391886    13.329742    27.431008    5628.0166 
  206000      205.987    413.98456    17.016722   -442.02684   -425.01012   -5076.7199   -2997.7082    1295.8637   -13528.315    15.391889    13.329745     27.43099    5628.0148 
  206500      206.487    412.24599    16.945258   -441.92845   -424.98319   -6947.1155   -2606.7855   -3699.4961   -14535.065    15.391891    13.329747    27.430973     5628.013 
  207000      206.987     400.8853    16.478281   -441.43428     -424.956   -7614.2367   -3641.3143   -2531.3505   -16670.045    15.391894    13.329749    27.430955    5628.0111 
  207500      207.487    414.49955     17.03789   -441.96692   -424.92903   -6999.5565   -1902.9078   -2390.0995   -16705.662    15.391896    13.329751    27.430938    5628.0093 
  208000      207.987     396.7445    16.308074   -441.20992   -424.90185   -6343.9928   -1732.2893   -597.00453   -16702.684    15.391898    13.329753     27.43092    5628.0074 
  208500      208.487    428.34499    17.607003   -442.48192   -424.87492   -7228.0582   -3946.4897    1313.6427   -19051.328    15.391901    13.329755    27.430903    5628.0056 
  209000      208.987    420.87705    17.300036   -442.14779   -424.84775   -7737.5063   -6907.1254   -2179.8301   -14125.563    15.391903    13.329757    27.430885    5628.0037 
  209500      209.487    412.43241    16.952921   -441.77436   -424.82144   -6792.5433   -1960.0027   -1316.8191   -17100.808    15.391906    13.329759    27.430868    5628.0019 
  210000      209.987    411.76623    16.925538   -441.71964    -424.7941   -6259.1846   -2697.9946    2139.0599   -18218.619    15.391908    13.329761     27.43085         5628 
  210500      210.487    414.27448    17.028639   -441.79559   -424.76695   -7800.2205   -5088.8005   -2006.0105   -16305.851     15.39191    13.329763    27.430833    5627.9982 
  211000      210.987    406.03894    16.690119   -441.43026   -424.74014   -5225.7099   -1832.3604    1165.3793   -15010.149    15.391913    13.329765    27.430815    5627.9963 
  211500      211.487    428.18088    17.600258    -442.3134   -424.71314   -7245.9996   -5834.8022   -428.09737   -15475.099    15.391915    13.329767    27.430798    5627.9945 
  212000      211.987    409.91087    16.849274   -441.53483   -424.68556   -6836.5873   -808.98264   -29.232092   -19671.547    15.391918    13.329769     27.43078    5627.9926 
[...]
  948500      948.487    604.68978    24.855608    -438.0409   -413.18529    -2190.015   -981.71887    4605.3726   -10193.699    15.395453    13.332789    27.405003    5625.2693 
  949000      948.987    551.85592    22.683886   -435.86468   -413.18079   -1735.7413    4129.0026    4447.2806   -13783.507    15.395455    13.332791    27.404985    5625.2674 
  949500      949.487    557.23087    22.904822   -436.08111   -413.17629   -829.52058    2436.0861    8436.4183   -13361.066    15.395458    13.332793    27.404968    5625.2656 
  950000      949.987     568.9629    23.387064   -436.56072   -413.17366   -1270.0025    1289.7613    6560.7477   -11660.516     15.39546    13.332795     27.40495    5625.2637 
  950500      950.487     594.3291    24.429735   -437.60051   -413.17078   -2009.1301   -514.38875    4445.8788   -9958.8802    15.395462    13.332797    27.404933    5625.2619 
  951000      950.987    564.82836    23.217115   -436.38299   -413.16588   -2992.4809   -2859.4927    1088.3183   -7206.2685    15.395465    13.332799    27.404915      5625.26 
  951500      951.487    580.28044    23.852269   -437.01311   -413.16084   -2405.2909    2319.5683    3628.2424   -13163.683    15.395467    13.332801    27.404898    5625.2582 
  952000      951.987    570.97404    23.469731   -436.62853    -413.1588    -1536.778   -878.49729    3758.4787   -7490.3154     15.39547    13.332803     27.40488    5625.2563 
  952500      952.487    569.10618    23.392954     -436.547   -413.15405   -2017.5226    2611.0676    3629.2974   -12292.933    15.395472    13.332805    27.404863    5625.2545 
  953000      952.987    562.63197    23.126833   -436.27522   -413.14838   -1354.7726    2616.5477    4451.2351   -11132.101    15.395474    13.332807    27.404845    5625.2526 
  953500      953.487    582.82876    23.957016   -437.10173   -413.14472   -1869.3119    770.41043    3684.8383   -10063.184    15.395477    13.332809    27.404828    5625.2508 
  954000      953.987    568.27863    23.358938    -436.4983   -413.13936   -2094.4403    3462.0732    224.42217   -9969.8163    15.395479    13.332811     27.40481    5625.2489 
  954500      954.487    548.26277    22.536191   -435.67066   -413.13447    -1771.854   -1192.9735    7388.2496   -11510.838    15.395482    13.332813    27.404793    5625.2471 
  955000      954.987    548.58539    22.549452   -435.67945      -413.13    -474.4816   -327.41629    6981.9081   -8077.9366    15.395484    13.332815    27.404775    5625.2452 
  955500      955.487    574.73548    23.624344   -436.74935     -413.125   -1329.0198    1364.3971    2414.2833   -7765.7399    15.395486    13.332817    27.404758    5625.2434 
  956000      955.987    603.35484    24.800735    -437.9211   -413.12037   -3330.7374   -1700.1742    4502.2089   -12794.247    15.395489     13.33282     27.40474    5625.2415 
  956500      956.487    583.84469    23.998776   -437.11206   -413.11328   -2999.5827   -1439.9995    3164.5172   -10723.266    15.395491    13.332822    27.404723    5625.2397 
  957000      956.987    586.29896    24.099658   -437.20819   -413.10853   -1342.0231    3026.8729    2234.8419   -9287.7842    15.395494    13.332824    27.404705    5625.2378 
  957500      957.487    562.83395    23.135135   -436.23801   -413.10288   -695.98486    4752.0625    1330.6628   -8170.6798    15.395496    13.332826    27.404688     5625.236 
  958000      957.987    582.39707    23.939272   -437.03712   -413.09785   -1561.9335    1533.5921    4852.1314   -11071.524    15.395498    13.332828     27.40467    5625.2341 
  958500      958.487    565.23439    23.233805   -436.32695   -413.09315   -1193.1846    2964.5179    6467.7231   -13011.795    15.395501     13.33283    27.404653    5625.2323 
  959000      958.987    547.14355    22.490186   -435.57718   -413.08699    -382.4278    2330.1479     4706.957   -8184.3882    15.395503    13.332832    27.404635    5625.2304 
  959500      959.487    595.92023    24.495138   -437.57835   -413.08321   -4226.9724    3039.0617     1644.612   -17364.591    15.395506    13.332834    27.404618    5625.2286 
  960000      959.987    596.59457    24.522856   -437.60063   -413.07778   -857.26861    4973.9794    3983.2644    -11529.05    15.395508    13.332836      27.4046    5625.2267 
  960500      960.487    598.59501    24.605084   -437.67744   -413.07235   -2846.4111   -1664.1144    2507.7518   -9382.8706     15.39551    13.332838    27.404583    5625.2249 
  961000      960.987    590.49047    24.271949   -437.33901   -413.06706   -2163.1273     356.4843    499.80817   -7345.6742    15.395513     13.33284    27.404565     5625.223 
  961500      961.487    588.53679    24.191643   -437.25426   -413.06261   -2179.3436    3651.8892     2654.809   -12844.729    15.395515    13.332842    27.404548    5625.2212 
  962000      961.987    558.21869    22.945426   -436.00235   -413.05692   -1334.4413    1133.2454    6095.4269   -11231.996    15.395518    13.332844     27.40453    5625.2193 
  962500      962.487    564.85415    23.218175   -436.27179   -413.05361   -2885.6459    853.03098    1571.3417    -11081.31     15.39552    13.332846    27.404513    5625.2175 
  963000      962.987    575.24167    23.645151    -436.6909   -413.04575   -1211.6978    2583.6162    2445.8447   -8664.5544    15.395522    13.332848    27.404495    5625.2156 
  963500      963.487     565.6664    23.251562   -436.29311   -413.04154   -1822.5527   -892.05274    1957.0292   -6532.6347    15.395525     13.33285    27.404478    5625.2138 
  964000      963.987    610.54898    25.096449   -438.13079   -413.03435   -2021.8572    1529.0063    1463.0278   -9057.6057    15.395527    13.332852     27.40446    5625.2119 
  964500      964.487    552.56209    22.712913   -435.73908   -413.02617   -205.49736    3573.4885    3061.1293   -7251.1098     15.39553    13.332854    27.404443    5625.2101 
  965000      964.987    556.26618    22.865169   -435.88569   -413.02052   -168.43754    5660.4427    3822.2057   -9987.9611    15.395532    13.332856    27.404425    5625.2082 
  965500      965.487    548.83039    22.559523   -435.57343    -413.0139   -677.72255     2090.586    488.09843   -4611.8521    15.395534    13.332858    27.404408    5625.2064 
  966000      965.987    561.34731    23.074028   -436.08271   -413.00869   -163.44029    5360.0231    2253.1836   -8103.5276    15.395537    13.332861     27.40439    5625.2045 
  966500      966.487    558.76349     22.96782   -435.97023   -413.00241   -1865.9601   -971.49514    5082.9588    -9709.344    15.395539    13.332863    27.404373    5625.2027 
  967000      966.987    583.41201    23.980991   -436.97661   -412.99562    -2217.609    3632.1445    2850.8107   -13135.782    15.395542    13.332865    27.404355    5625.2008 
  967500      967.487    582.78188     23.95509   -436.94507   -412.98998    -1123.561    1528.9517    3184.1848   -8083.8194    15.395544    13.332867    27.404338     5625.199 
  968000      967.987    550.90453     22.64478   -435.62978     -412.985   -1458.4508    689.56353    6340.9166   -11405.833    15.395546    13.332869     27.40432    5625.1971 
  968500      968.487    581.67946    23.909775   -436.89011   -412.98034   -2685.6921    1375.0281     -370.334   -9061.7705    15.395549    13.332871    27.404303    5625.1953 
  969000      968.987    573.06601    23.555722   -436.52751   -412.97179    -2261.044    3688.7022    2327.6392   -12799.473    15.395551    13.332873    27.404285    5625.1934 
  969500      969.487    589.23696    24.220424   -437.18739   -412.96697    -3137.481    -1272.913     3247.267   -11386.797    15.395554    13.332875    27.404268    5625.1916 
  970000      969.987    602.49064    24.765213   -437.72547   -412.96026   -2944.6928   -2269.2045     3230.922   -9795.7958    15.395556    13.332877     27.40425    5625.1897 
  970500      970.487    574.81442    23.627589   -436.58075   -412.95317   -1755.8171    304.05958    5345.5636   -10917.074    15.395558    13.332879    27.404233    5625.1879 
  971000      970.987    573.20935    23.561613   -436.50859   -412.94698   -1882.9702    164.52127    4760.4474   -10573.879    15.395561    13.332881    27.404215     5625.186 
  971500      971.487    572.59874    23.536515   -436.47694   -412.94043   -1484.3528    2551.9895    2433.2502   -9438.2982    15.395563    13.332883    27.404198    5625.1842 
  972000      971.987    555.77767    22.845089   -435.77995   -412.93486   -467.97794    958.73464    3873.3458   -6236.0143    15.395566    13.332885     27.40418    5625.1823 
  972500      972.487    604.24237    24.837217   -437.76635   -412.92913   -1495.0413   -1870.0919    5305.2738   -7920.3059    15.395568    13.332887    27.404163    5625.1805 
  973000      972.987    584.15668      24.0116   -436.93411   -412.92251   -1502.7869    2316.1555     814.0405   -7638.5568     15.39557    13.332889    27.404145    5625.1786 
  973500      973.487    572.12731    23.517136   -436.43234   -412.91521   -2891.0141   -485.02171    2148.8454   -10336.866    15.395573    13.332891    27.404128    5625.1768 
  974000      973.987    602.63892    24.771308   -437.67981    -412.9085   -3108.4726    136.02702   -1572.7876    -7888.657    15.395575    13.332893     27.40411    5625.1749 
  974500      974.487    582.79813    23.955758   -436.85805   -412.90229   -741.38924    152.50982    4201.9623   -6578.6398    15.395578    13.332895    27.404093    5625.1731 
  975000      974.987    621.50613    25.546839   -438.44094    -412.8941   -2328.8333   -1046.4051    4184.1108   -10124.205     15.39558    13.332897    27.404075    5625.1712 
  975500      975.487    564.00756    23.183376   -436.07061   -412.88723   -584.73965     5007.183     3470.525   -10231.927    15.395582    13.332899    27.404058    5625.1694 
  976000      975.987    564.23807    23.192851   -436.07395    -412.8811   -908.30124    183.43809    3224.2325   -6132.5744    15.395585    13.332902     27.40404    5625.1675 
  976500      976.487    575.30698    23.647836   -436.52067   -412.87284   -741.89573    5455.2362    5823.7339   -13504.657    15.395587    13.332904    27.404023    5625.1657 
  977000      976.987    579.85805    23.834906   -436.70185   -412.86694     -2885.09   -141.47005    1608.6994   -10122.499     15.39559    13.332906    27.404005    5625.1638 
  977500      977.487    556.66307    22.881483    -435.7406   -412.85911   -812.37638    3969.3388    2217.3166   -8623.7846    15.395592    13.332908    27.403988     5625.162 
  978000      977.987    556.22247    22.863372   -435.71532   -412.85194   -1479.7315    59.316413    2965.7671   -7464.2781    15.395594     13.33291     27.40397    5625.1601 
  978500      978.487    607.24766    24.960749   -437.80437   -412.84362   -2394.6378   -74.104618    4754.7934   -11864.602    15.395597    13.332912    27.403953    5625.1583 
  979000      978.987    570.89144    23.466336   -436.30266   -412.83632   -2474.8088   -7.2834844    3875.0015   -11292.144    15.395599    13.332914    27.403935    5625.1564 
  979500      979.487    535.41567    22.008114   -434.83662   -412.82851   -902.19394    3584.6769    2957.9014   -9249.1601    15.395602    13.332916    27.403918    5625.1546 
  980000      979.987       579.91    23.837042   -436.65878   -412.82174   -2530.3625    1993.0085    2296.1839    -11880.28    15.395604    13.332918      27.4039    5625.1527 
  980500      980.487    588.65629    24.196556   -437.01125   -412.81469   -357.38998    2120.2238    2724.8544   -5917.2482    15.395606     13.33292    27.403883    5625.1509 
  981000      980.987    570.28994    23.441612    -436.2497   -412.80809   -1014.1097   -1433.1122    5550.2003   -7159.4172    15.395609    13.332922    27.403865     5625.149 
  981500      981.487    604.32543    24.840631   -437.64127   -412.80064    -1331.104    3451.9554    4616.9131   -12062.181    15.395611    13.332924    27.403848    5625.1472 
  982000      981.987    606.69443    24.938008   -437.73185   -412.79384   -1267.5144   -3111.8816    6109.8033    -6800.465    15.395614    13.332926     27.40383    5625.1453 
  982500      982.487    564.75423    23.214068   -435.99878   -412.78471   -3175.2617   -575.77562    2583.1253   -11533.135    15.395616    13.332928    27.403813    5625.1435 
  983000      982.987    585.02497    24.047291   -436.82597   -412.77868   -1111.7636      2509.39    5520.6364   -11365.317    15.395618     13.33293    27.403795    5625.1416 
  983500      983.487    573.80852    23.586242   -436.35725   -412.77101   -1274.7519     2211.128    2626.0983    -8661.482    15.395621    13.332932    27.403778    5625.1398 
  984000      983.987    583.96427    24.003692   -436.76603   -412.76234   -172.68895    2610.3594    2213.0913   -5341.5175    15.395623    13.332934     27.40376    5625.1379 
  984500      984.487    574.01408    23.594691   -436.34841   -412.75372   -907.27398    4924.9668    3381.6499   -11028.439    15.395626    13.332936    27.403743    5625.1361 
  985000      984.987    596.35835    24.513147   -437.25983   -412.74668   -730.21799     519.6893    6533.5387    -9243.882    15.395628    13.332938    27.403725    5625.1342 
  985500      985.487     579.1813    23.807089   -436.54221   -412.73512   -2566.3323    1319.7128    1011.3704    -10030.08     15.39563     13.33294    27.403708    5625.1324 
  986000      985.987    587.32043    24.141645   -436.86939   -412.72775    -2838.226    3331.7823    2735.1957   -14581.656    15.395633    13.332943     27.40369    5625.1305 
  986500      986.487    577.07569    23.720538   -436.43911   -412.71857   -983.06043    484.80989    5580.3125   -9014.3037    15.395635    13.332945    27.403673    5625.1287 
  987000      986.987    595.48317    24.477172   -437.18862   -412.71145   -1805.2447    141.10048    5024.2265   -10581.061    15.395638    13.332947    27.403655    5625.1268 
  987500      987.487    556.49158    22.874434   -435.57758   -412.70315   -1372.1529   -2292.7579    5453.9921   -7277.6928     15.39564    13.332949    27.403638     5625.125 
  988000      987.987    558.17078    22.943457   -435.63801   -412.69455    638.17953    5867.6498     7243.631   -11196.742    15.395642    13.332951     27.40362    5625.1231 
  988500      988.487    540.48826    22.216622   -434.90225   -412.68563    -1034.528   -3741.4713    3878.2952    -3240.408    15.395645    13.332953    27.403603    5625.1213 
  989000      988.987    566.61306    23.290475   -435.96793   -412.67746   -952.62081    3053.1343    1130.1929   -7041.1896    15.395647    13.332955    27.403585    5625.1194 
  989500      989.487    599.07668    24.624883   -437.29448    -412.6696   -3294.7938   -376.53138    5050.8771   -14558.727     15.39565    13.332957    27.403568    5625.1176 
  990000      989.987    575.97715    23.675383   -436.33696   -412.66158   -946.43003    3551.7093   -84.812533   -6306.1869    15.395652    13.332959     27.40355    5625.1157 
  990500      990.487    582.98543    23.963456   -436.61509   -412.65164   -2595.6289   -2330.3973     3993.672   -9450.1613    15.395654    13.332961    27.403533    5625.1139 
  991000      990.987    575.55204    23.657909   -436.30053   -412.64262   -2072.0191   -1584.3541    2900.9603   -7532.6635    15.395657    13.332963    27.403515     5625.112 
  991500      991.487    565.63613    23.250318   -435.88299   -412.63267   -2799.8337    147.28867    157.11895   -8703.9088    15.395659    13.332965    27.403498    5625.1102 
  992000      991.987    571.89639    23.507645   -436.13281   -412.62517   -1850.0253    2221.8915    5692.7924    -13464.76    15.395662    13.332967     27.40348    5625.1083 
  992500      992.487    578.03157    23.759829   -436.37722   -412.61739    126.72719    3465.7653    6511.7495   -9597.3332    15.395664    13.332969    27.403463    5625.1065 
  993000      992.987    558.48791    22.956492   -435.56381   -412.60732   -1625.6689    1540.6593    4598.0454   -11015.711    15.395666    13.332971    27.403445    5625.1046 
  993500      993.487    563.59145    23.166272   -435.76515   -412.59888   -2661.2135   -3020.5102    2047.7795   -7010.9099    15.395669    13.332973    27.403428    5625.1028 
  994000      993.987    580.51225    23.861797   -436.45061   -412.58881   -1741.9334   -1165.0546    4088.4288   -8149.1745    15.395671    13.332975     27.40341    5625.1009 
  994500      994.487    572.99851    23.552947   -436.13035    -412.5774   -1108.2102    2134.8297     1520.262   -6979.7224    15.395674    13.332977    27.403393    5625.0991 
  995000      994.987    567.93011    23.344612    -435.9131   -412.56848   -1832.4222    1704.9817    4904.2463   -12106.495    15.395676    13.332979    27.403375    5625.0972 
  995500      995.487    560.42773    23.036229   -435.59504   -412.55881   -348.00639    2128.3575    3899.7575   -7072.1342    15.395678    13.332981    27.403358    5625.0954 
  996000      995.987    544.90072    22.397995   -434.94732   -412.54933   -1069.7317     1527.322    2358.1652   -7094.6823    15.395681    13.332984     27.40334    5625.0935 
  996500      996.487    555.00904    22.813494   -435.35307   -412.53957    317.82666    3162.0191    3833.0608   -6041.5999    15.395683    13.332986    27.403323    5625.0917 
  997000      996.987    590.85724    24.287025   -436.81831   -412.53129    -3600.251   -3722.7118    4106.6857   -11184.727    15.395686    13.332988    27.403305    5625.0898 
  997500      997.487    585.18605    24.053912   -436.57667   -412.52275   -1171.3647    2353.5307    6086.1929   -11953.818    15.395688     13.33299    27.403288     5625.088 
  998000      997.987    592.96124    24.373509   -436.88641    -412.5129   -733.13864    2372.5935    5703.1891   -10275.198     15.39569    13.332992     27.40327    5625.0861 
  998500      998.487    579.87536    23.835618   -436.34021   -412.50459   -1273.2692    2205.6932    3848.2304   -9873.7312    15.395693    13.332994    27.403253    5625.0843 
  999000      998.987     602.8251    24.778961   -437.27518   -412.49622   -714.13236   -559.26911    6738.3384   -8321.4664    15.395695    13.332996    27.403235    5625.0824 
  999500      999.487    577.60978    23.742492   -436.22733   -412.48483    -1886.424    1391.8838    3988.1711   -11039.327    15.395698    13.332998    27.403218    5625.0806 
 1000000      999.987    585.14679    24.052298   -436.52777   -412.47547   -1215.7383   -840.70347    5825.3216    -8631.833      15.3957       13.333      27.4032    5625.0787 
 1000013         1000    599.80221    24.654706   -437.13074   -412.47604   -1859.6106   -1736.8993    4213.3445   -8055.2769      15.3957       13.333      27.4032    5625.0787 
Loop time of 916.06 on 28 procs for 1000000 steps with 319 atoms

Performance: 94.317 ns/day, 0.254 hours/ns, 1091.631 timesteps/s
87.5% CPU use with 28 MPI tasks x no OpenMP threads

MPI task timing breakdown:
Section |  min time  |  avg time  |  max time  |%varavg| %total
---------------------------------------------------------------
Pair    | 751.01     | 789.36     | 833.58     |  70.8 | 86.17
Neigh   | 0.020138   | 0.031635   | 0.04105    |   3.1 |  0.00
Comm    | 72.217     | 114.19     | 151.68     | 179.3 | 12.47
Output  | 0.099798   | 0.10208    | 0.12093    |   1.2 |  0.01
Modify  | 4.5674     | 7.2754     | 10.1       |  58.9 |  0.79
Other   |            | 5.102      |            |       |  0.56

Nlocal:    11.3929 ave 17 max 6 min
Histogram: 2 5 0 1 6 5 2 4 1 2
Nghost:    640.786 ave 685 max 580 min
Histogram: 2 4 1 1 1 4 1 4 7 3
Neighs:    707.143 ave 1104 max 392 min
Histogram: 2 5 1 3 7 1 6 1 0 2
FullNghs:  1414.29 ave 2106 max 761 min
Histogram: 2 5 0 1 6 5 2 4 1 2

Total # of neighbors = 39600
Ave neighs/atom = 124.138
Neighbor list builds = 470
Dangerous builds = 0

write_restart   POSCAR_1x1x1.rest

#unfix    1
#undump   1
Total wall time: 0:15:16
