LAMMPS (7 Dec 2015)
#----------- Initialize Simulation ------------ restart01
#processors	2 2 2
units		metal
boundary	p p p     ## periodic boundary condition  on x y z axis ##
atom_style atomic
#atom_modify map array sort 0 0.0

read_data	POSCAR_1x1x1.lammps
  triclinic box = (0 0 0) to (15.6097 13.5184 25.8287) with tilt (-7.80475 0 0)
  2 by 2 by 7 MPI processor grid
  reading atoms ...
  319 atoms

#----------- Define Potential -----------------
pair_style meam
pair_coeff * * MgAlZn.library.meam Mg Al Zn MgAlZn.parameter.meam Mg Al Zn 	#1=Mg 2=Al 3=Zn	#atoms/mass

#----------- Neighbor List --------------------
neighbor 2.0 bin
neigh_modify delay 10 check yes

#--------------  Run a simulation (minimization) ---------------------------------------
minimize       1.0e-4   1.0e-6   100   1000          #結構優化的條件
WARNING: Resetting reneighboring criteria during minimization (../min.cpp:168)
Neighbor list info ...
  2 neighbor list requests
  update every 1 steps, delay 0 steps, check yes
  max neighbors/atom: 2000, page size: 100000
  master list distance cutoff = 8
  ghost atom cutoff = 8
  binsize = 4 -> bins = 6 4 7
Memory usage per processor = 8.65293 Mbytes
Step Temp E_pair E_mol TotEng Press 
       0            0   -437.64691            0   -437.64691      5376.02 
      12            0   -460.39651            0   -460.39651   -11350.208 
Loop time of 0.0213381 on 28 procs for 12 steps with 319 atoms

84.5% CPU use with 28 MPI tasks x no OpenMP threads

Minimization stats:
  Stopping criterion = energy tolerance
  Energy initial, next-to-last, final = 
        -437.646905555     -460.355485817     -460.396513424
  Force two-norm initial, final = 21.2877 0.615033
  Force max component initial, final = 2.53543 0.14253
  Final line search alpha, max atom move = 0.357516 0.0509569
  Iterations, force evaluations = 12 21

MPI task timing breakdown:
Section |  min time  |  avg time  |  max time  |%varavg| %total
---------------------------------------------------------------
Pair    | 0.016582   | 0.017812   | 0.019282   |   0.4 | 83.48
Neigh   | 0          | 0          | 0          |   0.0 |  0.00
Comm    | 0.0012342  | 0.0026729  | 0.0038612  |   1.1 | 12.53
Output  | 0          | 0          | 0          |   0.0 |  0.00
Modify  | 0          | 0          | 0          |   0.0 |  0.00
Other   |            | 0.0008528  |            |       |  4.00

Nlocal:    11.3929 ave 17 max 7 min
Histogram: 3 2 3 1 4 7 2 2 2 2
Nghost:    673.393 ave 712 max 645 min
Histogram: 2 2 4 8 2 4 3 2 0 1
Neighs:    724.607 ave 1041 max 439 min
Histogram: 3 3 2 1 6 5 2 2 2 2
FullNghs:  1449.21 ave 2181 max 874 min
Histogram: 4 3 1 4 5 3 2 4 0 2

Total # of neighbors = 40578
Ave neighs/atom = 127.204
Neighbor list builds = 0
Dangerous builds = 0
velocity all  create 600.0 4928459 #rot yes dist gaussian

#--------------  Run a simulation (Relaxation)  ----------------------------------------
fix  1  all  nvt   temp  600.0  600.0  100				#damping constant
#fix  2  all  npt   temp  393.0  393.0  50 iso 0.0 0.0 1000.0
fix  2  all deform 1 x final 0 15.6145 y final 0 13.5225 z final 0 25.7937 xy final -7.80715 units lattice
#fix  3  all  npt   temp  393.0  393.0  50 z 0.0 0.0 1000.0

#variable b equal 1
#fix 2 all efield  0.0  0.0  v_b
#compute pot all pe/atom


#----------- Output --------------------------
thermo	 500
timestep  0.001		#1.0 fs
thermo_style	custom step time temp ke pe etotal press pxx pyy pzz lx ly lz vol

dump 1 all custom 10000 dump.eq id type x y z
dump_modify 1 sort  id

run        1000000	#1000 ps
Neighbor list info ...
  2 neighbor list requests
  update every 1 steps, delay 10 steps, check yes
  max neighbors/atom: 2000, page size: 100000
  master list distance cutoff = 8
  ghost atom cutoff = 8
  binsize = 4 -> bins = 6 4 7
Memory usage per processor = 7.56002 Mbytes
Step Time Temp KinEng PotEng TotEng Press Pxx Pyy Pzz Lx Ly Lz Volume 
      12            0          600    24.662836   -460.39651   -435.73368   -6516.9528   -14408.153   -13537.361    8394.6558      15.6097      13.5184      25.8287     5450.325 
     500        0.488    328.30491    13.494883   -449.22423   -435.72934   -205.22479   -12485.403   -8486.8982    20356.627    15.609702    13.518402    25.828683     5450.323 
    1000        0.988    331.15636    13.612092   -449.34148   -435.72939   -43.897305   -9497.7776   -10003.983    19370.068    15.609705    13.518404    25.828665     5450.321 
    1500        1.488     314.7106    12.936093   -448.66454   -435.72845   -380.64421   -6143.5196   -10880.577    15882.164    15.609707    13.518406    25.828648    5450.3189 
    2000        1.988    311.59253    12.807926   -448.53563   -435.72771    234.13455   -8390.4466   -12323.372    21416.222     15.60971    13.518408     25.82863    5450.3169 
    2500        2.488    331.16161    13.612307   -449.33861   -435.72631    365.72872   -7438.2423   -8127.8504    16663.279    15.609712     13.51841    25.828613    5450.3149 
    3000        2.988    308.92227    12.698165   -448.42248   -435.72432    611.48521   -8994.0592   -10272.331    21100.846    15.609714    13.518412    25.828595    5450.3128 
    3500        3.488    304.83596    12.530199   -448.25246   -435.72226    89.096702   -8758.4583   -10670.159    19695.907    15.609717    13.518414    25.828578    5450.3108 
    4000        3.988    312.93041    12.862919   -448.58365   -435.72073    217.26995   -9568.5909   -9450.6879    19671.089    15.609719    13.518416     25.82856    5450.3088 
    4500        4.488     310.6252    12.768164    -448.4856   -435.71743    301.62189   -10587.926   -9904.3991    21397.191    15.609722    13.518418    25.828543    5450.3068 
    5000        4.988    296.05563    12.169286   -447.88372   -435.71444   -279.83262   -10523.727    -7987.998    17672.227    15.609724     13.51842    25.828525    5450.3047 
    5500        5.488     310.8146    12.775949   -448.48768   -435.71174    1082.2942   -8917.7451    -9560.515    21725.143    15.609726    13.518423    25.828508    5450.3027 
    6000        5.988    308.07333     12.66327    -448.3715   -435.70823    810.19013   -7988.6433   -10838.249    21257.462    15.609729    13.518425     25.82849    5450.3007 
    6500        6.488    310.97359    12.782484   -448.48683   -435.70435    598.35383   -8070.3005    -12387.81    22253.172    15.609731    13.518427    25.828473    5450.2986 
    7000        6.988    310.42408    12.759897   -448.46001   -435.70011    1186.0623   -8930.3407   -9243.3123     21731.84    15.609734    13.518429    25.828455    5450.2966 
    7500        7.488    328.49982    13.502895   -449.19884   -435.69594    952.43107   -7609.5893     -10167.9    20634.782    15.609736    13.518431    25.828438    5450.2946 
    8000        7.988    305.96923    12.576781   -448.26745   -435.69066    86.484473   -11014.523   -9147.3497    20421.327    15.609738    13.518433     25.82842    5450.2926 
    8500        8.488    312.56439    12.847874    -448.5336   -435.68573    544.56537   -8788.3149   -9284.2745    19706.285    15.609741    13.518435    25.828403    5450.2905 
    9000        8.988    313.05802    12.868164     -448.548   -435.67984    96.657625    -8193.666   -10378.587    18862.226    15.609743    13.518437    25.828385    5450.2885 
    9500        9.488    302.18775    12.421345   -448.09536   -435.67401    808.02508   -8375.8984    -9323.968    20123.942    15.609746    13.518439    25.828368    5450.2865 
   10000        9.988    323.59281    13.301194   -448.96976   -435.66857   -344.09877   -8440.1361   -9739.3803     17147.22    15.609748    13.518441     25.82835    5450.2845 
   10500       10.488    324.45446    13.336612   -448.99853   -435.66192   -150.04675   -8938.4389   -9707.1794    18195.478     15.60975    13.518443    25.828333    5450.2824 
   11000       10.988    314.43256    12.924664   -448.57954   -435.65488    182.89622     -8089.86   -10115.818    18754.367    15.609753    13.518445    25.828315    5450.2804 
   11500       11.488    318.52521    13.092892   -448.74105   -435.64816   -378.43867   -11503.394   -10963.578    21331.657    15.609755    13.518447    25.828298    5450.2784 
   12000       11.988    319.72292    13.142123   -448.78253    -435.6404    855.37845   -10435.229   -8007.6651     21009.03    15.609758    13.518449     25.82828    5450.2763 
   12500       12.488    319.26144    13.123154    -448.7557   -435.63255    726.24111   -9121.2011   -10579.556    21879.481     15.60976    13.518451    25.828263    5450.2743 
   13000       12.988    312.74116     12.85514   -448.47974    -435.6246    75.641056   -8401.6603   -9692.2753    18320.859    15.609762    13.518453    25.828245    5450.2723 
   13500       13.488     329.9972    13.564445   -449.18158   -435.61713   -1241.8754   -9072.9211   -10535.696    15882.991    15.609765    13.518455    25.828228    5450.2703 
   14000       13.988    301.70866    12.401652    -448.0097   -435.60805    992.91376   -8241.5615   -10307.878     21528.18    15.609767    13.518457     25.82821    5450.2682 
   14500       14.488    306.88421    12.614391   -448.21344   -435.59905    1299.6852   -10477.329   -9160.2076    23536.593     15.60977    13.518459    25.828193    5450.2662 
   15000       14.988    304.05816    12.498227   -448.08876   -435.59053    1670.0639   -5618.3726   -10220.557    20849.121    15.609772    13.518461    25.828175    5450.2642 
   15500       15.488    321.91769    13.232339   -448.81343   -435.58109    431.03184   -7415.3841   -10821.429    19529.908    15.609774    13.518464    25.828158    5450.2621 
   16000       15.988    331.58873    13.629864    -449.2008   -435.57094    380.81995    -5503.501   -9382.7363    16028.697    15.609777    13.518466     25.82814    5450.2601 
   16500       16.488    300.12452    12.336536   -447.89735   -435.56081    473.01257   -10647.093   -8630.9922    20697.123    15.609779    13.518468    25.828123    5450.2581 
   17000       16.988    333.56037    13.710908    -449.2616   -435.55069   -674.57309   -11005.055   -11209.239    20190.575    15.609782     13.51847    25.828105    5450.2561 
   17500       17.488    324.51362    13.339043   -448.87821   -435.53916   -649.30714   -6627.2161   -12172.351    16851.645    15.609784    13.518472    25.828088     5450.254 
   18000       17.988    326.48219    13.419961   -448.94968   -435.52972    111.97251   -8291.6426   -8234.6134    16862.174    15.609786    13.518474     25.82807     5450.252 
   18500       18.488    320.78009    13.185578    -448.7031   -435.51752    754.60944   -7361.0485   -9854.8686    19479.745    15.609789    13.518476    25.828053      5450.25 
   19000       18.988    319.98269    13.152801   -448.65843   -435.50563    465.73962   -9810.6438   -8882.9608    20090.823    15.609791    13.518478    25.828035    5450.2479 
   19500       19.488    326.23657    13.409865   -448.90431   -435.49445   -470.96875   -11358.398   -10333.767    20279.259    15.609794     13.51848    25.828018    5450.2459 
   20000       19.988    337.85681    13.887512   -449.36932   -435.48181    1047.7677   -8629.4022   -7903.3256    19676.031    15.609796    13.518482       25.828    5450.2439 
   20500       20.488    347.98936    14.304007   -449.77331    -435.4693   -390.80207   -9452.2566   -10430.625    18710.475    15.609798    13.518484    25.827983    5450.2419 
   21000       20.988    321.27655    13.205985   -448.66239   -435.45641   -252.65395   -10833.839   -11682.395    21758.272    15.609801    13.518486    25.827965    5450.2398 
   21500       21.488     313.3295    12.879323    -448.3223   -435.44298    752.94386   -8044.4043   -9299.3827    19602.619    15.609803    13.518488    25.827948    5450.2378 
   22000       21.988    297.59991    12.232763   -447.66222   -435.42946    1251.5099   -9190.8706   -9504.2335    22449.634    15.609806     13.51849     25.82793    5450.2358 
   22500       22.488    318.95644    13.110617   -448.52649   -435.41587     1014.314    -9376.304   -5772.1802    18191.426    15.609808    13.518492    25.827913    5450.2337 
   23000       22.988    328.15482    13.488714   -448.89118   -435.40247   -522.31842   -10031.797   -11323.696    19788.537     15.60981    13.518494    25.827895    5450.2317 
   23500       23.488    320.11692    13.158318   -448.54661    -435.3883    1400.9273   -10448.374   -9760.2803    24411.436    15.609813    13.518496    25.827878    5450.2297 
   24000       23.988    319.80228    13.145385   -448.51924   -435.37386    967.80188   -8231.1564   -9942.5602    21077.122    15.609815    13.518498     25.82786    5450.2277 
   24500       24.488    333.37637    13.703344   -449.06321   -435.35986    314.05899    -8518.263   -12018.606    21479.046    15.609818      13.5185    25.827843    5450.2256 
   25000       24.988    312.15923     12.83122   -448.17499   -435.34377    856.27507   -10207.433   -9302.7532    22079.011     15.60982    13.518502    25.827825    5450.2236 
   25500       25.488    323.44704    13.295202   -448.62417   -435.32897    200.41896   -9459.8662   -7492.6167     17553.74    15.609822    13.518505    25.827808    5450.2216 
   26000       25.988    301.11529    12.377262    -447.6911   -435.31383    634.01349   -8300.0963   -10321.204    20523.341    15.609825    13.518507     25.82779    5450.2195 
   26500       26.488    313.50914    12.886708   -448.18434   -435.29763   -431.81337   -8448.7263   -9807.0777    16960.364    15.609827    13.518509    25.827773    5450.2175 
   27000       26.988    327.47743     13.46087   -448.74284   -435.28197    51.093114   -7045.2756   -12110.283    19308.838     15.60983    13.518511    25.827755    5450.2155 
   27500       27.488      315.367    12.963074   -448.22919   -435.26612    4.6341167    -7899.718   -12111.253    20024.873    15.609832    13.518513    25.827738    5450.2135 
   28000       27.988    329.34341    13.537571   -448.78765   -435.25008     73.18526   -8977.7626   -9946.7426    19144.061    15.609834    13.518515     25.82772    5450.2114 
   28500       28.488    322.53672    13.257783   -448.49089   -435.23311    1113.2718   -8373.0723   -7990.4102    19703.298    15.609837    13.518517    25.827703    5450.2094 
   29000       28.988    334.66349    13.756251   -448.97268   -435.21643    888.60437   -9905.5927    -7413.243    19984.649    15.609839    13.518519    25.827685    5450.2074 
   29500       29.488    334.58974     13.75322   -448.95214   -435.19892   -144.98142   -7375.6962   -8794.3013    15735.053    15.609842    13.518521    25.827668    5450.2053 
   30000       29.988    312.58583    12.848755   -448.03013   -435.18138    1445.5822   -5367.7157    -9363.237    19067.699    15.609844    13.518523     25.82765    5450.2033 
   30500       30.488    320.08115    13.156848   -448.32171   -435.16486    1661.4848    -8025.571   -8081.6247     21091.65    15.609846    13.518525    25.827633    5450.2013 
   31000       30.988    342.06898    14.060652    -449.2079   -435.14725    183.66647   -8357.4389   -12323.859    21232.298    15.609849    13.518527    25.827615    5450.1993 
   31500       31.488    299.99126    12.331059      -447.46   -435.12895    1220.5673   -7718.9806   -9151.6304    20532.313    15.609851    13.518529    25.827598    5450.1972 
   32000       31.988     300.4733    12.350873   -447.46209   -435.11122    936.89236   -8568.3759   -5278.1319    16657.185    15.609854    13.518531     25.82758    5450.1952 
   32500       32.488    323.71628    13.306269   -448.39995   -435.09368    51.718927   -9033.3785   -8985.3208    18173.856    15.609856    13.518533    25.827563    5450.1932 
   33000       32.988    318.55498    13.094115   -448.16928   -435.07517   -535.20026   -10084.042   -6873.7718    15352.213    15.609858    13.518535    25.827545    5450.1911 
   33500       33.488    333.48885    13.707968   -448.76508   -435.05711    1583.4109   -7476.4539   -8518.7024    20745.389    15.609861    13.518537    25.827528    5450.1891 
   34000       33.988    313.26685    12.876748   -447.91525    -435.0385    318.95535   -7212.0174   -12242.871    20411.754    15.609863    13.518539     25.82751    5450.1871 
   34500       34.488    323.36042    13.291641   -448.31167   -435.02003   -534.72705   -6073.8363   -11738.875     16208.53    15.609866    13.518541    25.827493    5450.1851 
   35000       34.988     321.0981     13.19865   -448.19988   -435.00123    922.69207     -8370.53   -8924.3199    20062.926    15.609868    13.518543    25.827475     5450.183 
   35500       35.488    310.73397    12.772635   -447.75517   -434.98254    695.86853   -9321.5203   -9649.5193    21058.645     15.60987    13.518546    25.827458     5450.181 
   36000       35.988    291.99868    12.002526   -446.96646   -434.96393    860.83492   -9595.5489   -7437.3944    19615.448    15.609873    13.518548     25.82744     5450.179 
   36500       36.488    311.45606    12.802316   -447.74714   -434.94483    645.12477   -5639.1942   -10142.948    17717.516    15.609875     13.51855    25.827423    5450.1769 
   37000       36.988    332.81171    13.680134   -448.60661   -434.92648   -534.92069   -11784.372   -9749.4823    19929.093    15.609878    13.518552    25.827405    5450.1749 
   37500       37.488    327.60706    13.466198   -448.37322   -434.90702    280.15061    -11129.21   -9337.8888     21307.55     15.60988    13.518554    25.827388    5450.1729 
   38000       37.988    304.50566    12.516622   -447.40382    -434.8872    187.44019   -10867.861   -10330.173    21760.355    15.609882    13.518556     25.82737    5450.1709 
   38500       38.488    317.45114    13.048742   -447.91696   -434.86821    352.35174   -4990.3624   -11361.068    17408.485    15.609885    13.518558    25.827353    5450.1688 
   39000       38.988    318.51654    13.092535   -447.94109   -434.84856   -496.28711   -9721.3806     -10355.6    18588.119    15.609887     13.51856    25.827335    5450.1668 
   39500       39.488    324.59406     13.34235   -448.17179   -434.82944    2266.9641   -7222.8843   -9222.0832     23245.86     15.60989    13.518562    25.827318    5450.1648 
   40000       39.988    315.00099     12.94803   -447.75829   -434.81026    1247.6677   -7772.8451    -9250.682     20766.53    15.609892    13.518564      25.8273    5450.1627 
   40500       40.488    334.12516    13.734123   -448.52586   -434.79174    919.83155   -6886.1574   -9824.0345    19469.687    15.609894    13.518566    25.827283    5450.1607 
   41000       40.988    333.38382    13.703651   -448.47633   -434.77268    1017.9086   -7665.8726   -10097.688    20817.287    15.609897    13.518568    25.827265    5450.1587 
   41500       41.488    314.04093    12.908566   -447.66083   -434.75226    2134.4262   -5988.1305    -9533.981     21925.39    15.609899     13.51857    25.827248    5450.1567 
   42000       41.988    346.09413    14.226104   -448.95996   -434.73386     1289.839   -8398.2206   -7432.6256    19700.363    15.609902    13.518572     25.82723    5450.1546 
   42500       42.488    330.23557    13.574243   -448.28951   -434.71526    743.86504    -6075.583   -13005.704    21312.882    15.609904    13.518574    25.827213    5450.1526 
   43000       42.988    318.37696    13.086798   -447.78311   -434.69631    927.45902   -10274.861   -10049.674    23106.913    15.609906    13.518576    25.827195    5450.1506 
   43500       43.488    321.17238    13.201703   -447.87895   -434.67724    896.99339   -10695.708   -9201.2904    22587.978    15.609909    13.518578    25.827178    5450.1485 
   44000       43.988    335.87614    13.806097    -448.4646    -434.6585    922.37795   -8939.3459   -8874.4387    20580.919    15.609911     13.51858     25.82716    5450.1465 
   44500       44.488    315.57805    12.971749   -447.61148   -434.63973    299.24394   -8697.6664   -9834.2049    19429.603    15.609914    13.518582    25.827143    5450.1445 
   45000       44.988    322.98035    13.276019   -447.89781   -434.62179   -350.96086   -7740.9737   -10119.179     16807.27    15.609916    13.518584    25.827125    5450.1425 
   45500       45.488    336.30378    13.823675   -448.42617    -434.6025    825.06667   -6481.1166   -10056.269    19012.586    15.609918    13.518587    25.827108    5450.1404 
   46000       45.988    316.48424    13.008998   -447.59203   -434.58303     1542.043   -7604.2817   -10183.129     22413.54    15.609921    13.518589     25.82709    5450.1384 
   46500       46.488    317.86116    13.065596   -447.63008   -434.56448   -202.47747   -11931.913   -8939.8762    20264.356    15.609923    13.518591    25.827073    5450.1364 
   47000       46.988    315.76869    12.979585   -447.52489    -434.5453    76.174812   -8464.4498    -11192.21    19885.184    15.609926    13.518593    25.827055    5450.1343 
   47500       47.488     325.9725     13.39901   -447.92649   -434.52748    1109.5915   -7853.4693   -8770.3529    19952.597    15.609928    13.518595    25.827038    5450.1323 
   48000       47.988    322.22565    13.244997   -447.75339   -434.50839    1546.5131   -7191.1689   -9099.7705    20930.479     15.60993    13.518597     25.82702    5450.1303 
   48500       48.488    320.22476    13.162751   -447.65306   -434.49031    1294.7305   -8177.8359   -8144.6214    20206.649    15.609933    13.518599    25.827003    5450.1283 
   49000       48.988    313.14014     12.87154   -447.34326   -434.47172    411.67576   -7759.2399   -9253.4225     18247.69    15.609935    13.518601    25.826985    5450.1262 
   49500       49.488    351.46157    14.446732   -448.90109   -434.45436    734.69042   -9438.5297   -7444.7039    19087.305    15.609938    13.518603    25.826968    5450.1242 
   50000       49.988    336.70524    13.840177   -448.27609   -434.43592     1184.718    -11595.11   -7396.2498    22545.514     15.60994    13.518605     25.82695    5450.1222 
   50500       50.488    328.51239    13.503412    -447.9209   -434.41749    1215.9919   -6460.1562   -8482.0496    18590.182    15.609942    13.518607    25.826933    5450.1201 
   51000       50.988    351.19035    14.435583   -448.83601   -434.40042    299.05023   -8558.4244   -8483.4657    17939.041    15.609945    13.518609    25.826915    5450.1181 
   51500       51.488    347.05388    14.265555   -448.64819   -434.38264    508.68223   -10460.353   -9534.8257    21521.225    15.609947    13.518611    25.826898    5450.1161 
   52000       51.988    321.88722    13.231086   -447.59591   -434.36482    766.50182   -10320.813    -9537.314    22157.633     15.60995    13.518613     25.82688    5450.1141 
   52500       52.488    332.65476    13.673683   -448.02133   -434.34765    -434.9794   -11449.372   -9152.2364     19296.67    15.609952    13.518615    25.826863     5450.112 
   53000       52.988    336.12847    13.816469   -448.14658   -434.33011    1815.8791   -8070.8329   -11366.354    24884.824    15.609954    13.518617    25.826845      5450.11 
   53500       53.488    331.76969    13.637302   -447.94995   -434.31265     755.9047   -6534.5352   -7374.9637    16177.213    15.609957    13.518619    25.826828     5450.108 
   54000       53.988     327.0052    13.441459    -447.7365   -434.29504    1152.4925   -8127.2026   -8705.2252    20289.905    15.609959    13.518621     25.82681    5450.1059 
   54500       54.488    336.23193    13.820721   -448.09849   -434.27777     960.7856   -9027.7673   -7881.5861     19791.71    15.609962    13.518623    25.826793    5450.1039 
   55000       54.988    343.22322    14.108096   -448.36985   -434.26176    941.24697   -8038.4941   -9755.0234    20617.258    15.609964    13.518625    25.826775    5450.1019 
   55500       55.488    338.85519     13.92855   -448.17321   -434.24466    1515.2785   -5817.3627   -9268.8487    19632.047    15.609966    13.518628    25.826758    5450.0999 
   56000       55.988    318.45278    13.089914   -447.31833   -434.22842    1211.6687   -8068.1232   -10220.915    21924.045    15.609969     13.51863     25.82674    5450.0978 
   56500       56.488    342.38734    14.073738   -448.28513    -434.2114   -52.678587   -9236.7077   -9634.4331    18713.105    15.609971    13.518632    25.826723    5450.0958 
   57000       56.988    350.10175    14.390836   -448.58607   -434.19523   -18.749115   -8948.0085   -8774.5805    17666.342    15.609974    13.518634    25.826705    5450.0938 
   57500       57.488    326.16427    13.406893   -447.58386   -434.17696     692.4456   -9436.0748   -8879.2077    20392.619    15.609976    13.518636    25.826688    5450.0917 
   58000       57.988    341.11662    14.021505   -448.18242   -434.16092    1858.4724   -7486.1965   -8722.2329    21783.847    15.609978    13.518638     25.82667    5450.0897 
   58500       58.488    327.42534    13.458729   -447.60242   -434.14369    79.169664   -12020.145   -8951.1491    21208.803    15.609981     13.51864    25.826653    5450.0877 
   59000       58.988    334.82867    13.763041   -447.89145   -434.12841    -93.81579   -10121.127   -9887.0728    19726.753    15.609983    13.518642    25.826635    5450.0857 
   59500       59.488    319.55123    13.135066   -447.24624   -434.11117    2283.7111   -7153.4906   -10562.469    24567.093    15.609986    13.518644    25.826618    5450.0836 
   60000       59.988    355.63496    14.618278   -448.71375   -434.09547    1308.2256   -7625.1041   -10372.875    21922.656    15.609988    13.518646      25.8266    5450.0816 
   60500       60.488    331.53608      13.6277   -447.70697   -434.07927    449.84083   -8871.1754   -8342.7498    18563.448     15.60999    13.518648    25.826583    5450.0796 
   61000       60.988    331.86439    13.641195   -447.70375   -434.06256    1398.3084   -8989.7618   -8146.2193    21330.906    15.609993     13.51865    25.826565    5450.0775 
   61500       61.488    337.82825    13.886338   -447.93286   -434.04653    179.02416   -7188.0597   -11266.946    18992.078    15.609995    13.518652    25.826548    5450.0755 
   62000       61.988    329.14435    13.529388   -447.55959    -434.0302    1476.7218   -6873.6494   -9643.1795    20946.994    15.609998    13.518654     25.82653    5450.0735 
   62500       62.488     326.2117    13.408843   -447.42303   -434.01419    2050.4943   -8559.6399   -6943.6186    21654.742        15.61    13.518656    25.826513    5450.0715 
   63000       62.988    342.62835    14.083644   -448.08225    -433.9986     1693.407   -9991.9443   -8848.9774    23921.143    15.610002    13.518658    25.826495    5450.0694 
   63500       63.488    332.29327    13.658824   -447.64102    -433.9822    974.61227   -10093.839   -7532.1802    20549.857    15.610005     13.51866    25.826478    5450.0674 
   64000       63.988    334.01015    13.729396   -447.69571   -433.96632    810.14959   -11901.125   -7101.6311    21433.205    15.610007    13.518662     25.82646    5450.0654 
   64500       64.488    335.77673    13.802011   -447.75245   -433.95044    367.06261    -8863.142   -10178.121    20142.451     15.61001    13.518664    25.826443    5450.0633 
   65000       64.988    337.67613    13.880085   -447.81374   -433.93366    1160.7028   -12106.939   -8002.0484    23591.096    15.610012    13.518666    25.826425    5450.0613 
   65500       65.488    317.12593    13.035375   -446.95354   -433.91817     577.0505   -9974.4034   -9565.4691    21271.024    15.610014    13.518669    25.826408    5450.0593 
   66000       65.988    343.10023    14.103041    -448.0059   -433.90285    1078.5705   -8163.7923   -7744.5574    19144.061    15.610017    13.518671     25.82639    5450.0573 
   66500       66.488    324.98569    13.358448   -447.24409   -433.88565    1549.7302   -8051.2915    -6701.226    19401.708    15.610019    13.518673    25.826373    5450.0552 
   67000       66.988    335.04306    13.771853   -447.64162   -433.86977    2218.7547   -7107.2215   -6656.1809    20419.667    15.610022    13.518675    25.826355    5450.0532 
   67500       67.488    335.47845     13.78975   -447.64354   -433.85379    1033.6991   -9191.2356   -9617.0214    21909.354    15.610024    13.518677    25.826338    5450.0512 
   68000       67.988    347.68331    14.291427   -448.12992   -433.83849    1417.8096   -6187.1818   -9988.1717    20428.782    15.610026    13.518679     25.82632    5450.0491 
   68500       68.488    325.89837    13.395963   -447.21889   -433.82293    1579.2297   -8938.2005   -8738.6988    22414.588    15.610029    13.518681    25.826303    5450.0471 
   69000       68.988    321.34451    13.208778   -447.01616   -433.80738    1405.7939   -7747.4264   -9884.3588    21849.167    15.610031    13.518683    25.826285    5450.0451 
   69500       69.488    352.90078     14.50589   -448.29784   -433.79195    1161.2957     -5367.59   -9627.7283    18479.205    15.610034    13.518685    25.826268    5450.0431 
   70000       69.988    317.29561    13.042349   -446.81754   -433.77519    1832.7306   -9587.7043   -10189.593    25275.489    15.610036    13.518687     25.82625     5450.041 
   70500       70.488    337.76764    13.883846   -447.64292   -433.75907    1583.3257   -5118.2445   -11410.633    21278.854    15.610038    13.518689    25.826233     5450.039 
   71000       70.988    326.10165    13.404319   -447.14793   -433.74361    2065.5041   -8359.5446    -9053.209    23609.266    15.610041    13.518691    25.826215     5450.037 
   71500       71.488    336.49555    13.831558   -447.55906    -433.7275    2240.2115   -10739.017   -7096.9575    24556.609    15.610043    13.518693    25.826198    5450.0349 
   72000       71.988    335.25173     13.78043   -447.49212   -433.71169    1195.4409   -6705.7603   -9310.5399    19602.623    15.610046    13.518695     25.82618    5450.0329 
   72500       72.488    336.04694    13.813117   -447.50886   -433.69574    2576.7804   -8021.7756   -7146.9378    22899.054    15.610048    13.518697    25.826163    5450.0309 
   73000       72.988    336.46451    13.830282   -447.51016   -433.67987    2391.1298   -5378.5365   -9657.4869    22209.413     15.61005    13.518699    25.826145    5450.0289 
   73500       73.488    333.51928    13.709219   -447.37303   -433.66381    1218.2766    -6833.983    -10770.64    21259.452    15.610053    13.518701    25.826128    5450.0268 
   74000       73.988    350.38908    14.402647   -448.05008   -433.64743    241.14663   -9128.6874   -9933.6165    19785.744    15.610055    13.518703     25.82611    5450.0248 
   74500       74.488    347.35053    14.277749   -447.90928   -433.63153    1659.3668   -6492.7608   -11695.104    23165.965    15.610058    13.518705    25.826093    5450.0228 
   75000       74.988    339.04029    13.936158   -447.55178   -433.61562    1536.8622   -11005.171   -8481.6299    24097.387     15.61006    13.518707    25.826075    5450.0207 
   75500       75.488    317.13941    13.035929   -446.63435   -433.59842    1651.0618   -8310.0466   -10364.365    23627.597    15.610062     13.51871    25.826058    5450.0187 
   76000       75.988    337.06974    13.855159   -447.43746    -433.5823    2017.6408    -7704.845   -6772.4286    20530.196    15.610065    13.518712     25.82604    5450.0167 
   76500       76.488    322.43925    13.253777   -446.81885   -433.56507    2308.8631   -7181.7987   -10484.095    24592.483    15.610067    13.518714    25.826023    5450.0147 
   77000       76.988    326.99706    13.441124    -446.9909   -433.54978    2200.9613   -7013.6323   -8059.8686    21676.385     15.61007    13.518716    25.826005    5450.0126 
   77500       77.488     332.8966    13.683624   -447.21709   -433.53347    1982.8645    -6350.989   -7196.2719    19495.854    15.610072    13.518718    25.825988    5450.0106 
   78000       77.988    334.48496    13.748913   -447.26561    -433.5167     1845.238   -7525.3079   -9858.6712    22919.693    15.610074     13.51872     25.82597    5450.0086 
   78500       78.488     349.8692    14.381277   -447.88191   -433.50063     2113.165   -5518.2834   -9522.7828    21380.561    15.610077    13.518722    25.825953    5450.0065 
   79000       78.988    359.20889    14.765183   -448.24882   -433.48364    175.26026   -9986.3768   -10258.494    20770.651    15.610079    13.518724    25.825935    5450.0045 
   79500       79.488    355.79259    14.624757   -448.09231   -433.46755    1845.0856    -5686.425   -7734.5766    18956.258    15.610082    13.518726    25.825918    5450.0025 
   80000       79.988    344.21904    14.149029   -447.59908   -433.45005    1745.5371    -6784.444   -9911.7229    21932.778    15.610084    13.518728      25.8259    5450.0005 
   80500       80.488    350.29431    14.398752   -447.83236   -433.43361     145.8341   -8704.1142   -9175.3821    18316.999    15.610086     13.51873    25.825883    5449.9984 
   81000       80.988    335.86681    13.805713   -447.22246   -433.41674    603.37605   -10120.288   -10192.257    22122.673    15.610089    13.518732    25.825865    5449.9964 
   81500       81.488    348.68345    14.332538   -447.73198   -433.39944    740.70311   -9261.5938   -8050.9125    19534.616    15.610091    13.518734    25.825848    5449.9944 
   82000       81.988    353.20748    14.518497   -447.90171   -433.38322    742.48457    -9005.804   -10670.692     21903.95    15.610094    13.518736     25.82583    5449.9923 
   82500       82.488    328.34294    13.496447   -446.86109   -433.36464    2250.6891   -7762.6975    -6100.588    20615.353    15.610096    13.518738    25.825813    5449.9903 
   83000       82.988    352.02915    14.470062   -447.81838   -433.34832    1612.2915   -8620.1592   -6750.8378    20207.872    15.610098     13.51874    25.825795    5449.9883 
   83500       83.488    336.17644    13.818441   -447.14853   -433.33009    1068.0115   -7148.6297   -8058.3183    18410.982    15.610101    13.518742    25.825778    5449.9863 
   84000       83.988     327.2923     13.45326   -446.76596    -433.3127     1926.437   -5901.2787   -9516.5625    21197.152    15.610103    13.518744     25.82576    5449.9842 
   84500       84.488    343.28579    14.110668   -447.40587    -433.2952    25.831131   -8928.6004   -9917.7964     18923.89    15.610106    13.518746    25.825743    5449.9822 
   85000       84.988    336.02089    13.812047   -447.08998   -433.27793    2114.1341   -7466.3204   -8089.7667    21898.489    15.610108    13.518748    25.825725    5449.9802 
   85500       85.488    350.92626    14.424728   -447.68591   -433.26118    1724.3014   -8306.6371   -9305.5533    22785.095     15.61011    13.518751    25.825708    5449.9781 
   86000       85.988    354.00204    14.551157   -447.79448   -433.24333    1541.4794   -10090.432   -7596.3087    22311.179    15.610113    13.518753     25.82569    5449.9761 
   86500       86.488    354.31751    14.564124   -447.79013   -433.22601    2092.3086   -6531.2341   -8147.2086    20955.368    15.610115    13.518755    25.825673    5449.9741 
   87000       86.988    361.15577    14.845209   -448.05351    -433.2083     2158.124   -5657.8161   -9951.3871    22083.575    15.610118    13.518757    25.825655    5449.9721 
   87500       87.488    345.73539    14.211358    -447.4009   -433.18954    1197.5965   -5815.2492   -9474.7898    18882.828     15.61012    13.518759    25.825638      5449.97 
   88000       87.988    357.09205    14.678171    -447.8507   -433.17253    1334.7547   -7845.5619   -7613.2491    19463.075    15.610122    13.518761     25.82562     5449.968 
   88500       88.488    357.80415    14.707441   -447.86156   -433.15412    952.38401    -6098.416   -10774.438    19730.006    15.610125    13.518763    25.825603     5449.966 
   89000       88.988    338.08395    13.896848   -447.03265    -433.1358     1387.386   -9745.5852   -10301.393    24209.136    15.610127    13.518765    25.825585    5449.9639 
   89500       89.488    346.61963    14.247705   -447.36469   -433.11698    1635.2699   -8098.5972   -6683.4861    19687.893     15.61013    13.518767    25.825568    5449.9619 
   90000       89.988     337.1724    13.859379    -446.9582   -433.09882    1399.5868   -7429.0591   -11265.754    22893.574    15.610132    13.518769     25.82555    5449.9599 
   90500       90.488    346.44557     14.24055   -447.32024   -433.07969    1885.0938   -8501.1471   -11329.508    25485.937    15.610134    13.518771    25.825533    5449.9579 
   91000       90.988    345.55617    14.203992   -447.26484   -433.06085     3336.218   -9513.9478   -4378.9614    23901.563    15.610137    13.518773    25.825515    5449.9558 
   91500       91.488    350.37285     14.40198   -447.44446   -433.04248    2160.8853   -8572.5232   -8586.8877    23642.067    15.610139    13.518775    25.825498    5449.9538 
   92000       91.988    336.01124     13.81165   -446.83493   -433.02328     1011.639   -11073.557   -6692.7504    20801.224    15.610142    13.518777     25.82548    5449.9518 
   92500       92.488    340.45228    13.994198     -446.999    -433.0048    1475.0732   -5575.2071   -7308.1649    17308.592    15.610144    13.518779    25.825463    5449.9497 
   93000       92.988    350.31533    14.399616   -447.38555   -432.98593    1312.9424   -9997.1871   -8149.1297    22085.144    15.610146    13.518781    25.825445    5449.9477 
   93500       93.488    358.58556    14.739561   -447.70625   -432.96669    814.65915   -9683.7343   -7943.3015    20071.013    15.610149    13.518783    25.825428    5449.9457 
   94000       93.988    342.61102    14.082932   -447.02991   -432.94698    947.53174   -6887.9893    -7194.427    16925.012    15.610151    13.518785     25.82541    5449.9437 
   94500       94.488    363.81778     14.95463   -447.88248   -432.92785    1445.3289   -10077.737   -7418.5874    21832.311    15.610154    13.518787    25.825393    5449.9416 
   95000       94.988    336.74955    13.841998   -446.74953   -432.90754    1972.9759   -4011.0474   -11277.914     21207.89    15.610156    13.518789    25.825375    5449.9396 
   95500       95.488    349.49223    14.365782   -447.25524   -432.88945    2514.3593   -7721.4791   -8576.3818    23840.939    15.610158    13.518792    25.825358    5449.9376 
   96000       95.988    371.30527    15.262401   -448.13192   -432.86952    1031.4075   -6949.2365   -9827.0738    19870.533    15.610161    13.518794     25.82534    5449.9355 
   96500       96.488    325.88305    13.395333    -446.2449   -432.84957    2614.6821   -5866.4723   -7872.4662    21582.985    15.610163    13.518796    25.825323    5449.9335 
   97000       96.988    339.44117    13.952636   -446.78242   -432.82978    2313.3841   -7846.5798   -6958.4135    21745.146    15.610166    13.518798    25.825305    5449.9315 
   97500       97.488    351.20261    14.436087   -447.24607   -432.80999     2096.893   -7158.0272    -7219.802    20668.508    15.610168      13.5188    25.825288    5449.9295 
   98000       97.988    355.66861    14.619661   -447.40976    -432.7901    299.47001   -7527.5554   -9651.1956    18077.161     15.61017    13.518802     25.82527    5449.9274 
   98500       98.488    349.87693    14.381595   -447.15128   -432.76969     814.8004   -8134.1776   -7311.8603    17890.439    15.610173    13.518804    25.825253    5449.9254 
   99000       98.988    348.18606    14.312093   -447.06173   -432.74964    2187.4645   -7757.6959   -10914.485    25234.574    15.610175    13.518806    25.825235    5449.9234 
   99500       99.488    369.53497    15.189634   -447.91938   -432.72975    1238.4438   -8855.2015    -7484.356    20054.889    15.610178    13.518808    25.825218    5449.9213 
  100000       99.988    347.18454    14.270925   -446.97998   -432.70905    2236.9085    -6606.334   -7373.0524    20690.112     15.61018     13.51881      25.8252    5449.9193 
  100500      100.488     334.4294    13.746629   -446.43483    -432.6882    2463.0239   -6801.8302   -7618.8841    21809.786    15.610182    13.518812    25.825183    5449.9173 
  101000      100.988    362.34458    14.894075   -447.56302   -432.66894      2244.35   -7578.3142   -9778.9949    24090.359    15.610185    13.518814    25.825165    5449.9153 
  101500      101.488    328.25408    13.492794   -446.14035   -432.64756    2169.8147   -6639.6143    -8962.925    22111.983    15.610187    13.518816    25.825148    5449.9132 
  102000      101.988    341.61709    14.042077   -446.66885   -432.62678    2525.4165   -6971.1054   -6314.7322    20862.087     15.61019    13.518818     25.82513    5449.9112 
  102500      102.488    347.80003    14.296225   -446.90316   -432.60694    1448.1483   -11996.144   -6819.8703    23160.459    15.610192     13.51882    25.825113    5449.9092 
  103000      102.988    361.05163    14.840929   -447.42752   -432.58659    770.50388   -9776.5337   -7080.7705    19168.816    15.610194    13.518822    25.825095    5449.9071 
  103500      103.488    351.04031    14.429416   -446.99384   -432.56442    1505.1748   -7856.5096   -8508.4406    20880.475    15.610197    13.518824    25.825078    5449.9051 
  104000      103.988    347.62573    14.289061   -446.83257   -432.54351    2614.4623   -4998.8949   -6686.1197    19528.401    15.610199    13.518826     25.82506    5449.9031 
  104500      104.488    357.57573    14.698052   -447.22068   -432.52262    971.22524   -6835.9558   -8422.3548    18171.986    15.610202    13.518828    25.825043    5449.9011 
  105000      104.988    345.22845    14.190521    -446.6917   -432.50118    2003.9552   -8690.5927   -7058.3203    21760.779    15.610204     13.51883    25.825025     5449.899 
  105500      105.488    374.44212    15.391341   -447.87227   -432.48093    2593.8004   -4165.0365   -9003.0395    20949.477    15.610206    13.518833    25.825008     5449.897 
  106000      105.988    344.42399    14.157454   -446.61659   -432.45913    1846.9014   -6956.4965   -8053.9452    20551.146    15.610209    13.518835     25.82499     5449.895 
  106500      106.488    358.00486    14.715692   -447.15379    -432.4381    2116.8167   -5572.4821   -7996.2584    19919.191    15.610211    13.518837    25.824973    5449.8929 
  107000      106.988    353.89735    14.546853   -446.96376   -432.41691    2894.0648     -9670.37   -5956.3311    24308.896    15.610214    13.518839    25.824955    5449.8909 
  107500      107.488    368.62959    15.152418    -447.5483   -432.39589    1821.8778   -8384.3662   -8561.3919    22411.391    15.610216    13.518841    25.824938    5449.8889 
  108000      107.988    347.60389    14.288163   -446.66215   -432.37399    2009.8177   -4318.3546   -10709.462     21057.27    15.610218    13.518843     25.82492    5449.8869 
  108500      108.488     366.6211     15.06986   -447.42313   -432.35327     1662.839   -8186.1404    -9223.878    22398.535    15.610221    13.518845    25.824903    5449.8848 
  109000      108.988    345.78423    14.213366   -446.54474   -432.33137    2465.6437   -6202.2309   -9634.8796    23234.041    15.610223    13.518847    25.824885    5449.8828 
  109500      109.488    363.76846    14.952603   -447.26261   -432.31001    2468.4789   -7088.9912   -7670.9804    22165.408    15.610226    13.518849    25.824868    5449.8808 
  110000      109.988    358.42979    14.733158   -447.02115   -432.28799    3491.4609    -4421.782   -6773.8169    21669.982    15.610228    13.518851     25.82485    5449.8787 
  110500      110.488    371.27168    15.261021   -447.52782    -432.2668    599.02728   -8577.9887    -8938.138    19313.208     15.61023    13.518853    25.824833    5449.8767 
  111000      110.988    359.56945    14.780004   -447.02528   -432.24528    3238.1441    -6244.417   -5652.5122    21611.361    15.610233    13.518855    25.824815    5449.8747 
  111500      111.488    358.24186    14.725434   -446.94848   -432.22305    1630.3555   -7864.7236    -7540.911    20296.701    15.610235    13.518857    25.824798    5449.8727 
  112000      111.988    346.43444    14.240093    -446.4407    -432.2006    2707.4326   -7834.4279   -7389.1666    23345.892    15.610238    13.518859     25.82478    5449.8706 
  112500      112.488    362.39586    14.896183   -447.07543   -432.17924    2414.2591   -8145.8744   -7162.6053    22551.257     15.61024    13.518861    25.824763    5449.8686 
  113000      112.988    342.21233    14.066544   -446.22335   -432.15681    3549.3502   -6279.2619   -5547.2938    22474.606    15.610242    13.518863    25.824745    5449.8666 
  113500      113.488     367.8365    15.119819   -447.25586   -432.13604     2423.087   -5611.2809   -11435.527    24316.069    15.610245    13.518865    25.824728    5449.8645 
  114000      113.988    334.37005    13.744189   -445.85679    -432.1126    3406.5208    -6036.792   -7214.5699    23470.924    15.610247    13.518867     25.82471    5449.8625 
  114500      114.488    367.90261    15.122536   -447.21413   -432.09159    2684.7796   -8815.9143   -5488.4498    22358.703     15.61025    13.518869    25.824693    5449.8605 
  115000      114.988    348.83456    14.338749   -446.40755    -432.0688    1086.7299   -8759.8504   -6431.4835    18451.524    15.610252    13.518871    25.824675    5449.8585 
  115500      115.488    370.63603    15.234893   -447.28304   -432.04815    2065.5861   -5713.3932   -11520.071    23430.223    15.610254    13.518874    25.824658    5449.8564 
  116000      115.988    356.50161    14.653901   -446.67863   -432.02473     2468.125   -8850.5118   -7883.7099    24138.597    15.610257    13.518876     25.82464    5449.8544 
  116500      116.488    380.10027    15.623917   -447.62752    -432.0036    2251.1569   -6431.2053   -7476.0266    20660.702    15.610259    13.518878    25.824623    5449.8524 
  117000      116.988     365.8104    15.036536   -447.01724    -431.9807    1420.5202   -7526.6474   -10093.001    21881.209    15.610262     13.51888    25.824605    5449.8503 
  117500      117.488    363.90679    14.958289   -446.91686   -431.95857    1825.0246   -6594.4973   -11012.378    23081.949    15.610264    13.518882    25.824588    5449.8483 
  118000      117.988    382.69229    15.730462   -447.66635   -431.93589    2840.5508   -8002.9866   -10035.405    26560.044    15.610266    13.518884     25.82457    5449.8463 
  118500      118.488    370.14682    15.214784   -447.12721   -431.91243    2846.0676   -7630.8358   -7508.5423    23677.581    15.610269    13.518886    25.824553    5449.8443 
  119000      118.988    349.05802    14.347934    -446.2381   -431.89016    3849.3117   -7604.7899   -4558.3683    23711.093    15.610271    13.518888    25.824535    5449.8422 
  119500      119.488    347.52968    14.285112     -446.153   -431.86789    1998.6085   -8201.6316   -8447.3081    22644.765    15.610274     13.51889    25.824518    5449.8402 
  120000      119.988    374.65184    15.399961   -447.24488   -431.84491    1407.4069   -10669.334   -8987.6283    23879.183    15.610276    13.518892      25.8245    5449.8382 
  120500      120.488    352.53738    14.490953   -446.31515    -431.8242    1222.3981   -5873.0729   -10301.885    19842.153    15.610278    13.518894    25.824483    5449.8361 
  121000      120.988    370.99417    15.249614   -447.05086   -431.80125    423.75203    -11112.61   -5370.0565    17753.922    15.610281    13.518896    25.824465    5449.8341 
  121500      121.488    366.03479     15.04576   -446.82351   -431.77775    2724.5126   -6343.1909   -8113.2147    22629.943    15.610283    13.518898    25.824448    5449.8321 
  122000      121.988    374.88229    15.409434   -447.16478   -431.75534    1280.9944   -9189.5364   -8246.4352    21278.955    15.610286      13.5189     25.82443      5449.83 
  122500      122.488    358.35861    14.730233   -446.46194   -431.73171     2448.347   -6702.7317   -7464.9891    21512.762    15.610288    13.518902    25.824413     5449.828 
  123000      122.988    378.55476     15.56039    -447.2702   -431.70981     1935.136    -9317.557   -6385.4543    21508.419     15.61029    13.518904    25.824395     5449.826 
  123500      123.488    379.03541    15.580147   -447.26677   -431.68662    1570.1593    -7209.615   -7404.5585    19324.651    15.610293    13.518906    25.824378     5449.824 
  124000      123.988    382.99705    15.742989   -447.40742   -431.66443     3321.407   -3895.4799   -9284.5867    23144.288    15.610295    13.518908     25.82436    5449.8219 
  124500      124.488    372.84071    15.325515    -446.9659   -431.64039    1101.6466   -8747.4687   -8926.2279    20978.636    15.610298     13.51891    25.824343    5449.8199 
  125000      124.988    362.02273    14.880845   -446.49812   -431.61727     1561.611   -8442.9789   -9488.9516    22616.763      15.6103    13.518912    25.824325    5449.8179 
  125500      125.488     359.6388    14.782854   -446.37678   -431.59393    1937.2861   -8438.0302   -8111.2298    22361.118    15.610302    13.518915    25.824308    5449.8158 
  126000      125.988    366.20027    15.052562   -446.62386    -431.5713    1840.8076   -8545.7271   -7368.4106     21436.56    15.610305    13.518917     25.82429    5449.8138 
  126500      126.488    389.15214    15.995992   -447.54274   -431.54675    1643.3065   -6489.4709   -8702.9973    20122.388    15.610307    13.518919    25.824273    5449.8118 
  127000      126.988     376.1334     15.46086   -446.98513   -431.52427    2692.7586   -6637.2797   -6570.7971    21286.353     15.61031    13.518921    25.824255    5449.8098 
  127500      127.488    377.75603    15.527558   -447.02822   -431.50066    2326.0229   -7536.0239   -7653.7372     22167.83    15.610312    13.518923    25.824238    5449.8077 
  128000      127.988    368.72183     15.15621   -446.63228   -431.47607    1801.8867   -6183.6505   -10045.241    21634.552    15.610314    13.518925     25.82422    5449.8057 
  128500      128.488     358.6976    14.744167   -446.19786    -431.4537    3608.1708   -5929.9638   -6848.5712    23603.048    15.610317    13.518927    25.824203    5449.8037 
  129000      128.988    366.08918    15.047995   -446.47907   -431.43108    2573.9233   -8683.1315   -7529.3657    23934.267    15.610319    13.518929    25.824185    5449.8016 
  129500      129.488    350.19193    14.394543   -445.80221   -431.40767    3959.3533   -4660.3347   -6462.8305    23001.225    15.610322    13.518931    25.824168    5449.7996 
  130000      129.988    349.39798    14.361908   -445.74576   -431.38385    2849.2141   -7544.4707    -5291.947     21384.06    15.610324    13.518933     25.82415    5449.7976 
  130500      130.488    348.55701    14.327341   -445.68782   -431.36048    3261.3373   -5274.5963   -9532.8667    24591.475    15.610326    13.518935    25.824133    5449.7956 
  131000      130.988     382.3876    15.717938   -447.05575   -431.33782    2914.1945    -7754.315    -5480.916    21977.815    15.610329    13.518937    25.824115    5449.7935 
  131500      131.488     373.5434    15.354399   -446.66802   -431.31362    2597.9222   -3725.5542   -13353.955    24873.276    15.610331    13.518939    25.824098    5449.7915 
  132000      131.988    360.49981    14.818246   -446.10784   -431.28959    2469.4518   -8838.5469   -6147.2751    22394.177    15.610334    13.518941     25.82408    5449.7895 
  132500      132.488    364.49282    14.982378   -446.24937     -431.267    2697.9008   -7110.6423   -8325.7991    23530.144    15.610336    13.518943    25.824063    5449.7874 
  133000      132.988    357.00248    14.674489   -445.91848   -431.24399     1950.723    -11180.14   -9226.6707     26258.98    15.610338    13.518945    25.824045    5449.7854 
  133500      133.488    370.63104    15.234687   -446.45539   -431.22071    2998.0732   -7482.8489   -9869.9365    26347.005    15.610341    13.518947    25.824028    5449.7834 
  134000      133.988    375.90416    15.451437     -446.649   -431.19756    2276.5045   -8126.0907   -5186.8828    20142.487    15.610343    13.518949     25.82401    5449.7814 
  134500      134.488    370.55734    15.231658   -446.40478   -431.17312    2319.5561   -5615.4943   -12739.313    25313.476    15.610346    13.518951    25.823993    5449.7793 
  135000      134.988    377.28721    15.508287   -446.65768    -431.1494    2049.1745   -7890.6738   -7519.6748    21557.872    15.610348    13.518953    25.823975    5449.7773 
  135500      135.488    353.77515     14.54183    -445.6675   -431.12567    1582.3914   -7508.4785   -10107.712    22363.365     15.61035    13.518956    25.823958    5449.7753 
  136000      135.988    403.78319    16.597398   -447.69921   -431.10181    1945.4921   -8992.4457   -4264.2228    19093.145    15.610353    13.518958     25.82394    5449.7732 
  136500      136.488    371.67819     15.27773   -446.35532   -431.07759    1900.4091   -8020.1286    -9849.907    23571.263    15.610355     13.51896    25.823923    5449.7712 
  137000      136.988    378.95181     15.57671   -446.63114   -431.05443    1536.2926   -10700.953   -4658.8038    19968.634    15.610358    13.518962    25.823905    5449.7692 
  137500      137.488    376.96112    15.494884   -446.52591   -431.03103    2851.4689   -6516.6679   -7865.2926    22936.367     15.61036    13.518964    25.823888    5449.7672 
  138000      137.988    351.21587    14.436632   -445.44338   -431.00674     3331.826     -9789.29   -5087.5749    24872.343    15.610362    13.518966     25.82387    5449.7651 
  138500      138.488    364.51874    14.983443   -445.96606   -430.98262     2340.274   -6970.8068   -6198.7265    20190.355    15.610365    13.518968    25.823853    5449.7631 
  139000      138.988    387.78384    15.939748   -446.89877   -430.95902     1919.562   -6339.4461   -11180.809    23278.941    15.610367     13.51897    25.823835    5449.7611 
  139500      139.488    377.34677    15.510736   -446.44614    -430.9354    2480.2404   -9691.3572   -8023.5485    25155.627     15.61037    13.518972    25.823818     5449.759 
  140000      139.988    356.44458    14.651557   -445.56186    -430.9103    2926.7946   -7598.3207    -6992.288    23370.993    15.610372    13.518974      25.8238     5449.757 
  140500      140.488    366.64483    15.070835   -445.95729   -430.88645    2614.8255   -7238.9171    -7469.832    22553.226    15.610374    13.518976    25.823783     5449.755 
  141000      140.988    379.49525    15.599048   -446.46242   -430.86337    1792.6374   -7397.6607    -9724.725    22500.298    15.610377    13.518978    25.823765     5449.753 
  141500      141.488     373.8095    15.365337   -446.20475   -430.83942    3193.9165   -7083.4137     -8233.84    24899.003    15.610379     13.51898    25.823748    5449.7509 
  142000      141.988    374.86144    15.408577   -446.22445   -430.81587    3124.2542   -6658.9522   -7510.1238    23541.839    15.610382    13.518982     25.82373    5449.7489 
  142500      142.488    380.38548    15.635641   -446.42695   -430.79131    1742.1443   -8288.2833   -6501.2723    20015.989    15.610384    13.518984    25.823713    5449.7469 
  143000      142.988    381.62278      15.6865    -446.4544    -430.7679    2971.3458   -5618.4667    -7685.472    22217.976    15.610386    13.518986    25.823695    5449.7448 
  143500      143.488    373.60087    15.356761   -446.10081   -430.74405    3423.1025   -7223.9874   -9698.2482    27191.543    15.610389    13.518988    25.823678    5449.7428 
  144000      143.988    365.62133    15.028765   -445.74818   -430.71942    2848.1724   -6425.8462   -6268.8337    21239.197    15.610391     13.51899     25.82366    5449.7408 
  144500      144.488    360.80853    14.830936   -445.52522   -430.69429    3680.8182    -4844.212   -9798.0985    25684.765    15.610394    13.518992    25.823643    5449.7388 
  145000      144.988    375.55042    15.436897    -446.1076   -430.67071    2748.7024   -7922.9052   -6734.5086    22903.521    15.610396    13.518994    25.823625    5449.7367 
  145500      145.488    383.76341     15.77449   -446.42114   -430.64665    3049.9113   -7294.7505   -7689.2771    24133.762    15.610398    13.518997    25.823608    5449.7347 
  146000      145.988    375.61379    15.439502   -446.06229   -430.62279    2056.7981   -6924.5293    -8059.976      21154.9    15.610401    13.518999     25.82359    5449.7327 
  146500      146.488    386.81324    15.899852   -446.49889   -430.59904    2103.2108   -6933.4715   -7254.6506    20497.754    15.610403    13.519001    25.823573    5449.7306 
  147000      146.988     375.3257     15.42766   -446.00238   -430.57472    3088.5317   -6802.7797   -5772.2104    21840.585    15.610406    13.519003    25.823555    5449.7286 
  147500      147.488    372.41825     15.30815   -445.85789   -430.54974     2045.723   -8158.3278   -10502.718    24798.215    15.610408    13.519005    25.823538    5449.7266 
  148000      147.988    376.76197    15.486698    -446.0118    -430.5251    2790.0377   -7944.7484   -7294.0345    23608.896     15.61041    13.519007     25.82352    5449.7245 
  148500      148.488    388.74341    15.979191   -446.48106   -430.50187    3834.8776   -5507.1523   -7683.3785    24695.164    15.610413    13.519009    25.823503    5449.7225 
  149000      148.988    368.05615    15.128847   -445.60557   -430.47673    3979.2867   -6209.6578   -5828.5089    23976.027    15.610415    13.519011    25.823485    5449.7205 
  149500      149.488    373.54427    15.354435   -445.80617   -430.45173    3269.7214    -7887.279   -5370.4416    23066.885    15.610418    13.519013    25.823468    5449.7185 
  150000      149.988    397.70211    16.347436   -446.77622   -430.42878    3029.5877   -7437.1778   -6061.7137    22587.655     15.61042    13.519015     25.82345    5449.7164 
  150500      150.488    392.96651    16.152781   -446.55707   -430.40429    1435.1151   -8270.2612   -8553.3449    21128.951    15.610422    13.519017    25.823433    5449.7144 
  151000      150.988    378.29176    15.549579   -445.92951   -430.37993    3731.8483   -7471.8721   -9138.4936    27805.911    15.610425    13.519019    25.823415    5449.7124 
  151500      151.488     381.3914    15.676989    -446.0315   -430.35451    3018.4204   -6446.8554   -6034.6593    21536.776    15.610427    13.519021    25.823398    5449.7103 
  152000      151.988     391.8996    16.108926   -446.43926   -430.33033    2885.8119   -8223.7572   -8559.9383    25441.131     15.61043    13.519023     25.82338    5449.7083 
  152500      152.488    367.08871    15.089081   -445.39456   -430.30548    3593.0877   -6353.5246   -8292.3153    25425.103    15.610432    13.519025    25.823363    5449.7063 
  153000      152.988    361.68875    14.867117   -445.14792   -430.28081    3706.8106   -3943.6877   -7651.9669    22716.086    15.610434    13.519027    25.823345    5449.7043 
  153500      153.488    365.70275    15.032111   -445.28808   -430.25596    2700.1143   -4820.5394   -7781.0108    20701.893    15.610437    13.519029    25.823328    5449.7022 
  154000      153.988    363.54004    14.943214   -445.17431    -430.2311    4500.9632   -5083.2323   -4795.2357    23381.358    15.610439    13.519031     25.82331    5449.7002 
  154500      154.488    386.61438    15.891678   -446.09863   -430.20695    1707.6476   -7585.3763   -7719.2804      20427.6    15.610442    13.519033    25.823293    5449.6982 
  155000      154.988    380.54595    15.642237   -445.82489   -430.18265    694.31444    -6969.369   -9730.5076     18782.82    15.610444    13.519035    25.823275    5449.6961 
  155500      155.488    355.74812    14.622929   -444.78101   -430.15808    3540.0447   -4543.6879   -8086.7809    23250.603    15.610446    13.519038    25.823258    5449.6941 
  156000      155.988    390.09898    16.034912   -446.16838   -430.13347    2452.7538   -8778.4997   -6586.3715    22723.133    15.610449     13.51904     25.82324    5449.6921 
  156500      156.488    374.76809     15.40474   -445.51245   -430.10771    4528.2374   -5932.9792    -4648.671    24166.362    15.610451    13.519042    25.823223    5449.6901 
  157000      156.988    374.82305    15.406999   -445.48983   -430.08283    2482.3943   -7148.6197   -6203.6492    20799.452    15.610454    13.519044    25.823205     5449.688 
  157500      157.488    398.86953    16.395423   -446.45216   -430.05674     4270.911   -5383.4838   -4807.6234     23003.84    15.610456    13.519046    25.823188     5449.686 
  158000      157.988    385.92007    15.863139   -445.89492   -430.03178    3012.9877   -9166.2163   -5521.9967    23727.176    15.610458    13.519048     25.82317     5449.684 
  158500      158.488    387.69051    15.935912   -445.94332    -430.0074    3294.0207    -10567.79   -6535.3013    26985.154    15.610461     13.51905    25.823153    5449.6819 
  159000      158.988    404.98465    16.646783   -446.62945   -429.98267     2420.883   -8543.3277   -4305.5977    20111.574    15.610463    13.519052    25.823135    5449.6799 
  159500      159.488    377.62655    15.522236   -445.47939   -429.95716    2822.8853   -4571.8321   -6001.3121      19041.8    15.610466    13.519054    25.823118    5449.6779 
  160000      159.988    391.07815     16.07516   -446.00764   -429.93248    2855.8396   -6056.0923   -9216.9133    23840.524    15.610468    13.519056      25.8231    5449.6759 
  160500      160.488    404.76553    16.637776   -446.54559   -429.90782    4389.4394   -5470.6562   -4672.3188    23311.293     15.61047    13.519058    25.823083    5449.6738 
  161000      160.988    379.85821    15.613968   -445.49808   -429.88411    3404.6823   -5344.5111   -9171.6678    24730.226    15.610473     13.51906    25.823065    5449.6718 
  161500      161.488     370.0894    15.212423   -445.07104   -429.85861    3488.1795   -3979.7449   -7976.2205    22420.504    15.610475    13.519062    25.823048    5449.6698 
  162000      161.988    396.21979    16.286506   -446.12008   -429.83357    2749.2084   -6383.4205   -8883.8767    23514.922    15.610478    13.519064     25.82303    5449.6677 
  162500      162.488    407.21792    16.738581   -446.54712   -429.80854    1702.0665    -8801.764   -7160.9334    21068.897     15.61048    13.519066    25.823013    5449.6657 
  163000      162.988    388.80019    15.981525   -445.76506   -429.78354    4506.7381   -7762.9464   -5763.4735    27046.634    15.610482    13.519068    25.822995    5449.6637 
  163500      163.488    356.16298    14.639982   -444.39816   -429.75817    4823.1534   -5280.7498   -8025.4571    27775.667    15.610485     13.51907    25.822978    5449.6617 
  164000      163.988    375.93515    15.452711    -445.1862   -429.73349    4014.3866   -3402.0805   -7576.5421    23021.782    15.610487    13.519072     25.82296    5449.6596 
  164500      164.488    388.59732    15.973186    -445.6812   -429.70801    2340.0126   -3083.4408   -11164.021      21267.5     15.61049    13.519074    25.822943    5449.6576 
  165000      164.988    398.33416    16.373416   -446.05717   -429.68376    3067.3514   -5160.9885   -11224.449    25587.492    15.610492    13.519076    25.822925    5449.6556 
  165500      165.488    387.84866    15.942413   -445.60022   -429.65781    4202.5968   -1631.7869   -5192.6922     19432.27    15.610494    13.519079    25.822908    5449.6535 
  166000      165.988    399.76001    16.432026   -446.06467   -429.63265    2883.0254   -5926.1445   -6940.9044    21516.125    15.610497    13.519081     25.82289    5449.6515 
  166500      166.488    397.46959    16.337879   -445.94481   -429.60694      2516.66   -3353.2172    -8441.129    19344.326    15.610499    13.519083    25.822873    5449.6495 
  167000      166.988    391.19615    16.080011   -445.66187   -429.58186    2660.6164   -8079.9654   -6606.7766    22668.591    15.610502    13.519085    25.822855    5449.6474 
  167500      167.488    366.92032    15.082159   -444.63813   -429.55597    3319.8354   -8726.9637   -6560.7629    25247.233    15.610504    13.519087    25.822838    5449.6454 
  168000      167.988    383.31143    15.755912   -445.28694   -429.53103    2550.4531   -5499.3272   -9032.4809    22183.167    15.610506    13.519089     25.82282    5449.6434 
  168500      168.488    387.45159    15.926091   -445.43019    -429.5041    2714.5535   -10201.853   -5436.2648    23781.779    15.610509    13.519091    25.822803    5449.6414 
  169000      168.988    395.05454    16.238609   -445.71708   -429.47847    2150.4226   -7612.1755    -10767.83    24831.273    15.610511    13.519093    25.822785    5449.6393 
  169500      169.488    396.51707    16.298726   -445.75289   -429.45416    3095.2891    -6403.695   -8169.0941    23858.656    15.610514    13.519095    25.822768    5449.6373 
  170000      169.988    419.68935    17.251216   -446.68042   -429.42921    3824.1642   -7804.3505   -8962.0712    28238.914    15.610516    13.519097     25.82275    5449.6353 
  170500      170.488    397.42588    16.336082   -445.73928   -429.40319     2656.064   -8762.0268   -6790.4076    23520.627    15.610518    13.519099    25.822733    5449.6332 
  171000      170.988    410.78787    16.885323   -446.26279   -429.37747     2140.588   -9635.9972   -7472.9942    23530.755    15.610521    13.519101    25.822715    5449.6312 
  171500      171.488     388.2328    15.958203   -445.31019   -429.35199    3959.8753   -7396.7168   -5838.3212    25114.664    15.610523    13.519103    25.822698    5449.6292 
  172000      171.988    363.47793    14.940661    -444.2667   -429.32604    4572.2516   -6644.9428   -6092.1917    26453.889    15.610526    13.519105     25.82268    5449.6272 
  172500      172.488    408.56985    16.794152   -446.09558   -429.30143    4018.7403   -6036.8122   -8249.5035    26342.537    15.610528    13.519107    25.822663    5449.6251 
  173000      172.988    388.01632    15.949304   -445.22479   -429.27548    5719.6965   -4738.5921   -6648.6078    28546.289     15.61053    13.519109    25.822645    5449.6231 
  173500      173.488     371.7603    15.281105     -444.531   -429.24989    4329.0897   -6728.7473   -5181.1164    24897.133    15.610533    13.519111    25.822628    5449.6211 
  174000      173.988    394.56162    16.218347   -445.44221   -429.22386    3555.9999    -5818.538   -5624.7452    22111.283    15.610535    13.519113     25.82261     5449.619 
  174500      174.488    419.91011     17.26029   -446.45939    -429.1991    4721.2627   -5055.5145   -6920.5986    26139.901    15.610538    13.519115    25.822593     5449.617 
  175000      174.988    399.82403    16.434657   -445.60773   -429.17308    3337.6867   -5459.6594   -9764.2002     25236.92     15.61054    13.519117    25.822575     5449.615 
  175500      175.488    417.40751    17.157421   -446.30563   -429.14821    3700.4473    -7963.882   -6380.8086    25446.033    15.610542     13.51912    25.822558     5449.613 
  176000      175.988    414.70306    17.046256   -446.16905   -429.12279    2297.8835   -6421.0596    -8349.314    21664.024    15.610545    13.519122     25.82254    5449.6109 
  176500      176.488     400.5293    16.463647   -445.55966   -429.09601    3000.1841   -4984.1242   -8976.0241    22960.701    15.610547    13.519124    25.822523    5449.6089 
  177000      176.988    388.46235    15.967639   -445.03752   -429.06989    4503.9693   -6670.6672   -7523.8509    27706.426     15.61055    13.519126    25.822505    5449.6069 
  177500      177.488    385.98165     15.86567   -444.90971   -429.04404    3392.3786   -8653.9583   -4043.4424    22874.537    15.610552    13.519128    25.822488    5449.6048 
  178000      177.988     399.5237    16.422312   -445.44013   -429.01782    3986.7959   -6273.1384   -6030.7604    24264.287    15.610554     13.51913     25.82247    5449.6028 
  178500      178.488    398.59613    16.384185   -445.37673   -428.99255    3852.4724   -5255.7299   -7340.8651    24154.012    15.610557    13.519132    25.822453    5449.6008 
  179000      178.988    394.72819    16.225194   -445.19112   -428.96592    3920.0245   -5863.6936   -11224.676    28848.443    15.610559    13.519134    25.822435    5449.5988 
  179500      179.488    376.39713    15.471701   -444.41207   -428.94037    4256.8905   -2572.0225   -9170.5236    24513.218    15.610562    13.519136    25.822418    5449.5967 
  180000      179.988    403.80787    16.598412   -445.51337   -428.91495    3706.0307    -1010.541   -11431.876    23560.509    15.610564    13.519138      25.8224    5449.5947 
  180500      180.488    401.76225    16.514327   -445.40355   -428.88923    4203.6438   -5807.1532   -9464.6802    27882.765    15.610566     13.51914    25.822383    5449.5927 
  181000      180.988    377.68799    15.524761   -444.38619   -428.86143    3907.4966   -4401.8197   -10113.955    26238.264    15.610569    13.519142    25.822365    5449.5906 
  181500      181.488    420.61624    17.289315   -446.12558   -428.83627    2680.3623   -6205.0352   -9051.6019    23297.724    15.610571    13.519144    25.822348    5449.5886 
  182000      181.988    434.12711    17.844676   -446.65477   -428.81009    3363.5156   -4587.1417   -9424.6816     24102.37    15.610574    13.519146     25.82233    5449.5866 
  182500      182.488    424.56322    17.451555   -446.23547   -428.78391    3215.1889   -4311.0014   -7546.1192    21502.687    15.610576    13.519148    25.822313    5449.5845 
  183000      182.988    393.49873    16.174657   -444.93145   -428.75679    2410.2902   -5645.3984   -6632.2562    19508.525    15.610578     13.51915    25.822295    5449.5825 
  183500      183.488    421.76511    17.336539   -446.06766   -428.73112    4442.4976   -5602.0929   -6815.7508    25745.336    15.610581    13.519152    25.822278    5449.5805 
  184000      183.988    414.83587    17.051715   -445.75588   -428.70416    3187.1933   -8093.4002   -7672.3121    25327.292    15.610583    13.519154     25.82226    5449.5785 
  184500      184.488     408.3878    16.786669   -445.46498   -428.67831    2784.8257   -7007.7629   -8180.6071    23542.847    15.610586    13.519156    25.822243    5449.5764 
  185000      184.988    407.25244        16.74   -445.39132   -428.65132    3585.3639   -5146.6897   -7772.2945    23675.076    15.610588    13.519158    25.822225    5449.5744 
  185500      185.488    415.25647    17.069004   -445.69397   -428.62497    2758.3551    -7157.527   -8360.4252    23793.018     15.61059    13.519161    25.822208    5449.5724 
  186000      185.988    412.31041    16.947907   -445.54663   -428.59873    4834.6399    -8496.851   -6668.6651    29669.436    15.610593    13.519163     25.82219    5449.5703 
  186500      186.488    434.61282    17.864641   -446.43686   -428.57222    2146.8244   -8878.8987   -6861.9099    22181.282    15.610595    13.519165    25.822173    5449.5683 
  187000      186.988    393.87863    16.190273   -444.73653   -428.54626    3969.9171   -7598.0622   -5570.4404    25078.254    15.610598    13.519167    25.822155    5449.5663 
  187500      187.488    394.61518    16.220549   -444.74008   -428.51953     3475.203   -7086.5504   -9804.6076    27316.767      15.6106    13.519169    25.822138    5449.5643 
  188000      187.988    398.01407    16.360259   -444.85378   -428.49352    3581.7994   -5496.0728   -9910.3089     26151.78    15.610602    13.519171     25.82212    5449.5622 
  188500      188.488    407.28748     16.74144    -445.2083   -428.46686    4211.5078   -6862.9766   -5810.2475    25307.748    15.610605    13.519173    25.822103    5449.5602 
  189000      188.988    410.89058    16.889545   -445.33008   -428.44053    3413.3167   -2921.1874   -9350.5453    22511.683    15.610607    13.519175    25.822085    5449.5582 
  189500      189.488     416.4217      17.1169    -445.5307    -428.4138     1695.873   -8527.6692    -6832.035    20447.323     15.61061    13.519177    25.822068    5449.5561 
  190000      189.988    415.14418    17.064388   -445.45168   -428.38729    2833.4537   -7022.4641   -5504.9261    21027.751    15.610612    13.519179     25.82205    5449.5541 
  190500      190.488    410.74354    16.883501   -445.24446   -428.36096    4082.5822   -8485.4712   -4403.0668    25136.285    15.610614    13.519181    25.822033    5449.5521 
  191000      190.988    403.64834    16.591855   -444.92646    -428.3346     4598.302   -6887.7179   -3520.4262     24203.05    15.610617    13.519183    25.822015    5449.5501 
  191500      191.488    403.48021    16.584944   -444.89209   -428.30714    4421.4774   -4703.9231   -6793.9695    24762.325    15.610619    13.519185    25.821998     5449.548 
  192000      191.988    429.10986    17.638443   -445.91931   -428.28087     3443.459   -3270.8416   -7396.9933    20998.212    15.610622    13.519187     25.82198     5449.546 
  192500      192.488    407.34365    16.743749   -444.99703   -428.25328    3337.3679   -5623.0933   -7114.7082    22749.905    15.610624    13.519189    25.821963     5449.544 
  193000      192.988     412.5079    16.956024   -445.18305   -428.22702    4566.1481    -4787.337   -3445.0299    21930.811    15.610626    13.519191    25.821945    5449.5419 
  193500      193.488    379.80202    15.611658   -443.81199   -428.20033    5041.4489   -5037.7277   -6873.9728    27036.047    15.610629    13.519193    25.821928    5449.5399 
  194000      193.988    385.48679    15.845329   -444.01952   -428.17419    4497.6942   -3989.7979   -6639.3317    24122.212    15.610631    13.519195     25.82191    5449.5379 
  194500      194.488      425.001     17.46955   -445.61788   -428.14834    3613.2404   -3681.9158   -8996.2844    23517.921    15.610634    13.519197    25.821893    5449.5359 
  195000      194.988    404.29406    16.618397   -444.73905   -428.12065    5013.0846   -2324.2181   -5951.8304    23315.302    15.610636    13.519199    25.821875    5449.5338 
  195500      195.488    429.13197    17.639352   -445.73446   -428.09511     3273.772   -5944.7209   -8414.2787    24180.316    15.610638    13.519202    25.821858    5449.5318 
  196000      195.988    414.49668    17.037772   -445.10669   -428.06892    3784.5135   -7902.9536   -6564.1885    25820.682    15.610641    13.519204     25.82184    5449.5298 
  196500      196.488     419.1433    17.228771   -445.27041   -428.04163    4368.3548   -7452.5375   -5647.8675     26205.47    15.610643    13.519206    25.821823    5449.5277 
  197000      196.988    420.93233    17.302308   -445.31697   -428.01466    4751.8195   -7312.2988    -8226.858    29794.615    15.610646    13.519208    25.821805    5449.5257 
  197500      197.488    434.06258    17.842023   -445.82968   -427.98766    2984.4035   -6921.2012   -4904.8158    20779.228    15.610648     13.51921    25.821788    5449.5237 
  198000      197.988    425.82345    17.503356   -445.46425    -427.9609    5459.6946   -2842.7559   -5305.6989    24527.539     15.61065    13.519212     25.82177    5449.5216 
  198500      198.488        401.9    16.519989   -444.45373   -427.93374    4963.4353   -5249.6475    -6738.578    26878.531    15.610653    13.519214    25.821753    5449.5196 
  199000      198.988    416.32769    17.113036   -445.02065   -427.90761    5675.9474   -7404.9897   -4749.7014    29182.533    15.610655    13.519216    25.821735    5449.5176 
  199500      199.488     428.6766    17.620634   -445.50201   -427.88137    2625.9135   -8483.1187    -7702.344    24063.203    15.610658    13.519218    25.821718    5449.5156 
  200000      199.988    409.58025    16.835684   -444.68914   -427.85345    3468.3889   -5924.1374   -7767.9712    24097.275     15.61066     13.51922      25.8217    5449.5135 
  200500      200.488    412.46224    16.954147   -444.78054    -427.8264     3684.001   -7053.6604   -4464.4586    22570.122    15.610662    13.519222    25.821683    5449.5115 
  201000      200.988    413.99603    17.017194    -444.8174    -427.8002    3026.3127   -8953.1639   -6794.3821    24826.484    15.610665    13.519224    25.821665    5449.5095 
  201500      201.488    433.83666    17.832737    -445.6055   -427.77276     3768.855   -6076.3975   -4489.1468    21872.109    15.610667    13.519226    25.821648    5449.5074 
  202000      201.988    400.03733    16.443425   -444.18837   -427.74494    4975.1901   -5825.2246   -7523.2599    28274.055     15.61067    13.519228     25.82163    5449.5054 
  202500      202.488    399.00654    16.401054   -444.11885    -427.7178    4153.2902   -5195.0087   -4045.0067    21699.886    15.610672     13.51923    25.821613    5449.5034 
  203000      202.988    418.09759    17.185787   -444.87657   -427.69078    4775.3264   -8830.2652   -2738.1783    25894.423    15.610674    13.519232    25.821595    5449.5014 
  203500      203.488    414.60959    17.042414   -444.70665   -427.66424    5439.5074   -5225.7551   -2550.9217    24095.199    15.610677    13.519234    25.821578    5449.4993 
  204000      203.988    415.68714    17.086706   -444.72395   -427.63725    3779.0654   -9372.8818   -4585.9832    25296.061    15.610679    13.519236     25.82156    5449.4973 
  204500      204.488     439.6501    18.071697   -445.68236   -427.61067    3099.2719   -7426.1835   -8502.1572    25226.156    15.610682    13.519238    25.821543    5449.4953 
  205000      204.988    414.45334    17.035991   -444.61955   -427.58356    4575.4719   -6230.3199   -6114.5462    26071.282    15.610684     13.51924    25.821525    5449.4932 
  205500      205.488    420.62305    17.289595   -444.84545   -427.55585    4847.1778   -5652.3533   -6808.6825    27002.569    15.610686    13.519243    25.821508    5449.4912 
  206000      205.988    418.57755    17.205516   -444.73456   -427.52904    4404.0046   -7033.8408   -9949.4252     30195.28    15.610689    13.519245     25.82149    5449.4892 
  206500      206.488    391.76122    16.103238    -443.6046   -427.50136    2451.6661   -7641.6641    -8020.023    23016.685    15.610691    13.519247    25.821473    5449.4872 
  207000      206.988    415.68119    17.086461   -444.56052   -427.47406    4292.5368   -7883.2617    -3322.763    24083.635    15.610694    13.519249    25.821455    5449.4851 
  207500      207.488      415.781    17.090564    -444.5378   -427.44724    3682.6334   -9592.0796   -3147.7377    23787.718    15.610696    13.519251    25.821438    5449.4831 
  208000      207.988    425.75988    17.500743   -444.92052   -427.41977    4720.5403   -6505.6353   -7335.5858    28002.842    15.610698    13.519253     25.82142    5449.4811 
  208500      208.488    432.82636    17.791209   -445.18369   -427.39248    3739.0405   -6492.6415   -4835.5395    22545.303    15.610701    13.519255    25.821403     5449.479 
  209000      208.988     440.0827    18.089479   -445.45477   -427.36529    3602.6037    -9748.434   -5530.4925    26086.738    15.610703    13.519257    25.821385     5449.477 
  209500      209.488    412.55984    16.958159   -444.29535   -427.33719    3296.8773   -5265.2132   -6171.1106    21326.956    15.610706    13.519259    25.821368     5449.475 
  210000      209.988    407.38951    16.745634    -444.0554   -427.30977    4906.1085   -3315.2961   -8838.1996    26871.821    15.610708    13.519261     25.82135    5449.4729 
  210500      210.488    417.12141    17.145661    -444.4289   -427.28324    3834.5463   -5287.0191   -5793.5035    22584.162     15.61071    13.519263    25.821333    5449.4709 
  211000      210.988    421.34914    17.319441   -444.57536   -427.25592    4403.4665   -4484.8764   -6875.2618    24570.538    15.610713    13.519265    25.821315    5449.4689 
  211500      211.488    427.28916    17.563604   -444.79129   -427.22769    4951.6542   -4701.6155   -5192.7766    24749.355    15.610715    13.519267    25.821298    5449.4669 
  212000      211.988    431.84828    17.751005   -444.95099   -427.19999    5702.2013   -2300.2455   -8957.8932    28364.742    15.610718    13.519269     25.82128    5449.4648 
[...]
  948500      948.488    600.54926    24.685413   -439.88218   -415.19677    10227.406    1518.0845   -4989.5163    34153.651    15.614253    13.522289    25.795503    5446.4737 
  949000      948.988    561.57538    23.083402   -438.27873   -415.19533    10008.727   -3569.8825    1297.8497    32298.214    15.614255    13.522291    25.795485    5446.4717 
  949500      949.488    561.75749    23.090888   -438.28643   -415.19554     10040.24    1386.0971   -6626.2882    35360.911    15.614258    13.522293    25.795468    5446.4696 
  950000      949.988    567.42174    23.323715   -438.51825   -415.19454    9674.8782    2987.9972   -6970.6262    33007.264     15.61426    13.522295     25.79545    5446.4676 
  950500      950.488    555.26577    22.824048   -438.01517   -415.19112    9452.9862   -2480.5826   -500.67045    31340.211    15.614262    13.522297    25.795433    5446.4656 
  951000      950.988    552.30127    22.702192   -437.89033   -415.18814    9233.3887    -3447.058   -5011.0917    36158.316    15.614265    13.522299    25.795415    5446.4635 
  951500      951.488    608.24358    25.001686   -440.18692   -415.18523    8265.2689   -5677.0926   -263.95303    30736.852    15.614267    13.522301    25.795398    5446.4615 
  952000      951.988    554.82973    22.806124   -437.98842   -415.18229    10863.802   -6590.7063     2717.827    36464.286     15.61427    13.522303     25.79538    5446.4595 
  952500      952.488    556.43081    22.871936   -438.05429   -415.18236    7346.7583    -2900.344   -7852.2993    32792.918    15.614272    13.522305    25.795363    5446.4575 
  953000      952.988    589.77867    24.242691   -439.42469     -415.182    9521.4739   -1578.3596   -3429.1922    33571.973    15.614274    13.522307    25.795345    5446.4554 
  953500      953.488    581.68049    23.909817   -439.09261    -415.1828     9185.966   -4981.7974   -3623.5203    36163.216    15.614277    13.522309    25.795328    5446.4534 
  954000      953.988    571.26401    23.481651   -438.66239   -415.18074    7942.3628   -4672.9368   -867.97426        29368    15.614279    13.522311     25.79531    5446.4514 
  954500      954.488    574.56562    23.617363   -438.79593   -415.17857    9765.3117   -1049.8981   -3301.1065     33646.94    15.614282    13.522313    25.795293    5446.4493 
  955000      954.988    550.86709    22.643241   -437.82093   -415.17769    9599.4411   -1466.2648   -2989.5033    33254.091    15.614284    13.522315    25.795275    5446.4473 
  955500      955.488     592.7242    24.363766   -439.53986    -415.1761    9844.1138   -2891.6202    1129.8325    31294.129    15.614286    13.522318    25.795258    5446.4453 
  956000      955.988    554.04573    22.773898   -437.94735   -415.17345    9042.6583   -3839.3857   -2465.6937    33433.054    15.614289     13.52232     25.79524    5446.4432 
  956500      956.488    585.21814    24.055232   -439.22661   -415.17137    10156.858   -3980.7823     1433.285     33018.07    15.614291    13.522322    25.795223    5446.4412 
  957000      956.988    558.52621    22.958067   -438.12665   -415.16858    9065.9675    1260.8616   -3705.1599    29642.201    15.614294    13.522324    25.795205    5446.4392 
  957500      957.488    566.05433    23.267508   -438.43558   -415.16807     11814.73   -441.75459     -672.887    36558.831    15.614296    13.522326    25.795188    5446.4371 
  958000      957.988    582.99006    23.963647   -439.13118   -415.16753    8699.0049   -2414.2756   -3088.0062    31599.296    15.614298    13.522328     25.79517    5446.4351 
  958500      958.488    604.91639    24.864922   -440.02988   -415.16496    10058.988    3331.3989   -5552.4833    32398.049    15.614301     13.52233    25.795153    5446.4331 
  959000      958.988    601.73278    24.734061   -439.89931   -415.16525    7939.8911    -2977.963   -4372.0208    31169.657    15.614303    13.522332    25.795135     5446.431 
  959500      959.488    552.99652     22.73077   -437.89173   -415.16096    9683.1813    2263.5316   -3315.1678     30101.18    15.614306    13.522334    25.795118     5446.429 
  960000      959.988    562.26189    23.111621   -438.26904   -415.15742    10815.174   -1950.5935   -3159.8456    37555.961    15.614308    13.522336      25.7951     5446.427 
  960500      960.488    531.24223    21.836566   -436.99125   -415.15469    8688.1334   -36.474104   -6158.1495    32259.024     15.61431    13.522338    25.795083    5446.4249 
  961000      960.988    560.13469    23.024183   -438.17664   -415.15245    9751.1972   -1626.4085   -4517.2311    35397.231    15.614313     13.52234    25.795065    5446.4229 
  961500      961.488    555.54059    22.835344   -437.98354    -415.1482    10432.633   -1766.5076   -4827.6915    37892.097    15.614315    13.522342    25.795048    5446.4209 
  962000      961.988    584.34246    24.019237   -439.16538   -415.14614    7859.3028   -5783.7729   -4950.0072    34311.689    15.614318    13.522344     25.79503    5446.4188 
  962500      962.488    548.61317    22.550594   -437.69233   -415.14174    10784.623   -2340.8256    203.51977    34491.174     15.61432    13.522346    25.795013    5446.4168 
  963000      962.988    546.99376    22.484028   -437.62133    -415.1373    10547.215   -2356.3559   -501.78455    34499.785    15.614322    13.522348    25.794995    5446.4148 
  963500      963.488    561.26259    23.070545   -438.20559   -415.13504    10658.112   -666.22513   -1003.2818    33643.843    15.614325     13.52235    25.794978    5446.4127 
  964000      963.988     562.1825    23.108358   -438.24138   -415.13302    9312.1276    1259.4839   -6513.2968    33190.196    15.614327    13.522352     25.79496    5446.4107 
  964500      964.488       546.34    22.457156   -437.58502   -415.12786    10510.128   -5150.3545    2801.1033    33879.635     15.61433    13.522354    25.794943    5446.4087 
  965000      964.988    593.69353     24.40361   -439.52902   -415.12541    9001.0893   -2107.2199   -4395.8598    33506.348    15.614332    13.522356    25.794925    5446.4066 
  965500      965.488    582.77537    23.954822   -439.07845   -415.12363    9635.7883   -1796.6257    -2599.938    33303.929    15.614334    13.522359    25.794908    5446.4046 
  966000      965.988    579.28237    23.811243   -438.93026   -415.11902    10684.416     -989.342   -3248.8923    36291.482    15.614337    13.522361     25.79489    5446.4026 
  966500      966.488    570.26651    23.440649   -438.55541   -415.11476    10082.569    4131.3836   -5185.8367    31302.161    15.614339    13.522363    25.794873    5446.4006 
  967000      966.988    549.28119    22.578053   -437.68892   -415.11087    9612.9354    -1007.291   -2999.4946    32845.592    15.614342    13.522365    25.794855    5446.3985 
  967500      967.488    576.89705    23.713195   -438.81905   -415.10585    10128.384    365.90014   -3804.7663    33824.019    15.614344    13.522367    25.794838    5446.3965 
  968000      967.988    562.08262    23.104252   -438.20728   -415.10302    10255.455    -344.4676   -5094.5168    36205.349    15.614346    13.522369     25.79482    5446.3945 
  968500      968.488     595.8322    24.491519   -439.59057   -415.09905     6149.589   -5470.6656   -5751.3237    29670.756    15.614349    13.522371    25.794803    5446.3924 
  969000      968.988    580.90318    23.877866   -438.97462   -415.09675    9160.8868   -2216.1691   -1365.2935    31064.123    15.614351    13.522373    25.794785    5446.3904 
  969500      969.488    552.06493    22.692478   -437.78113   -415.08866     9315.658   -3471.8151   -3042.5821    34461.371    15.614354    13.522375    25.794768    5446.3884 
  970000      969.988    545.47184    22.421471   -437.50628   -415.08481     9255.759   -2270.9918    -2725.148    32763.417    15.614356    13.522377     25.79475    5446.3863 
  970500      970.488    546.36149    22.458039   -437.53935   -415.08131    9887.2306   -65.755457   -572.60441    30300.052    15.614358    13.522379    25.794733    5446.3843 
  971000      970.988    573.17756    23.560306   -438.63701    -415.0767    8466.1657   -458.70981   -3969.0723    29826.279    15.614361    13.522381    25.794715    5446.3823 
  971500      971.488    564.07618    23.186197   -438.25946   -415.07326    11603.553   -519.48102   -509.26081    35839.399    15.614363    13.522383    25.794698    5446.3802 
  972000      971.988    522.86147    21.492078   -436.55992   -415.06784    11763.033   -420.28997   -3437.2046    39146.594    15.614366    13.522385     25.79468    5446.3782 
  972500      972.488    561.77264     23.09151   -438.15503   -415.06352    10692.481   -23.437697   -2385.2199    34486.101    15.614368    13.522387    25.794663    5446.3762 
  973000      972.988    534.22466    21.959158   -437.01789   -415.05873    9367.7104    879.47288   -9155.7329    36379.391     15.61437    13.522389    25.794645    5446.3741 
  973500      973.488    556.13597    22.859817   -437.91313   -415.05331    9396.8388   -2140.2723   -3250.1752    33580.964    15.614373    13.522391    25.794628    5446.3721 
  974000      973.988    568.10917    23.351972   -438.40157   -415.04959    10496.173   -255.96506   -5535.7691    37280.252    15.614375    13.522393     25.79461    5446.3701 
  974500      974.488     587.8465    24.163269   -439.20887    -415.0456    8905.5617   -2469.6338   -5785.4969    34971.816    15.614378    13.522395    25.794593     5446.368 
  975000      974.988    542.56556    22.302009   -437.34066   -415.03866    8699.2302   -431.31548   -7733.3376    34262.344     15.61438    13.522397    25.794575     5446.366 
  975500      975.488    547.36608    22.499333   -437.53404   -415.03471    10201.067    366.93665   -4516.8951    34753.159    15.614382      13.5224    25.794558     5446.364 
  976000      975.988     564.6361    23.209212   -438.24111    -415.0319    8922.1019    307.96295   -3125.2733    29583.616    15.614385    13.522402     25.79454    5446.3619 
  976500      976.488    544.59807    22.385554    -437.4118   -415.02625    10953.315   -1549.1723   -897.86553    35306.984    15.614387    13.522404    25.794523    5446.3599 
  977000      976.988    547.90149    22.521341    -437.5445   -415.02316     11441.32   -1330.2841   -1.2729521    35655.516     15.61439    13.522406    25.794505    5446.3579 
  977500      977.488    586.93396     24.12576   -439.14508   -415.01932    10065.123   -4074.6591    371.04346    33898.983    15.614392    13.522408    25.794488    5446.3558 
  978000      977.988    584.83589    24.039519   -439.05546   -415.01594    6612.4498   -481.10574   -7097.5294    27415.985    15.614394     13.52241     25.79447    5446.3538 
  978500      978.488    548.99593    22.566327   -437.57734   -415.01102    11858.466   -2332.8937   -649.92115    38558.214    15.614397    13.522412    25.794453    5446.3518 
  979000      978.988    570.59775    23.454264   -438.45964   -415.00538    8489.6163    2027.1594   -3513.3723    26955.062    15.614399    13.522414    25.794435    5446.3497 
  979500      979.488    600.87287    24.698715   -439.69857   -414.99985    9108.3443   -1218.6702   -3859.5205    32403.224    15.614402    13.522416    25.794418    5446.3477 
  980000      979.988    579.30632    23.812228   -438.80787   -414.99564     7836.834    2758.6353   -10749.012    31500.879    15.614404    13.522418      25.7944    5446.3457 
  980500      980.488    577.27894    23.728893   -438.71959    -414.9907    9831.4418    3349.6046   -5678.1783    31822.899    15.614406     13.52242    25.794383    5446.3436 
  981000      980.988    591.54339    24.315229    -439.3005   -414.98527    8556.2038   -778.16527   -1763.7457    28210.522    15.614409    13.522422    25.794365    5446.3416 
  981500      981.488    560.61138    23.043777   -438.02264   -414.97886    7833.7718   -3510.2392   -4046.5016    31058.056    15.614411    13.522424    25.794348    5446.3396 
  982000      981.988    553.83162    22.765097   -437.73758   -414.97248    11021.627    488.07008   -3214.6905    35791.503    15.614414    13.522426     25.79433    5446.3376 
  982500      982.488    579.07141    23.802572   -438.76902   -414.96644    8931.5557   -2160.8873   -2878.6204    31834.175    15.614416    13.522428    25.794313    5446.3355 
  983000      982.988    606.78066    24.941553   -439.90184   -414.96029     10408.11   -2351.3026   -3452.3323    37027.965    15.614418     13.52243    25.794295    5446.3335 
  983500      983.488    593.07936    24.378365   -439.33342   -414.95506    9122.5194   -1964.5461   -5963.6657     35295.77    15.614421    13.522432    25.794278    5446.3315 
  984000      983.988    556.69897    22.882959   -437.83137   -414.94841    11259.403   -2761.6266    -86.73099    36626.565    15.614423    13.522434     25.79426    5446.3294 
  984500      984.488    550.74324     22.63815   -437.58357   -414.94542    11132.679    2503.4583   -4260.8816    35155.462    15.614426    13.522436    25.794243    5446.3274 
  985000      984.988    538.15177    22.120581   -437.05932   -414.93874    10774.986   -562.98998    2334.2177    30553.731    15.614428    13.522438    25.794225    5446.3254 
  985500      985.488    564.07786    23.186266   -438.12037    -414.9341    9666.0654    2449.7987   -3900.4936    30448.891     15.61443    13.522441    25.794208    5446.3233 
  986000      985.988    573.71762    23.582506   -438.51213   -414.92962    9687.7241   -1774.5529   -2027.2968    32865.022    15.614433    13.522443     25.79419    5446.3213 
  986500      986.488    542.72039    22.308373   -437.22997   -414.92159    10615.561   -1289.0911   -3775.1605    36910.933    15.614435    13.522445    25.794173    5446.3193 
  987000      986.988    589.69866    24.239402   -439.15416   -414.91476    8729.1071   -3424.2722   -4481.0287    34092.622    15.614438    13.522447    25.794155    5446.3172 
  987500      987.488    559.47045    22.996879   -437.90477   -414.90789    8912.9238    -4467.781   -1982.9428    33189.495     15.61444    13.522449    25.794138    5446.3152 
  988000      987.988    550.43403     22.62544   -437.52771   -414.90227    9026.4313   -1741.8478   -341.43897    29162.581    15.614442    13.522451     25.79412    5446.3132 
  988500      988.488    568.19735    23.355596   -438.25222   -414.89662    10506.668   -2646.3737   -4481.4333    38647.812    15.614445    13.522453    25.794103    5446.3111 
  989000      988.988    564.65058    23.209808   -438.09815   -414.88834    11088.731    724.07759   -793.94317     33336.06    15.614447    13.522455    25.794085    5446.3091 
  989500      989.488    567.30846    23.319059   -438.20148   -414.88242    9308.2379   -1514.4122     -6311.87    35750.996     15.61445    13.522457    25.794068    5446.3071 
  990000      989.988    590.97257    24.291765   -439.16834   -414.87657    10130.505    1937.9094   -3684.8371    32138.443    15.614452    13.522459     25.79405     5446.305 
  990500      990.488    564.04987    23.185116   -438.05173   -414.86661     8860.688   -4240.1027   -591.83839    31414.005    15.614454    13.522461    25.794033     5446.303 
  991000      990.988    532.22366    21.876908   -436.73703   -414.86013    9634.0474   -1854.2713   -3409.7246    34166.138    15.614457    13.522463    25.794015     5446.301 
  991500      991.488    559.55636    23.000411   -437.85372   -414.85331    9451.9974   -1224.1038   -3058.0049    32638.101    15.614459    13.522465    25.793998    5446.2989 
  992000      991.988    532.24247    21.877681   -436.72524   -414.84756    10876.641   -1072.2435   -195.89676    33898.062    15.614462    13.522467     25.79398    5446.2969 
  992500      992.488    568.13681    23.353108   -438.19449   -414.84138    9605.6683    975.86325   -2641.5518    30482.693    15.614464    13.522469    25.793963    5446.2949 
  993000      992.988    596.75665    24.529519   -439.36527   -414.83575    7707.8575   -6056.9043   -2477.9982    31658.475    15.614466    13.522471    25.793945    5446.2928 
  993500      993.488    551.83934    22.683205   -437.51288   -414.82967    9463.0815   -3621.8733   -3125.3661    35136.484    15.614469    13.522473    25.793928    5446.2908 
  994000      993.988    579.56008    23.822658   -438.64651   -414.82385    8938.0285    198.54176   -5411.8008    32027.345    15.614471    13.522475     25.79391    5446.2888 
  994500      994.488    623.53685    25.630311   -440.44805   -414.81774    8947.0707    1736.3511   -6124.5275    31229.389    15.614474    13.522477    25.793893    5446.2867 
  995000      994.988    561.33908    23.073689   -437.88471   -414.81102    9032.9929   -3670.2478   -2395.9732      33165.2    15.614476    13.522479    25.793875    5446.2847 
  995500      995.488    561.24341    23.069757   -437.87327   -414.80351    10574.045    -1359.069   -5494.1287    38575.334    15.614478    13.522482    25.793858    5446.2827 
  996000      995.988    560.68521    23.046812   -437.84294   -414.79613    10197.298    -1423.591   -2650.0667    34665.553    15.614481    13.522484     25.79384    5446.2806 
  996500      996.488    591.58036    24.316749   -439.10591   -414.78917    9045.1716    1013.8066   -3867.6109    29989.319    15.614483    13.522486    25.793823    5446.2786 
  997000      996.988    553.05912    22.733344   -437.51445   -414.78111    8763.8968   -2334.8419   -6241.2635    34867.796    15.614486    13.522488    25.793805    5446.2766 
  997500      997.488    563.42083    23.159259   -437.93633   -414.77707     10251.57   -1415.8347   -7925.7241     40096.27    15.614488     13.52249    25.793788    5446.2746 
  998000      997.988    581.61824    23.907258   -438.67727   -414.77001    7640.2356   -4439.2826   -6448.1591    33808.148     15.61449    13.522492     25.79377    5446.2725 
  998500      998.488     533.6813    21.936824   -436.69837   -414.76155    10022.923   -3128.7889   -3529.1673    36726.725    15.614493    13.522494    25.793753    5446.2705 
  999000      998.988    565.71878    23.253716   -438.00982    -414.7561    10228.256    1740.6455   -5056.2244    34000.346    15.614495    13.522496    25.793735    5446.2685 
  999500      999.488    561.81414    23.093216   -437.84022     -414.747     9051.366   -4260.4284   -481.08077    31895.607    15.614498    13.522498    25.793718    5446.2664 
 1000000      999.988    585.29016    24.058192   -438.80007   -414.74188    9192.8202    1649.0018   -7369.8005    33299.259      15.6145      13.5225      25.7937    5446.2644 
 1000012         1000     586.4467    24.105731   -438.84712   -414.74139    8792.0605    408.76196   -6885.0487    32852.468      15.6145      13.5225      25.7937    5446.2643 
Loop time of 965.441 on 28 procs for 1000000 steps with 319 atoms

Performance: 89.493 ns/day, 0.268 hours/ns, 1035.796 timesteps/s
87.6% CPU use with 28 MPI tasks x no OpenMP threads

MPI task timing breakdown:
Section |  min time  |  avg time  |  max time  |%varavg| %total
---------------------------------------------------------------
Pair    | 772.41     | 825.21     | 889.02     |  86.0 | 85.48
Neigh   | 0.017056   | 0.025406   | 0.03471    |   3.1 |  0.00
Comm    | 66.331     | 128.74     | 179.42     | 212.3 | 13.34
Output  | 0.099935   | 0.10216    | 0.12373    |   1.3 |  0.01
Modify  | 4.7798     | 6.2213     | 7.8586     |  34.6 |  0.64
Other   |            | 5.136      |            |       |  0.53

Nlocal:    11.3929 ave 16 max 6 min
Histogram: 1 2 3 1 2 5 5 2 2 5
Nghost:    668.357 ave 707 max 642 min
Histogram: 1 4 5 4 5 3 4 0 0 2
Neighs:    725.393 ave 1098 max 396 min
Histogram: 3 3 1 2 6 6 0 3 3 1
FullNghs:  1450.79 ave 2070 max 774 min
Histogram: 2 3 2 2 5 4 3 1 3 3

Total # of neighbors = 40622
Ave neighs/atom = 127.342
Neighbor list builds = 371
Dangerous builds = 0

write_restart   POSCAR_1x1x1.rest

#unfix    1
#undump   1
Total wall time: 0:16:05
