LAMMPS (7 Dec 2015)
#----------- Initialize Simulation ------------ restart01
#processors	2 2 2
units		metal
boundary	p p p     ## periodic boundary condition  on x y z axis ##
atom_style atomic
#atom_modify map array sort 0 0.0

read_data	POSCAR_1x1x1.lammps
  triclinic box = (0 0 0) to (15.4052 13.3413 27.3332) with tilt (-7.7025 0 0)
  2 by 2 by 7 MPI processor grid
  reading atoms ...
  319 atoms

#----------- Define Potential -----------------
pair_style meam
pair_coeff * * MgAlZn.library.meam Mg Al Zn MgAlZn.parameter.meam Mg Al Zn 	#1=Mg 2=Al 3=Zn	#atoms/mass

#----------- Neighbor List --------------------
neighbor 2.0 bin
neigh_modify delay 10 check yes

#--------------  Run a simulation (minimization) ---------------------------------------
minimize       1.0e-4   1.0e-6   100   1000          #結構優化的條件
WARNING: Resetting reneighboring criteria during minimization (../min.cpp:168)
Neighbor list info ...
  2 neighbor list requests
  update every 1 steps, delay 0 steps, check yes
  max neighbors/atom: 2000, page size: 100000
  master list distance cutoff = 8
  ghost atom cutoff = 8
  binsize = 4 -> bins = 6 4 7
Memory usage per processor = 8.65362 Mbytes
Step Temp E_pair E_mol TotEng Press 
       0            0   -434.01331            0   -434.01331   -3223.5159 
      16            0    -458.3062            0    -458.3062    -21770.41 
Loop time of 0.0253638 on 28 procs for 16 steps with 319 atoms

85.8% CPU use with 28 MPI tasks x no OpenMP threads

Minimization stats:
  Stopping criterion = energy tolerance
  Energy initial, next-to-last, final = 
        -434.013311675     -458.261092166     -458.306203604
  Force two-norm initial, final = 21.4723 0.814001
  Force max component initial, final = 3.00416 0.166855
  Final line search alpha, max atom move = 0.148799 0.0248279
  Iterations, force evaluations = 16 28

MPI task timing breakdown:
Section |  min time  |  avg time  |  max time  |%varavg| %total
---------------------------------------------------------------
Pair    | 0.019991   | 0.02161    | 0.022832   |   0.5 | 85.20
Neigh   | 0          | 0          | 0          |   0.0 |  0.00
Comm    | 0.0015444  | 0.0027398  | 0.0043386  |   1.4 | 10.80
Output  | 0          | 0          | 0          |   0.0 |  0.00
Modify  | 0          | 0          | 0          |   0.0 |  0.00
Other   |            | 0.001014   |            |       |  4.00

Nlocal:    11.3929 ave 15 max 5 min
Histogram: 1 0 2 0 2 6 2 4 4 7
Nghost:    642.679 ave 684 max 581 min
Histogram: 2 3 1 2 1 3 2 4 6 4
Neighs:    707 ave 959 max 288 min
Histogram: 1 1 1 1 4 4 4 3 6 3
FullNghs:  1414 ave 1889 max 612 min
Histogram: 1 2 0 2 6 0 6 2 7 2

Total # of neighbors = 39592
Ave neighs/atom = 124.113
Neighbor list builds = 0
Dangerous builds = 0
velocity all  create 600.0 4928459 #rot yes dist gaussian

#--------------  Run a simulation (Relaxation)  ----------------------------------------
fix  1  all  nvt   temp  600.0  600.0  100				#damping constant
#fix  2  all  npt   temp  393.0  393.0  50 iso 0.0 0.0 1000.0
fix  2  all deform 1 x final 0 15.4099 y final 0 13.3454 z final 0 27.2983 xy final -7.70485 units lattice
#fix  3  all  npt   temp  393.0  393.0  50 z 0.0 0.0 1000.0

#variable b equal 1
#fix 2 all efield  0.0  0.0  v_b
#compute pot all pe/atom


#----------- Output --------------------------
thermo	 500
timestep  0.001		#1.0 fs
thermo_style	custom step time temp ke pe etotal press pxx pyy pzz lx ly lz vol

dump 1 all custom 10000 dump.eq id type x y z
dump_modify 1 sort  id

run        1000000	#1000 ps
Neighbor list info ...
  2 neighbor list requests
  update every 1 steps, delay 10 steps, check yes
  max neighbors/atom: 2000, page size: 100000
  master list distance cutoff = 8
  ghost atom cutoff = 8
  binsize = 4 -> bins = 6 4 7
Memory usage per processor = 7.55956 Mbytes
Step Time Temp KinEng PotEng TotEng Press Pxx Pyy Pzz Lx Ly Lz Volume 
      16            0          600    24.662836    -458.3062   -433.64337    -17081.13   -12048.686   -8781.5258   -30413.179      15.4052      13.3413      27.3332    5617.6667 
     500        0.484    321.61149    13.219752   -446.85929   -433.63954   -10207.504   -8524.5397   -3595.6035    -18502.37    15.405202    13.341302    27.333183    5617.6649 
    1000        0.984     300.2985    12.343688   -445.98202   -433.63833   -10148.109   -8083.0674   -1920.5505   -20440.709    15.405205    13.341304    27.333166     5617.663 
    1500        1.484    312.12142    12.829665   -446.46791   -433.63824   -9460.7595   -6747.5725   -2330.4418   -19304.264    15.405207    13.341306    27.333148    5617.6612 
    2000        1.984    301.46495    12.391634   -446.02847   -433.63684   -10571.173   -6818.6603   -3170.0312   -21724.827    15.405209    13.341308    27.333131    5617.6593 
    2500        2.484    310.64481     12.76897   -446.40455   -433.63558   -10918.241    -5148.569   -3676.5151    -23929.64    15.405212     13.34131    27.333113    5617.6574 
    3000        2.984    309.01191     12.70185     -446.336   -433.63415   -9993.1357   -6371.7537    -3108.717   -20498.936    15.405214    13.341312    27.333096    5617.6556 
    3500        3.484     326.0677    13.402924   -447.03494   -433.63202   -10077.023     -6552.61   -5818.8486   -17859.612    15.405216    13.341314    27.333078    5617.6537 
    4000        3.984    310.08351    12.745898   -446.37562   -433.62972   -9996.4559   -6340.9177   -5166.8378   -18481.612    15.405219    13.341316    27.333061    5617.6518 
    4500        4.484    303.57596    12.478407   -446.10554   -433.62714   -9826.8435    -5029.365   -4739.4135   -19711.752    15.405221    13.341318    27.333044      5617.65 
    5000        4.984    301.91305    12.410053   -446.03399   -433.62394   -11322.502   -6720.2588   -4562.3198   -22684.929    15.405223     13.34132    27.333026    5617.6481 
    5500        5.484    316.79573    13.021802    -446.6431    -433.6213   -10363.692   -8165.0454   -3266.5676   -19659.462    15.405226    13.341322    27.333009    5617.6463 
    6000        5.984    287.71456    11.826428   -445.44359   -433.61716   -9719.4536    -5807.517   -4865.5394   -18485.304    15.405228    13.341325    27.332991    5617.6444 
    6500        6.484    313.30216      12.8782   -446.49233   -433.61413   -10361.473   -5500.2869   -4036.6831   -21547.449     15.40523    13.341327    27.332974    5617.6425 
    7000        6.984    320.94256    13.192256   -446.80227   -433.61002   -10855.617   -7257.2366   -3479.8384   -21829.775    15.405233    13.341329    27.332956    5617.6407 
    7500        7.484    307.07617    12.622282   -446.22727   -433.60499   -11596.441   -7207.6512   -6659.3551   -20922.317    15.405235    13.341331    27.332939    5617.6388 
    8000        7.984    316.87095    13.024893   -446.62533   -433.60044   -10759.972   -4922.9877   -5186.1985    -22170.73    15.405238    13.341333    27.332921    5617.6369 
    8500        8.484    311.59367    12.807972   -446.40336   -433.59539   -10893.029   -6739.9065   -4692.2691    -21246.91     15.40524    13.341335    27.332904    5617.6351 
    9000        8.984    302.23974    12.423482   -446.01337   -433.58989   -10093.758   -7710.4802    -3117.159   -19453.634    15.405242    13.341337    27.332886    5617.6332 
    9500        9.484    304.92945    12.534042   -446.11831   -433.58427   -10457.978   -5672.3001   -3345.7018   -22355.933    15.405245    13.341339    27.332869    5617.6313 
   10000        9.984    313.06805    12.868576   -446.44692   -433.57835   -10623.608   -6701.0263   -2937.7493   -22232.047    15.405247    13.341341    27.332852    5617.6295 
   10500       10.484    311.84512    12.818308   -446.39044   -433.57214   -10717.564   -9016.6539   -4117.4942   -19018.543    15.405249    13.341343    27.332834    5617.6276 
   11000       10.984    301.38938    12.388528   -445.95381   -433.56529   -10668.777    -9661.449   -3272.0105   -19072.872    15.405252    13.341345    27.332817    5617.6257 
   11500       11.484    310.78737     12.77483    -446.3332   -433.55837   -10811.847    -7366.976   -2518.4373   -22550.128    15.405254    13.341347    27.332799    5617.6239 
   12000       11.984    301.98905    12.413177   -445.96454   -433.55136   -10270.384   -7328.8814   -2693.6822   -20788.588    15.405256    13.341349    27.332782     5617.622 
   12500       12.484    302.72398    12.443386   -445.98716   -433.54377    -9400.028   -7239.5712   -2367.2448   -18593.268    15.405259    13.341351    27.332764    5617.6201 
   13000       12.984     308.5787    12.684043   -446.21985    -433.5358   -10549.946   -4702.7532   -5640.0883   -21306.998    15.405261    13.341353    27.332747    5617.6183 
   13500       13.484    303.35838    12.469463    -445.9971   -433.52763   -10206.159   -7194.5105   -2741.1918   -20682.774    15.405263    13.341355    27.332729    5617.6164 
   14000       13.984    330.06005    13.567028   -447.08667   -433.51964   -10119.622   -6607.7678    -4129.268    -19621.83    15.405266    13.341357    27.332712    5617.6145 
   14500       14.484    311.57445    12.807182   -446.31764   -433.51046    -9479.612   -6937.9694   -3983.1622   -17517.704    15.405268    13.341359    27.332695    5617.6127 
   15000       14.984    317.09953    13.034289   -446.53558   -433.50129   -10656.747   -8804.5582   -2198.6575   -20967.024     15.40527    13.341361    27.332677    5617.6108 
   15500       15.484    313.85554    12.900946   -446.39276   -433.49181   -11373.875   -8747.4394   -5035.4069   -20338.778    15.405273    13.341363     27.33266    5617.6089 
   16000       15.984    317.12779    13.035451   -446.51777   -433.48232   -10371.314   -9093.1099   -4459.7692   -17561.064    15.405275    13.341366    27.332642    5617.6071 
   16500       16.484    307.66004    12.646282   -446.11827   -433.47199   -10450.992   -4538.1745    -3989.966   -22824.835    15.405277    13.341368    27.332625    5617.6052 
   17000       16.984    303.37045    12.469959   -445.93246    -433.4625   -9915.5374   -5022.2237   -6656.2935   -18068.095     15.40528     13.34137    27.332607    5617.6033 
   17500       17.484    319.97952     13.15267   -446.60419   -433.45152    -10430.47   -7458.4813   -4457.3776    -19375.55    15.405282    13.341372     27.33259    5617.6015 
   18000       17.984    309.06759    12.704139   -446.14461   -433.44047   -10636.219   -7114.0921   -4204.0557    -20590.51    15.405285    13.341374    27.332572    5617.5996 
   18500       18.484    295.20038    12.134131   -445.56255   -433.42842   -9832.8116   -5120.4758   -980.23397   -23397.725    15.405287    13.341376    27.332555    5617.5977 
   19000       18.984    320.55796    13.176447    -446.5945   -433.41806   -11253.223   -8045.5819   -4970.9807   -20743.108    15.405289    13.341378    27.332537    5617.5959 
   19500       19.484    333.86725    13.723522   -447.12995   -433.40643   -10155.113   -6345.9521   -3680.8942   -20438.493    15.405292     13.34138     27.33252     5617.594 
   20000       19.984    299.85858    12.325605   -445.71959   -433.39398   -9643.5712   -6869.3706   -5080.0778   -16981.265    15.405294    13.341382    27.332503    5617.5921 
   20500       20.484    327.14033    13.447014   -446.82956   -433.38255     -10327.4   -6270.7733   -4540.0929   -20171.334    15.405296    13.341384    27.332485    5617.5903 
   21000       20.984    322.15794    13.242214   -446.61209   -433.36987   -9754.7187   -4197.2274    -4440.822   -20626.107    15.405299    13.341386    27.332468    5617.5884 
   21500       21.484    304.02604    12.496907    -445.8534   -433.35649   -10335.394     -7920.02   -3297.2249   -19788.938    15.405301    13.341388     27.33245    5617.5865 
   22000       21.984    314.55752    12.929801   -446.27334   -433.34354   -11081.932   -8892.9846   -4440.6228   -19912.188    15.405303     13.34139    27.332433    5617.5847 
   22500       22.484    320.12772    13.158762   -446.48882   -433.33006   -10550.671   -7648.0024   -2267.3034   -21736.707    15.405306    13.341392    27.332415    5617.5828 
   23000       22.984    299.86067    12.325691   -445.64136   -433.31567   -10106.335   -6970.3071   -4183.8432   -19164.854    15.405308    13.341394    27.332398    5617.5809 
   23500       23.484    308.41359    12.677256   -445.97863   -433.30137   -10662.972   -7355.1349   -4348.7033   -20285.079     15.40531    13.341396     27.33238    5617.5791 
   24000       23.984    298.95674    12.288535   -445.57557   -433.28703   -8780.3996   -5278.2922    -3186.133   -17876.774    15.405313    13.341398    27.332363    5617.5772 
   24500       24.484    313.88171    12.902022   -446.17477   -433.27275   -9593.6778   -7098.3471   -4633.6504   -17049.036    15.405315      13.3414    27.332346    5617.5753 
   25000       24.984    309.68558    12.729541   -445.98815   -433.25861   -10681.141   -5733.4482   -5866.0479   -20443.927    15.405317    13.341402    27.332328    5617.5735 
   25500       25.484    313.40316    12.882351    -446.1252   -433.24285   -10879.563    -10493.81   -2232.5604   -19912.318     15.40532    13.341404    27.332311    5617.5716 
   26000       25.984    328.38357    13.498117   -446.72593   -433.22782   -10487.773   -7223.3418   -4736.1965   -19503.782    15.405322    13.341407    27.332293    5617.5697 
   26500       26.484    321.57187    13.218124      -446.43   -433.21188   -10301.926   -6770.8939   -2165.2786   -21969.605    15.405324    13.341409    27.332276    5617.5679 
   27000       26.984     334.4252    13.746456   -446.94289   -433.19644   -10777.688   -7990.3224    -2870.943   -21471.798    15.405327    13.341411    27.332258     5617.566 
   27500       27.484    304.35351    12.510368   -445.69033   -433.17996   -8962.9025   -7010.2415   -2296.7262    -17581.74    15.405329    13.341413    27.332241    5617.5641 
   28000       27.984    319.23919    13.122239   -446.28633   -433.16409     -10719.6   -7234.7906    -4724.229   -20199.779    15.405332    13.341415    27.332223    5617.5623 
   28500       28.484    311.26085    12.794292   -445.94193   -433.14764   -10416.469   -7065.7109   -6499.7859    -17683.91    15.405334    13.341417    27.332206    5617.5604 
   29000       28.984    298.66587    12.276579   -445.40738    -433.1308    -9128.697   -6155.7996   -4734.0121   -16496.279    15.405336    13.341419    27.332188    5617.5585 
   29500       29.484    312.49133     12.84487   -445.95902   -433.11415   -10763.617   -8573.2216   -5640.7002   -18076.928    15.405339    13.341421    27.332171    5617.5567 
   30000       29.984    327.33577    13.455047   -446.55231   -433.09727   -9866.5621   -7387.0542   -3645.5802   -18567.052    15.405341    13.341423    27.332154    5617.5548 
   30500       30.484    304.68682    12.524068   -445.60368   -433.07961   -10399.501   -8465.7234   -3769.3889    -18963.39    15.405343    13.341425    27.332136    5617.5529 
   31000       30.984    317.95504    13.069455   -446.13198   -433.06253   -10639.537   -6009.9296   -2835.6937   -23072.987    15.405346    13.341427    27.332119    5617.5511 
   31500       31.484    305.72466    12.566728   -445.61142   -433.04469   -10217.603   -5379.2184    -6295.116   -18978.475    15.405348    13.341429    27.332101    5617.5492 
   32000       31.984    323.04933    13.278854     -446.306   -433.02715   -10627.723   -6573.0303   -5187.1943   -20122.944     15.40535    13.341431    27.332084    5617.5473 
   32500       32.484     326.8451    13.434878   -446.44424   -433.00936   -9319.7425    -8376.734   -5073.6802   -14508.813    15.405353    13.341433    27.332066    5617.5455 
   33000       32.984    330.90443    13.601736   -446.59303   -432.99129   -10509.415   -7194.2023   -2438.8677   -21895.175    15.405355    13.341435    27.332049    5617.5436 
   33500       33.484     313.5881    12.889953    -445.8622   -432.97225   -11374.431   -7659.4348   -5658.6289   -20805.228    15.405357    13.341437    27.332031    5617.5417 
   34000       33.984    298.93782    12.287757   -445.24189   -432.95413   -9373.8915   -5467.6194   -2872.2803   -19781.775     15.40536    13.341439    27.332014    5617.5399 
   34500       34.484     310.4609     12.76141   -445.69743   -432.93602   -9622.2908   -6258.5934   -4465.8424   -18142.437    15.405362    13.341441    27.331997     5617.538 
   35000       34.984    320.25142    13.163847    -446.0814   -432.91755   -10710.583     -4989.36   -5772.9012   -21369.487    15.405364    13.341443    27.331979    5617.5361 
   35500       35.484    322.84335    13.270387   -446.16893   -432.89854   -9784.4379   -6248.8377   -2938.6207   -20165.855    15.405367    13.341445    27.331962    5617.5343 
   36000       35.984    322.57378    13.259307   -446.13961    -432.8803   -9670.3068   -4561.7268   -3771.0516   -20678.142    15.405369    13.341448    27.331944    5617.5324 
   36500       36.484    314.95722     12.94623   -445.80784   -432.86161   -9758.2463   -4705.1741   -7333.4583   -17236.107    15.405371     13.34145    27.331927    5617.5305 
   37000       36.984    308.70986    12.689434   -445.53219   -432.84275   -9294.3301   -6269.3575   -3560.4431    -18053.19    15.405374    13.341452    27.331909    5617.5287 
   37500       37.484    300.82105    12.365167   -445.18899   -432.82382   -9527.0039   -3052.1296   -5619.0851   -19909.797    15.405376    13.341454    27.331892    5617.5268 
   38000       37.984    319.51336    13.133509   -445.93872   -432.80521    -9827.699   -5628.7934   -3701.5509   -20152.753    15.405379    13.341456    27.331874    5617.5249 
   38500       38.484    323.06902    13.279663   -446.06623   -432.78657   -10007.005   -7397.0623   -2859.4263   -19764.528    15.405381    13.341458    27.331857    5617.5231 
   39000       38.984    328.04557    13.484223   -446.25165   -432.76743   -10955.244   -9338.3692   -4559.4776   -18967.885    15.405383     13.34146    27.331839    5617.5212 
   39500       39.484    297.15687    12.214552   -444.96252   -432.74797   -9349.3584     -6430.83   -1294.6975   -20322.548    15.405386    13.341462    27.331822    5617.5193 
   40000       39.984      305.511    12.557946   -445.28725    -432.7293    -9498.695   -4657.5596    -4300.472   -19538.054    15.405388    13.341464    27.331805    5617.5175 
   40500       40.484    297.99262    12.248905   -444.95922   -432.71032   -8593.6093   -4238.8385   -5373.2566   -16168.733     15.40539    13.341466    27.331787    5617.5156 
   41000       40.984    301.23056       12.382   -445.07319   -432.69119   -10154.491   -5289.6502   -6427.0916   -18746.733    15.405393    13.341468     27.33177    5617.5137 
   41500       41.484    333.27786    13.699295    -446.3719    -432.6726   -10544.795   -7106.5852   -3939.1071   -20588.692    15.405395     13.34147    27.331752    5617.5119 
   42000       41.984    319.54069    13.134633   -445.78857   -432.65393   -10137.851   -6810.1656   -1885.1327   -21718.255    15.405397    13.341472    27.331735      5617.51 
   42500       42.484    300.47205    12.350821   -444.98506   -432.63424   -9933.4225   -5994.4749   -3523.6616   -20282.131      15.4054    13.341474    27.331717    5617.5081 
   43000       42.984      313.467    12.884975   -445.50068    -432.6157   -9923.3618   -5936.3455   -2855.5738   -20978.166    15.405402    13.341476      27.3317    5617.5063 
   43500       43.484    322.42878    13.253347   -445.85102   -432.59767   -9439.1499   -6844.9153   -2348.6194   -19123.915    15.405404    13.341478    27.331682    5617.5044 
   44000       43.984    351.45561    14.446486   -447.02533   -432.57884   -10751.773   -7543.5993   -4015.9423   -20695.778    15.405407     13.34148    27.331665    5617.5025 
   44500       44.484    312.59959    12.849321   -445.40869   -432.55937   -10496.325   -5632.9379    -3294.476   -22561.562    15.405409    13.341482    27.331648    5617.5007 
   45000       44.984    312.67766     12.85253   -445.39333    -432.5408   -10953.031   -6965.3511   -4491.9102   -21401.831    15.405411    13.341484     27.33163    5617.4988 
   45500       45.484    312.66561    12.852034   -445.37458   -432.52255    -9365.786   -6046.3342   -1623.1909   -20427.833    15.405414    13.341486    27.331613    5617.4969 
   46000       45.984    331.94809    13.644636   -446.14857   -432.50393   -10061.504   -5526.6484    -5293.027   -19364.836    15.405416    13.341489    27.331595    5617.4951 
   46500       46.484    309.80159     12.73431   -445.21978   -432.48547   -9055.0545   -5580.7601   -1148.9648   -20435.439    15.405418    13.341491    27.331578    5617.4932 
   47000       46.984    304.59125     12.52014   -444.98705   -432.46691   -9238.5412   -2911.8017    -5202.207   -19601.615    15.405421    13.341493     27.33156    5617.4913 
   47500       47.484    337.60717     13.87725   -446.32648   -432.44923   -9731.9676   -5375.6004   -4570.9786   -19249.324    15.405423    13.341495    27.331543    5617.4895 
   48000       47.984    322.13458    13.241254   -445.67207   -432.43082   -10917.871   -11908.433   -400.26492   -20444.915    15.405426    13.341497    27.331525    5617.4876 
   48500       48.484    321.94237    13.233353   -445.64613   -432.41278   -10097.912   -8668.6261   -623.07774   -21002.032    15.405428    13.341499    27.331508    5617.4857 
   49000       48.984    314.75805    12.938043   -445.33258   -432.39454   -9836.2567   -8134.9664   -2316.9144   -19056.889     15.40543    13.341501     27.33149    5617.4839 
   49500       49.484    330.49996     13.58511   -445.96207   -432.37696   -9518.6696   -6710.1647   -2389.5061   -19456.338    15.405433    13.341503    27.331473     5617.482 
   50000       49.984    333.24287    13.697857   -446.05688   -432.35902    -10882.73   -10318.404    -4632.968   -17696.818    15.405435    13.341505    27.331456    5617.4801 
   50500       50.484    308.48956    12.680379    -445.0217   -432.34132    -10075.74   -6756.9499   -2141.2598   -21329.012    15.405437    13.341507    27.331438    5617.4783 
   51000       50.984    329.02522    13.524492   -445.84826   -432.32377    -10060.61    -3846.241   -5712.2479   -20623.341     15.40544    13.341509    27.331421    5617.4764 
   51500       51.484    342.87059    14.093602   -446.40012   -432.30652   -9866.8922   -6772.4336   -2622.7202   -20205.523    15.405442    13.341511    27.331403    5617.4745 
   52000       51.984    338.33058    13.906986   -446.19591   -432.28893   -9219.5441   -5726.9768   -2098.4121   -19833.244    15.405444    13.341513    27.331386    5617.4727 
   52500       52.484    321.42972     13.21228   -445.48396   -432.27168   -9529.7375   -6242.2681   -4450.1823   -17896.762    15.405447    13.341515    27.331368    5617.4708 
   53000       52.984    337.56317    13.875442   -446.13018   -432.25474   -9751.8936   -6111.4874    -4470.004   -18674.189    15.405449    13.341517    27.331351    5617.4689 
   53500       53.484    337.29516    13.864425   -446.10197   -432.23754   -10007.667    -7891.535   -4441.5722   -17689.894    15.405451    13.341519    27.331333    5617.4671 
   54000       53.984    324.90361    13.355074   -445.57548    -432.2204   -9758.4215   -6333.4496   -3517.9152     -19423.9    15.405454    13.341521    27.331316    5617.4652 
   54500       54.484    329.12912    13.528762   -445.73261   -432.20385    -9924.522   -6527.3306   -6322.3831   -16923.852    15.405456    13.341523    27.331299    5617.4633 
   55000       54.984    340.41466    13.992651   -446.17946   -432.18681   -9842.1257   -5822.8977   -2240.7812   -21462.698    15.405458    13.341525    27.331281    5617.4615 
   55500       55.484    317.74525    13.060831   -445.23089   -432.17006   -9549.8407   -7344.7597   -3813.1927    -17491.57    15.405461    13.341527    27.331264    5617.4596 
   56000       55.984    324.37211    13.333227   -445.48635   -432.15312   -10118.532   -7021.2189    -2505.424   -20828.953    15.405463     13.34153    27.331246    5617.4577 
   56500       56.484    338.60683    13.918341   -446.05486   -432.13652   -9920.3019   -5225.0543   -4342.6611    -20193.19    15.405465    13.341532    27.331229    5617.4559 
   57000       56.984     334.1856    13.736608   -445.85681    -432.1202   -10421.001   -5511.2147   -4916.7005   -20835.088    15.405468    13.341534    27.331211     5617.454 
   57500       57.484     319.5971    13.136951   -445.24088   -432.10393   -9826.1072   -7317.7398   -3605.1858   -18555.396     15.40547    13.341536    27.331194    5617.4521 
   58000       57.984    331.78574    13.637962   -445.72583   -432.08786   -10012.945   -7315.0036   -2700.6845   -20023.148    15.405473    13.341538    27.331176    5617.4503 
   58500       58.484    345.48373    14.201014   -446.27263   -432.07161   -9891.5427   -7315.4169   -4710.1843   -17649.027    15.405475     13.34154    27.331159    5617.4484 
   59000       58.984    336.00471    13.811381    -445.8665   -432.05512    -8757.576   -7282.7611   -3200.9852   -15788.982    15.405477    13.341542    27.331141    5617.4465 
   59500       59.484    336.04858    13.813185   -445.85196   -432.03878   -10139.492   -5728.8767   -5004.3357   -19685.264     15.40548    13.341544    27.331124    5617.4447 
   60000       59.984    333.41585    13.704967   -445.72828   -432.02331   -9397.5413   -5834.8705   -3067.3791   -19290.374    15.405482    13.341546    27.331107    5617.4428 
   60500       60.484    322.84199    13.270331    -445.2774   -432.00707   -8219.5993    -4194.268   -909.70151   -19554.828    15.405484    13.341548    27.331089    5617.4409 
   61000       60.984    316.43299    13.006891   -444.99764   -431.99075   -9590.2202   -6483.1266   -3563.1598   -18724.374    15.405487     13.34155    27.331072    5617.4391 
   61500       61.484      329.709    13.552598    -445.5275    -431.9749   -9349.2164   -5126.3502   -3272.4689    -19648.83    15.405489    13.341552    27.331054    5617.4372 
   62000       61.984    341.85971     14.05205   -446.01112   -431.95907   -10411.232   -9972.4976   -4261.5555   -16999.643    15.405491    13.341554    27.331037    5617.4353 
   62500       62.484    351.55587    14.450608   -446.39409   -431.94349   -10083.572   -6351.9606   -5870.2464    -18028.51    15.405494    13.341556    27.331019    5617.4335 
   63000       62.984    331.88391    13.641997   -445.56917   -431.92717   -10573.331   -9000.9975   -3504.3181   -19214.677    15.405496    13.341558    27.331002    5617.4316 
   63500       63.484    327.65216    13.468052   -445.37965    -431.9116   -10350.531   -6837.9018   -5495.5823    -18718.11    15.405498     13.34156    27.330984    5617.4297 
   64000       63.984    327.51628    13.462467   -445.35851   -431.89605   -9122.8484   -5041.2188   -3700.8331   -18626.493    15.405501    13.341562    27.330967    5617.4279 
   64500       64.484    348.67764    14.332299   -446.21292   -431.88062   -10777.838   -7166.9462   -4465.9747   -20700.594    15.405503    13.341564     27.33095     5617.426 
   65000       64.984    330.63594      13.5907   -445.45538   -431.86468   -9562.3307   -6525.6688   -3674.7805   -18486.543    15.405505    13.341566    27.330932    5617.4241 
   65500       65.484    334.92708    13.767086   -445.61625   -431.84916    -9002.624   -4152.6958   -5822.2366    -17032.94    15.405508    13.341568    27.330915    5617.4223 
   66000       65.984     337.4815    13.872085   -445.70558   -431.83349   -10125.293   -7345.8002   -3467.7975   -19562.281     15.40551    13.341571    27.330897    5617.4204 
   66500       66.484    344.73421    14.170205    -445.9882     -431.818   -9357.5519   -3475.9386   -4096.1337   -20500.583    15.405512    13.341573     27.33088    5617.4185 
   67000       66.984    333.16929    13.694833   -445.49726   -431.80243    -9859.193   -6828.0649   -4038.2501   -18711.264    15.405515    13.341575    27.330862    5617.4167 
   67500       67.484    339.29491    13.946624    -445.7333   -431.78668   -9847.3226   -7058.5263   -1369.1123   -21114.329    15.405517    13.341577    27.330845    5617.4148 
   68000       67.984    324.30513    13.330474    -445.1013   -431.77083   -9282.1373   -6512.0505   -2647.6066   -18686.755     15.40552    13.341579    27.330827    5617.4129 
   68500       68.484    341.49712    14.037146    -445.7921   -431.75496    -9652.049   -7145.7441   -1720.2629    -20090.14    15.405522    13.341581     27.33081    5617.4111 
   69000       68.984    335.43485    13.787958   -445.52712   -431.73916   -9704.6848   -5982.3486   -2837.0651   -20294.641    15.405524    13.341583    27.330792    5617.4092 
   69500       69.484    332.57332    13.670335    -445.3939   -431.72356   -10125.214   -5416.6732    -5539.379   -19419.589    15.405527    13.341585    27.330775    5617.4074 
   70000       69.984    330.58024     13.58841    -445.2961   -431.70769   -9204.9004   -3731.1751   -1415.5688   -22467.957    15.405529    13.341587    27.330758    5617.4055 
   70500       70.484    323.98922    13.317488    -445.0097   -431.69221   -9105.5475   -5334.3855   -4735.5763   -17246.681    15.405531    13.341589     27.33074    5617.4036 
   71000       70.984    315.00277    12.948103   -444.62403   -431.67593   -9334.7416   -5618.3926   -2795.9347   -19589.897    15.405534    13.341591    27.330723    5617.4018 
   71500       71.484    327.85894    13.476552   -445.13668   -431.66013   -9264.2927   -4922.3968   -3356.3273   -19514.154    15.405536    13.341593    27.330705    5617.3999 
   72000       71.984    345.51041    14.202111   -445.84705   -431.64494   -10257.195   -7953.4526   -3465.7842   -19352.349    15.405538    13.341595    27.330688     5617.398 
   72500       72.484    325.78356    13.391244   -445.01992   -431.62867   -9621.0818   -7055.6863   -3034.4579   -18773.101    15.405541    13.341597     27.33067    5617.3962 
   73000       72.984    324.24705    13.328086   -444.94101   -431.61292   -8464.6737   -4065.0417   -3720.1966   -17608.783    15.405543    13.341599    27.330653    5617.3943 
   73500       73.484     328.1805    13.489769   -445.08695   -431.59718   -9281.0893   -7855.1768   -4017.8277   -15970.263    15.405545    13.341601    27.330635    5617.3924 
   74000       73.984    334.08003    13.732268    -445.3137   -431.58143   -9483.7921   -5654.2386   -3645.5776    -19151.56    15.405548    13.341603    27.330618    5617.3906 
   74500       74.484    348.90173     14.34151   -445.90697   -431.56546   -9816.1837   -6753.9987   -1649.2531   -21045.299     15.40555    13.341605    27.330601    5617.3887 
   75000       74.984    344.29181    14.152021   -445.70143   -431.54941   -9607.5956   -6061.1101   -2945.2802   -19816.397    15.405552    13.341607    27.330583    5617.3868 
   75500       75.484    345.35631    14.195776   -445.72955   -431.53377   -8777.4171   -5493.4735   -637.58417   -20201.194    15.405555    13.341609    27.330566     5617.385 
   76000       75.984    307.52391    12.640686    -444.1573   -431.51661   -9155.1174   -7103.0056   -2601.5606   -17760.786    15.405557    13.341612    27.330548    5617.3831 
   76500       76.484    351.84294    14.462408    -445.9636   -431.50119   -10299.539   -8630.3919    -1702.071   -20566.155    15.405559    13.341614    27.330531    5617.3812 
   77000       76.984    332.57017    13.670206   -445.15429   -431.48408   -9184.8986      -6212.6    -3590.959   -17751.137    15.405562    13.341616    27.330513    5617.3794 
   77500       77.484    333.17665    13.695135     -445.163   -431.46787    -9617.899   -5562.3768   -5422.8259   -17868.494    15.405564    13.341618    27.330496    5617.3775 
   78000       77.984    333.46513    13.706993   -445.15816   -431.45116   -9459.2366    -4668.796   -2859.0341    -20849.88    15.405567     13.34162    27.330478    5617.3756 
   78500       78.484    345.16094    14.187746   -445.62291   -431.43517    -10400.05   -7912.5708    -4941.706   -18345.874    15.405569    13.341622    27.330461    5617.3738 
   79000       78.984    332.18504    13.654375   -445.07294   -431.41856   -9458.8962   -6845.3283   -4602.9503    -16928.41    15.405571    13.341624    27.330443    5617.3719 
   79500       79.484    345.66335    14.208397   -445.61063   -431.40223   -10499.735   -6095.7441   -5594.1157   -19809.346    15.405574    13.341626    27.330426      5617.37 
   80000       79.984    365.25772    15.013819   -446.39993   -431.38611   -11089.068   -7308.9377   -2899.7971   -23058.469    15.405576    13.341628    27.330409    5617.3682 
   80500       80.484    341.79194    14.049264   -445.41816   -431.36889   -10434.101   -8150.9157   -1491.1006   -21660.288    15.405578     13.34163    27.330391    5617.3663 
   81000       80.984    340.29531    13.987745   -445.33956   -431.35181   -9628.5853   -7412.8599   -2072.1478   -19400.748    15.405581    13.341632    27.330374    5617.3644 
   81500       81.484    330.09067    13.568287   -444.90284   -431.33455   -8833.8397   -6907.6318   -2459.7206   -17134.167    15.405583    13.341634    27.330356    5617.3626 
   82000       81.984    348.17027    14.311443   -445.62945   -431.31801   -10313.503   -8003.2657    -4196.708   -18740.536    15.405585    13.341636    27.330339    5617.3607 
   82500       82.484    335.80324      13.8031   -445.10398   -431.30088   -9277.7571   -4757.5455   -3076.0255     -19999.7    15.405588    13.341638    27.330321    5617.3588 
   83000       82.984    329.54255    13.545756   -444.82934   -431.28358   -9020.4396   -4825.0046   -3285.3195   -18950.995     15.40559     13.34164    27.330304     5617.357 
   83500       83.484    338.99884    13.934455   -445.20096    -431.2665   -10121.597   -8215.0627   -6771.9695   -15377.758    15.405592    13.341642    27.330286    5617.3551 
   84000       83.984    325.48457    13.378954   -444.62762   -431.24866   -9425.6339   -6631.2088   -5437.0442   -16208.649    15.405595    13.341644    27.330269    5617.3532 
   84500       84.484    342.53993     14.08001   -445.31137   -431.23136   -10103.468   -5573.6717   -4769.1227   -19967.609    15.405597    13.341646    27.330252    5617.3514 
   85000       84.984    346.29456    14.234343   -445.44842   -431.21408   -9977.7723   -5699.1184   -6721.4952   -17512.703    15.405599    13.341648    27.330234    5617.3495 
   85500       85.484    346.25757    14.232823   -445.42991   -431.19708   -9511.2843   -7062.0229    -3039.949   -18431.881    15.405602     13.34165    27.330217    5617.3476 
   86000       85.984    342.87586    14.093818   -445.27276   -431.17895   -9262.6141   -7151.4932   -2025.0051   -18611.344    15.405604    13.341653    27.330199    5617.3458 
   86500       86.484    351.13803    14.433432    -445.5951   -431.16166    -9603.269   -5161.3704   -3360.2086   -20288.228    15.405606    13.341655    27.330182    5617.3439 
   87000       86.984    339.23346    13.944099    -445.0874   -431.14331   -11085.264   -8627.1994   -2596.1021    -22032.49    15.405609    13.341657    27.330164     5617.342 
   87500       87.484     333.3436    13.701997   -444.82742   -431.12542   -9118.1251   -4665.8339   -2610.7184   -20077.823    15.405611    13.341659    27.330147    5617.3402 
   88000       87.984    343.63993    14.125225   -445.23295   -431.10773   -9163.2129   -5404.6062   -1416.6394   -20668.393    15.405614    13.341661    27.330129    5617.3383 
   88500       88.484    340.32914    13.989136   -445.07841   -431.08927   -9561.8135   -4772.2066   -2092.9916   -21820.242    15.405616    13.341663    27.330112    5617.3364 
   89000       88.984    350.58803    14.410825   -445.48191   -431.07109   -9483.9697   -6266.6647   -2185.8581   -19999.386    15.405618    13.341665    27.330094    5617.3346 
   89500       89.484    342.85628    14.093013   -445.14613   -431.05312   -9642.1803   -3613.9905   -5280.2547   -20032.296    15.405621    13.341667    27.330077    5617.3327 
   90000       89.984    348.22674    14.313765    -445.3488   -431.03503   -9203.1658   -5183.0713    -3430.451   -18995.975    15.405623    13.341669     27.33006    5617.3308 
   90500       90.484    348.31807    14.317519   -445.33343   -431.01591   -8933.8892   -4987.4905   -2937.1768       -18877    15.405625    13.341671    27.330042     5617.329 
   91000       90.984    362.57289    14.903459   -445.90133   -430.99787   -10425.848   -5585.0858   -5686.3888   -20006.068    15.405628    13.341673    27.330025    5617.3271 
   91500       91.484    341.22068    14.025783   -445.00481   -430.97902   -8617.8997   -6039.6942   -2029.6296   -17784.375     15.40563    13.341675    27.330007    5617.3252 
   92000       91.984    347.06215    14.265895   -445.22604   -430.96014    -8937.546   -5762.7001   -2650.1228   -18399.815    15.405632    13.341677     27.32999    5617.3234 
   92500       92.484    354.36943    14.566258   -445.50786    -430.9416   -9607.9885   -7339.6214   -3303.4663   -18180.878    15.405635    13.341679    27.329972    5617.3215 
   93000       92.984    346.17578    14.229461   -445.15262   -430.92316   -8963.4333   -4858.8301   -2698.8378   -19332.632    15.405637    13.341681    27.329955    5617.3196 
   93500       93.484    347.92643    14.301421   -445.20502    -430.9036   -9250.5878   -3415.9569   -3881.8902   -20453.916    15.405639    13.341683    27.329937    5617.3178 
   94000       93.984    346.03961    14.223863   -445.10842   -430.88456   -8656.4843   -5467.5967   -4145.2874   -16356.569    15.405642    13.341685     27.32992    5617.3159 
   94500       94.484    344.58474    14.164061   -445.02915   -430.86509   -10411.584   -5377.1845   -4792.0784   -21065.489    15.405644    13.341687    27.329903     5617.314 
   95000       94.984    345.56716    14.204444   -445.05052   -430.84607   -9526.5663   -6734.2094   -2812.4973   -19032.992    15.405646    13.341689    27.329885    5617.3122 
   95500       95.484    342.88375    14.094143   -444.92047   -430.82633   -8336.8026   -4696.1748   -2423.8808   -17890.352    15.405649    13.341691    27.329868    5617.3103 
   96000       95.984    356.27259    14.644487   -445.45118   -430.80669   -9587.6135   -5497.5284    -4091.443   -19173.869    15.405651    13.341694     27.32985    5617.3084 
   96500       96.484    359.38331    14.772353   -445.55927   -430.78692   -9066.6258   -2390.9058   -6603.4569   -18205.515    15.405653    13.341696    27.329833    5617.3066 
   97000       96.984     348.4888    14.324537   -445.09126   -430.76672   -9085.8625   -6128.4396   -2790.0642   -18339.084    15.405656    13.341698    27.329815    5617.3047 
   97500       97.484    345.82223    14.214928   -444.96236   -430.74743   -8137.9646   -2250.4697   -3575.8827   -18587.541    15.405658      13.3417    27.329798    5617.3028 
   98000       97.984    357.26989    14.685481   -445.41308    -430.7276   -8565.3661   -3750.7907   -3138.5907   -18806.717    15.405661    13.341702     27.32978     5617.301 
   98500       98.484    359.69671    14.785235   -445.49279   -430.70755   -9018.9296   -4983.2673   -1762.7236   -20310.798    15.405663    13.341704    27.329763    5617.2991 
   99000       98.984    352.27717    14.480257   -445.16743   -430.68717   -9982.1458   -6991.3662   -4206.9789   -18748.092    15.405665    13.341706    27.329745    5617.2972 
   99500       99.484    343.45125    14.117469   -444.78418   -430.66671   -7706.9174   -2953.7755   -3089.5883   -17077.388    15.405668    13.341708    27.329728    5617.2954 
  100000       99.984    349.51803    14.366843    -445.0141   -430.64726   -9726.5993   -6743.3931   -3093.7464   -19342.658     15.40567     13.34171    27.329711    5617.2935 
  100500      100.484    354.20911    14.559668   -445.18665   -430.62699   -8957.2096   -5220.4429   -5598.2081   -16052.978    15.405672    13.341712    27.329693    5617.2916 
  101000      100.984     353.4896    14.530093   -445.13669   -430.60659   -8441.4413    -3730.819   -3285.6378   -18307.867    15.405675    13.341714    27.329676    5617.2898 
  101500      101.484    373.37304    15.347396   -445.93374   -430.58635   -9408.0516   -4134.5864    -2905.533   -21184.035    15.405677    13.341716    27.329658    5617.2879 
  102000      101.984    364.05364    14.964325   -445.53031   -430.56599   -9028.0614   -2696.1687   -4178.2965   -20209.719    15.405679    13.341718    27.329641     5617.286 
  102500      102.484    350.28371    14.398316   -444.94381   -430.54549   -8714.8465     -4511.91   -4486.6511   -17145.978    15.405682     13.34172    27.329623    5617.2842 
  103000      102.984    367.81355    15.118875   -445.64359   -430.52471   -9357.0912   -5503.3004   -3238.4574   -19329.516    15.405684    13.341722    27.329606    5617.2823 
  103500      103.484    336.38723    13.827105   -444.33065   -430.50355   -7923.0787   -6790.7246   -1526.9421   -15451.569    15.405686    13.341724    27.329588    5617.2804 
  104000      103.984    351.81308     14.46118   -444.94438    -430.4832   -9207.6018   -3447.4768   -1441.4442   -22733.884    15.405689    13.341726    27.329571    5617.2786 
  104500      104.484    353.23303    14.519547   -444.98236   -430.46282   -8552.4934   -5628.0086    -2682.985   -17346.487    15.405691    13.341728    27.329554    5617.2767 
  105000      104.984    348.47191    14.323842   -444.76532   -430.44148    -8561.102   -5435.6566    -2767.512   -17480.137    15.405693     13.34173    27.329536    5617.2748 
  105500      105.484    353.96163    14.549496   -444.96964   -430.42014   -8428.1664   -4903.7047   -2562.3721   -17818.423    15.405696    13.341732    27.329519     5617.273 
  106000      105.984    355.35768     14.60688   -445.00618    -430.3993   -8462.9415   -3820.8254   -3797.2652   -17770.734    15.405698    13.341735    27.329501    5617.2711 
  106500      106.484    348.79787    14.337241   -444.71514    -430.3779   -8931.4069   -4068.4874   -3525.0955   -19200.638      15.4057    13.341737    27.329484    5617.2692 
  107000      106.984    329.90382    13.560606   -443.91709   -430.35649   -8048.0737   -5162.6454   -857.08907   -18124.487    15.405703    13.341739    27.329466    5617.2674 
  107500      107.484    346.98454    14.262704   -444.59829   -430.33559   -8178.7571   -3964.9522   -2574.6374   -17996.682    15.405705    13.341741    27.329449    5617.2655 
  108000      107.984     345.7293    14.211108   -444.52502   -430.31392   -10001.629   -6021.7015   -3364.9025   -20618.282    15.405708    13.341743    27.329431    5617.2636 
  108500      108.484    364.09406    14.965986   -445.25899     -430.293   -9967.1983   -5382.9009   -3529.3988   -20989.295     15.40571    13.341745    27.329414    5617.2618 
  109000      108.984    352.15344    14.475171   -444.74695   -430.27178   -8345.0416   -3262.7768   -688.75148   -21083.597    15.405712    13.341747    27.329396    5617.2599 
  109500      109.484    353.28961    14.521873   -444.77176   -430.24989   -9883.0833   -6885.5068   -1729.1651   -21034.578    15.405715    13.341749    27.329379     5617.258 
  110000      109.984    343.24544     14.10901   -444.33735   -430.22834   -8529.4022   -3402.3977   -2492.6897   -19693.119    15.405717    13.341751    27.329362    5617.2562 
  110500      110.484    327.32356    13.454545   -443.66087   -430.20632   -8050.3338    -4464.941   -2321.8683   -17364.192    15.405719    13.341753    27.329344    5617.2543 
  111000      110.984    355.51996    14.613551   -444.79862   -430.18507    -9019.949    -6004.938   -2795.4447   -18259.464    15.405722    13.341755    27.329327    5617.2524 
  111500      111.484    358.34411    14.729637   -444.89321   -430.16357   -9828.3205   -4379.9894   -2636.1254   -22468.847    15.405724    13.341757    27.329309    5617.2506 
  112000      111.984    350.59258    14.411012   -444.55245   -430.14144   -8341.8682   -5866.6495    -1568.275    -17590.68    15.405726    13.341759    27.329292    5617.2487 
  112500      112.484    353.33508    14.523742   -444.64324   -430.11949   -8435.7855   -3457.0706   -2477.8172   -19372.469    15.405729    13.341761    27.329274    5617.2468 
  113000      112.984    344.24568    14.150124   -444.24808   -430.09795   -8213.6519   -3570.1407   -1421.9012   -19648.914    15.405731    13.341763    27.329257     5617.245 
  113500      113.484    365.64051    15.029553   -445.10593   -430.07638   -9267.4434   -6188.6023   -2836.3202   -18777.408    15.405733    13.341765    27.329239    5617.2431 
  114000      113.984    370.59792    15.233326   -445.28801   -430.05468   -9013.2501   -4885.7787   -4191.1514    -17962.82    15.405736    13.341767    27.329222    5617.2412 
  114500      114.484    364.36941    14.977305    -445.0095    -430.0322   -8543.7351   -5109.7872   -3349.7193   -17171.699    15.405738    13.341769    27.329205    5617.2394 
  115000      114.984     352.7696    14.500498   -444.51057   -430.01008   -8433.9843   -5897.4784   -406.13938   -18998.335     15.40574    13.341771    27.329187    5617.2375 
  115500      115.484    347.96394    14.302963   -444.29101   -429.98805   -9932.1686   -4293.4194   -5094.0527   -20409.034    15.405743    13.341773     27.32917    5617.2356 
  116000      115.984    375.84495    15.449004   -445.41473   -429.96573   -8562.1968   -3094.7872   -3174.5135    -19417.29    15.405745    13.341776    27.329152    5617.2338 
  116500      116.484    358.86825    14.751181   -444.69458    -429.9434   -8603.3456   -4239.4106   -4723.8185   -16846.808    15.405747    13.341778    27.329135    5617.2319 
  117000      116.984    355.17813      14.5995    -444.5205     -429.921   -9762.6354   -5783.3826   -3425.4419   -20079.082     15.40575     13.34178    27.329117      5617.23 
  117500      117.484    366.65101    15.071089   -444.97006   -429.89897   -8992.1322   -3178.0458   -4176.5048   -19621.846    15.405752    13.341782      27.3291    5617.2282 
  118000      117.984    337.24474    13.862353   -443.73826   -429.87591   -7050.9773   -2579.4619   -1438.5033   -17134.967    15.405755    13.341784    27.329082    5617.2263 
  118500      118.484     340.0974    13.979611   -443.83316   -429.85354    -8112.351   -4158.7988   -2461.9436   -17716.311    15.405757    13.341786    27.329065    5617.2244 
  119000      118.984    363.55407    14.943791   -444.77522   -429.83143   -9374.1791   -4695.9759   -3555.0314    -19871.53    15.405759    13.341788    27.329047    5617.2226 
  119500      119.484    374.50928    15.394101   -445.20327   -429.80917   -7360.6089   -4249.7912   -3302.4605   -14529.575    15.405762     13.34179     27.32903    5617.2207 
  120000      119.984    358.41274    14.732457   -444.51862   -429.78617   -8519.4564   -4117.7638   -2201.2427   -19239.363    15.405764    13.341792    27.329013    5617.2188 
  120500      120.484    356.03477    14.634712   -444.39864   -429.76393   -8785.7356   -5507.7387   -1346.8022   -19502.666    15.405766    13.341794    27.328995     5617.217 
  121000      120.984    356.84673    14.668087   -444.40941   -429.74132   -8991.4062    -5743.108   -5789.6196   -15441.491    15.405769    13.341796    27.328978    5617.2151 
  121500      121.484    375.07851    15.417499   -445.13564   -429.71814   -8659.9404   -6445.4818   -750.57325   -18783.766    15.405771    13.341798     27.32896    5617.2132 
  122000      121.984    358.17848    14.722828   -444.41835   -429.69552   -8354.6105   -7186.0138    -1629.812   -16248.006    15.405773      13.3418    27.328943    5617.2114 
  122500      122.484    389.54151    16.011997   -445.68516   -429.67317   -9920.8782   -5805.5186    -2600.324   -21356.792    15.405776    13.341802    27.328925    5617.2095 
  123000      122.984    347.78706    14.295692   -443.94584   -429.65015   -8285.2546   -5385.3813   -5144.7694   -14325.613    15.405778    13.341804    27.328908    5617.2076 
  123500      123.484    361.01966    14.839614   -444.46715   -429.62753   -8701.7781   -5306.5155   -2983.5945   -17815.224     15.40578    13.341806     27.32889    5617.2058 
  124000      123.984    346.24514    14.232312   -443.83722   -429.60491   -7726.0648   -2880.6133   -914.19596   -19383.385    15.405783    13.341808    27.328873    5617.2039 
  124500      124.484    337.59755    13.876855   -443.45786   -429.58101   -7744.5354   -5223.8218     850.1485   -18859.933    15.405785     13.34181    27.328856     5617.202 
  125000      124.984    341.16855     14.02364   -443.58212   -429.55848   -8550.6843   -4636.2475   -1983.8251    -19031.98    15.405787    13.341812    27.328838    5617.2002 
  125500      125.484    356.48884    14.653376    -444.1893   -429.53592   -9102.4748   -6729.0769   -1617.6859   -18960.662     15.40579    13.341814    27.328821    5617.1983 
  126000      125.984    355.05554    14.594461   -444.10678   -429.51232   -8294.8846   -6266.0358   -962.82714   -17655.791    15.405792    13.341817    27.328803    5617.1964 
  126500      126.484    360.05898    14.800126   -444.28991   -429.48978   -7695.5694   -4083.4822   -1480.7162    -17522.51    15.405794    13.341819    27.328786    5617.1946 
  127000      126.984    368.14791    15.132619   -444.59967   -429.46705    -9134.485   -4516.5251   -3965.2804    -18921.65    15.405797    13.341821    27.328768    5617.1927 
  127500      127.484    359.37326    14.771939   -444.21499   -429.44305   -8231.4448   -5449.7714   -2832.0677   -16412.495    15.405799    13.341823    27.328751    5617.1908 
  128000      127.984    356.68953    14.661625    -444.0817   -429.42007   -9305.2054    -5647.628   -3750.2516   -18517.737    15.405802    13.341825    27.328733     5617.189 
  128500      128.484    343.72437    14.128696   -443.52568   -429.39698   -7800.3652   -1108.6603   -1875.8503   -20416.585    15.405804    13.341827    27.328716    5617.1871 
  129000      128.984    373.44239    15.350247    -444.7243   -429.37406   -7278.5251   -4265.5881   -1597.8379   -15972.149    15.405806    13.341829    27.328698    5617.1852 
  129500      129.484    366.72238    15.074023   -444.42486   -429.35084   -8336.4932   -4204.8271   -1718.5656   -19086.087    15.405809    13.341831    27.328681    5617.1834 
  130000      129.984    358.38585    14.731352   -444.05887   -429.32752   -7441.1059   -4976.1205   -3322.8817   -14024.315    15.405811    13.341833    27.328664    5617.1815 
  130500      130.484    380.28347    15.631448   -444.93607   -429.30462   -8616.2178   -5674.9092   -2868.9861   -17304.758    15.405813    13.341835    27.328646    5617.1796 
  131000      130.984      377.437    15.514444   -444.79525   -429.28081   -8385.7541    -4409.578   -2535.1088   -18212.576    15.405816    13.341837    27.328629    5617.1778 
  131500      131.484    376.92363    15.493343   -444.75066   -429.25732   -7242.5875   -2068.7866   -3257.9447   -16401.031    15.405818    13.341839    27.328611    5617.1759 
  132000      131.984    356.91432    14.670865    -443.9044   -429.23353   -7860.1796   -5174.9698    533.00889   -18938.578     15.40582    13.341841    27.328594     5617.174 
  132500      132.484    358.95846    14.754889   -443.96592   -429.21103   -8152.0657   -4793.4624   -1220.9473   -18441.787    15.405823    13.341843    27.328576    5617.1722 
  133000      132.984    356.71037    14.662482   -443.84962   -429.18714   -8477.6841   -6200.6325    1161.7706    -20394.19    15.405825    13.341845    27.328559    5617.1703 
  133500      133.484    364.51497    14.983288    -444.1472   -429.16392   -7921.0247   -3722.7451   -2528.5987    -17511.73    15.405827    13.341847    27.328541    5617.1684 
  134000      133.984    375.82969    15.448377   -444.58848    -429.1401   -8496.6648   -5174.9279   -1774.5498   -18540.517     15.40583    13.341849    27.328524    5617.1666 
  134500      134.484     370.0879    15.212362    -444.3293   -429.11694   -8967.7785   -1878.3119   -4523.2445   -20501.779    15.405832    13.341851    27.328507    5617.1647 
  135000      134.984    389.19292    15.997668     -445.091   -429.09333   -8017.6142   -2315.2909   -3107.2336   -18630.318    15.405834    13.341853    27.328489    5617.1628 
  135500      135.484    355.65835    14.619239   -443.68849   -429.06925   -8103.4967   -6762.3447   -4202.1944   -13345.951    15.405837    13.341855    27.328472     5617.161 
  136000      135.984    359.05837    14.758996   -443.80458   -429.04558   -8499.4611   -6103.9397    831.47836   -20225.922    15.405839    13.341858    27.328454    5617.1591 
  136500      136.484    357.60187    14.699127    -443.7216   -429.02247   -7574.8589   -2589.5302   -3069.0191   -17066.028    15.405841     13.34186    27.328437    5617.1572 
  137000      136.984    389.28062    16.001273   -445.00024   -428.99897   -8622.7575   -2956.0859   -3859.1289   -19053.058    15.405844    13.341862    27.328419    5617.1554 
  137500      137.484    368.07621    15.129672   -444.10465   -428.97498   -7247.2263   -3945.1916   -919.26046   -16877.227    15.405846    13.341864    27.328402    5617.1535 
  138000      137.984    370.64825    15.235395   -444.18641   -428.95101   -7985.1821   -3205.3635   -2047.7258   -18702.457    15.405849    13.341866    27.328384    5617.1516 
  138500      138.484    391.22318    16.081122    -445.0092   -428.92808   -8296.3117   -3064.4288   -1660.1883   -20164.318    15.405851    13.341868    27.328367    5617.1498 
  139000      138.984    389.42978    16.007405   -444.91175   -428.90434   -8455.5283   -3739.1756   -3217.8544   -18409.555    15.405853     13.34187    27.328349    5617.1479 
  139500      139.484    360.94477    14.836536   -443.71729   -428.88075   -8313.7581   -6670.7997   -1329.8275   -16940.647    15.405856    13.341872    27.328332     5617.146 
  140000      139.984    381.47717    15.680514   -444.53845   -428.85794     -8688.84   -3745.8511   -3538.6312   -18782.038    15.405858    13.341874    27.328315    5617.1441 
  140500      140.484    374.40867    15.389966   -444.22323   -428.83326   -8575.2346   -4699.3796   -2674.0401   -18352.284     15.40586    13.341876    27.328297    5617.1423 
  141000      140.984    379.36987    15.593895   -444.40305   -428.80915   -8573.8852   -4665.3813     -2810.52   -18245.754    15.405863    13.341878     27.32828    5617.1404 
  141500      141.484    378.37406    15.552962   -444.33826    -428.7853   -7916.2787   -3373.8533   -1610.6498   -18764.333    15.405865     13.34188    27.328262    5617.1385 
  142000      141.984    398.64873    16.386347   -445.14809   -428.76174   -9345.7829   -3143.0999   -4148.6305   -20745.618    15.405867    13.341882    27.328245    5617.1367 
  142500      142.484    372.09553    15.294885   -444.03218   -428.73729   -8227.8147   -2043.0102   -3375.1878   -19265.246     15.40587    13.341884    27.328227    5617.1348 
  143000      142.984    371.67469    15.277586   -443.99082   -428.71323   -9092.7806   -1610.1702   -2793.6949   -22874.477    15.405872    13.341886     27.32821    5617.1329 
  143500      143.484    375.68717    15.442518    -444.1319   -428.68938   -9056.2562    -3704.577   -3105.1598   -20359.032    15.405874    13.341888    27.328192    5617.1311 
  144000      143.984    382.29146    15.713986   -444.37913   -428.66514   -8682.0232   -4501.5437    -3319.262   -18225.264    15.405877     13.34189    27.328175    5617.1292 
  144500      144.484    373.74898     15.36285   -444.00456   -428.64171   -7524.2675   -1162.9904    211.27773    -21621.09    15.405879    13.341892    27.328158    5617.1273 
  145000      144.984    371.52039    15.271244   -443.88797   -428.61673   -9646.0545   -6585.0385   -3188.3725   -19164.753    15.405881    13.341894     27.32814    5617.1255 
  145500      145.484    363.23723    14.930767   -443.52314   -428.59237   -8150.6282   -5676.9088    97.117213   -18872.093    15.405884    13.341896    27.328123    5617.1236 
  146000      145.984    382.76102    15.733287   -444.30196   -428.56867   -8408.2339   -2856.3784   -2605.0809   -19763.242    15.405886    13.341899    27.328105    5617.1217 
  146500      146.484    367.88877    15.121967   -443.66604   -428.54407   -6870.5799   -5256.4811   -1575.3985    -13779.86    15.405888    13.341901    27.328088    5617.1199 
  147000      146.984    387.17499    15.914722   -444.43468   -428.51996   -8710.5104   -4312.5439   -5338.2948   -16480.693    15.405891    13.341903     27.32807     5617.118 
  147500      147.484    378.99864    15.578635   -444.07469   -428.49605   -7551.1897   -3995.0919   -3011.3973    -15647.08    15.405893    13.341905    27.328053    5617.1161 
  148000      147.984    366.48412    15.064229   -443.53561   -428.47138   -7543.3955   -3710.2362   -2343.1313   -16576.819    15.405896    13.341907    27.328035    5617.1143 
  148500      148.484    367.29933    15.097738   -443.54524    -428.4475   -7153.4215   -3560.8126   -4848.7916    -13050.66    15.405898    13.341909    27.328018    5617.1124 
  149000      148.984    375.98793    15.454881   -443.87722   -428.42234   -7870.0208   -3343.3708   -1041.5236   -19225.168      15.4059    13.341911       27.328    5617.1105 
  149500      149.484    369.70597    15.196663   -443.59368   -428.39702   -8736.3752   -4282.8293   -4067.8552   -17858.441    15.405903    13.341913    27.327983    5617.1087 
  150000      149.984    360.16608    14.804528    -443.1775   -428.37297   -7378.5082   -1787.7005   -1626.0737   -18721.751    15.405905    13.341915    27.327966    5617.1068 
  150500      150.484    369.28598    15.179399   -443.52819    -428.3488   -7647.9803   -1810.5239   -5250.1594   -15883.257    15.405907    13.341917    27.327948    5617.1049 
  151000      150.984    396.86427    16.312997   -444.63738   -428.32439   -8157.3923   -2863.0125   -3395.0265   -18214.138     15.40591    13.341919    27.327931    5617.1031 
  151500      151.484    375.92956    15.452482   -443.75229   -428.29981   -7517.6286   -3355.0163   -4069.6692     -15128.2    15.405912    13.341921    27.327913    5617.1012 
  152000      151.984     369.8061    15.200778   -443.47583   -428.27505   -8789.8413   -4015.9931    464.60037   -22818.131    15.405914    13.341923    27.327896    5617.0993 
  152500      152.484    379.40955    15.595526   -443.84628   -428.25075   -8194.7321   -4437.9252   -1331.9914    -18814.28    15.405917    13.341925    27.327878    5617.0975 
  153000      152.984     385.0073     15.82562   -444.05208   -428.22646   -6809.9849   -2070.5108   -2495.8923   -15863.551    15.405919    13.341927    27.327861    5617.0956 
  153500      153.484    387.57064    15.930985    -444.1329   -428.20191   -7099.1528   -3048.1625   -2673.5421   -15575.754    15.405921    13.341929    27.327843    5617.0937 
  154000      153.984    357.21844    14.683366   -442.85959   -428.17622   -7573.6296   -4666.4983   -3089.7011    -14964.69    15.405924    13.341931    27.327826    5617.0919 
  154500      154.484    381.43744    15.678881    -443.8307   -428.15182   -8621.1114   -4445.7414   -3542.0077   -17875.585    15.405926    13.341933    27.327809      5617.09 
  155000      154.984    378.31173      15.5504   -443.67683   -428.12643   -7460.8489    -3337.014   -3956.9558   -15088.577    15.405928    13.341935    27.327791    5617.0881 
  155500      155.484    369.64226    15.194044   -443.29545   -428.10141   -6712.8109   -897.57504   -2072.4011   -17168.456    15.405931    13.341937    27.327774    5617.0863 
  156000      155.984    379.32398    15.592008     -443.669   -428.07699   -7552.2169   -2740.3801   -3530.1684   -16386.102    15.405933     13.34194    27.327756    5617.0844 
  156500      156.484    367.74529    15.116069   -443.16833   -428.05226    -7873.138   -2373.1091   -3338.5483   -17907.757    15.405935    13.341942    27.327739    5617.0825 
  157000      156.984    370.15597     15.21516   -443.24336   -428.02821   -7220.2063   -3288.9256   -3882.2102   -14489.483    15.405938    13.341944    27.327721    5617.0807 
  157500      157.484    395.54976    16.258964    -444.2629   -428.00394   -8741.7392   -3733.8138   -1860.7063   -20630.698     15.40594    13.341946    27.327704    5617.0788 
  158000      157.984      386.221    15.875508   -443.85441    -427.9789   -8341.2125   -3190.0305   -3518.8724   -18314.735    15.405943    13.341948    27.327686    5617.0769 
  158500      158.484    386.06226    15.868984   -443.82371   -427.95473   -7374.3661   -4967.8105   -3212.0655   -13943.222    15.405945     13.34195    27.327669    5617.0751 
  159000      158.984    372.25573     15.30147   -443.23059   -427.92912   -7735.3739   -5318.7701    -2299.088   -15588.264    15.405947    13.341952    27.327651    5617.0732 
  159500      159.484    388.92072     15.98648   -443.89138    -427.9049   -7317.2386   -2994.9598    1062.3158   -20019.072     15.40595    13.341954    27.327634    5617.0713 
  160000      159.984     402.3136     16.53699   -444.41722   -427.88023   -8254.3655   -1871.7123   -3884.4175   -19006.967    15.405952    13.341956    27.327617    5617.0695 
  160500      160.484    402.11181    16.528696   -444.38414   -427.85544   -7881.1591   -3209.0635   -2312.8119   -18121.602    15.405954    13.341958    27.327599    5617.0676 
  161000      160.984    366.51267    15.065403   -442.89493   -427.82953   -7520.9012   -2503.7542   -2829.5266   -17229.423    15.405957     13.34196    27.327582    5617.0657 
  161500      161.484    373.31237    15.344903   -443.15011    -427.8052   -7444.8985   -3041.5569     -1050.99   -18242.149    15.405959    13.341962    27.327564    5617.0639 
  162000      161.984    386.98332    15.906844   -443.68713   -427.78029   -7867.1952   -3669.2224   -2247.9896   -17684.374    15.405961    13.341964    27.327547     5617.062 
  162500      162.484     396.7126    16.306763   -444.06198   -427.75522   -7942.8643   -3637.4774   -1909.2866   -18281.829    15.405964    13.341966    27.327529    5617.0601 
  163000      162.984    400.77697    16.473828   -444.20387   -427.73004   -6954.6248   -4379.3512   -1040.6715   -15443.852    15.405966    13.341968    27.327512    5617.0583 
  163500      163.484    408.06728    16.773494   -444.47881   -427.70531   -8557.3926   -4819.4183   -1321.3727   -19531.387    15.405968     13.34197    27.327494    5617.0564 
  164000      163.984    386.06117    15.868939   -443.54835   -427.67941   -7541.7071   -7596.6679   -1037.7066   -13990.747    15.405971    13.341972    27.327477    5617.0545 
  164500      164.484     378.3637    15.552536   -443.20705   -427.65451    -7811.388   -4531.3103   -272.98735   -18629.867    15.405973    13.341974     27.32746    5617.0527 
  165000      164.984    403.82674    16.599187   -444.22898   -427.62979   -8119.2092   -4008.1366   -129.64483   -20219.846    15.405975    13.341976    27.327442    5617.0508 
  165500      165.484     392.1063    16.117422   -443.72209   -427.60467   -6721.8084   -3188.8481   -2932.8718   -14043.705    15.405978    13.341978    27.327425    5617.0489 
  166000      165.984    390.82506    16.064757   -443.64382   -427.57906   -8290.6144    -5462.691   -2588.3791   -16820.773     15.40598    13.341981    27.327407    5617.0471 
  166500      166.484    365.97558    15.043326   -442.59697   -427.55364   -7322.7952   -2182.7856   -2112.7067   -17672.893    15.405982    13.341983     27.32739    5617.0452 
  167000      166.984    378.86895    15.573305    -443.1032   -427.52989   -7708.3392   -2990.2604   -3614.6908   -16520.066    15.405985    13.341985    27.327372    5617.0433 
  167500      167.484    385.83317    15.859567   -443.36365   -427.50408   -7596.1389   -3379.6789   -5265.6311   -14143.107    15.405987    13.341987    27.327355    5617.0415 
  168000      167.984    378.03042    15.538837   -443.01742   -427.47858   -6973.5021   -3577.2132   -1090.3929     -16252.9     15.40599    13.341989    27.327337    5617.0396 
  168500      168.484    387.56631    15.930807   -443.38419   -427.45338   -6824.8411   -2315.0502   -65.315654   -18094.158    15.405992    13.341991     27.32732    5617.0377 
  169000      168.984    365.55417    15.026004   -442.45391   -427.42791   -6324.3606   -2793.5946   -656.01352   -15523.474    15.405994    13.341993    27.327302    5617.0359 
  169500      169.484    383.19018    15.750927   -443.15312   -427.40219   -5951.6693   -1560.8379   -2140.1048   -14154.065    15.405997    13.341995    27.327285     5617.034 
  170000      169.984    378.80621    15.570725   -442.94747   -427.37674   -6794.3816   -2893.8372   -246.28074   -17243.027    15.405999    13.341997    27.327268    5617.0321 
  170500      170.484    396.22285    16.286632   -443.63843   -427.35179   -7567.3416   -3524.8704   -624.92076   -18552.234    15.406001    13.341999     27.32725    5617.0303 
  171000      170.984    383.21258    15.751848   -443.07809   -427.32624   -7471.1234   -4032.8693   -1764.8318   -16615.669    15.406004    13.342001    27.327233    5617.0284 
  171500      171.484    387.48354    15.927405     -443.228   -427.30059   -7733.8727    -2639.559   -2885.8876   -17676.171    15.406006    13.342003    27.327215    5617.0265 
  172000      171.984    386.55045    15.889051   -443.16399   -427.27494   -6855.9276   -1997.6733   -3666.4022   -14903.707    15.406008    13.342005    27.327198    5617.0247 
  172500      172.484     405.0482    16.649395   -443.89913   -427.24974   -6929.2118   -2430.4215   -2497.7842    -15859.43    15.406011    13.342007     27.32718    5617.0228 
  173000      172.984    398.72077    16.389308   -443.61311    -427.2238   -7799.8085   -3163.4664   -3072.5794    -17163.38    15.406013    13.342009    27.327163    5617.0209 
  173500      173.484    406.01469    16.689123   -443.88758   -427.19846   -7776.9777   -3426.0701   -1025.6841   -18879.179    15.406015    13.342011    27.327145    5617.0191 
  174000      173.984    375.00938    15.414658   -442.58721   -427.17255   -7524.8123   -3421.7702   -2131.8096   -17020.857    15.406018    13.342013    27.327128    5617.0172 
  174500      174.484    398.84864    16.394564   -443.54187   -427.14731   -6316.9171    -2589.636   -533.94054   -15827.175     15.40602    13.342015    27.327111    5617.0153 
  175000      174.984    405.96703    16.687164   -443.80909   -427.12192   -8055.6395   -1940.8994   -3409.0909   -18816.928    15.406022    13.342017    27.327093    5617.0135 
  175500      175.484    379.05415    15.580917   -442.67695   -427.09604   -7109.2235   -2352.0612   -3577.0558   -15398.553    15.406025    13.342019    27.327076    5617.0116 
  176000      175.984    356.87687    14.669326   -441.73817   -427.06884   -6938.2461   -485.49103   -2365.0594   -17964.188    15.406027    13.342022    27.327058    5617.0097 
  176500      176.484    406.29721    16.700735   -443.74459   -427.04385   -7787.0982   -2826.4905   -1474.1876   -19060.616    15.406029    13.342024    27.327041    5617.0079 
  177000      176.984    409.17574    16.819057   -443.83721   -427.01816   -8655.3104   -4296.9105   -1920.3077   -19748.713    15.406032    13.342026    27.327023     5617.006 
  177500      177.484    383.39668    15.759415   -442.75096   -426.99154   -6658.7778   -4283.0544   -1629.7469   -14063.532    15.406034    13.342028    27.327006    5617.0041 
  178000      177.984    418.67157     17.20938   -444.17602   -426.96664   -8462.5128   -2688.3147   -1349.4493   -21349.774    15.406037     13.34203    27.326988    5617.0023 
  178500      178.484    398.92362    16.397646   -443.33841   -426.94077    -6665.474   -3711.3608   -2863.0317    -13422.03    15.406039    13.342032    27.326971    5617.0004 
  179000      178.984    395.48264    16.256206   -443.17083   -426.91462   -7733.3851   -2544.9628   -2650.9932   -18004.199    15.406041    13.342034    27.326953    5616.9985 
  179500      179.484    400.99889    16.482949   -443.37213   -426.88918   -7526.1708   -2582.6281   -2448.7599   -17547.124    15.406044    13.342036    27.326936    5616.9967 
  180000      179.984    386.65166    15.893211   -442.75616   -426.86295   -6518.8059   -2800.4543   -687.23958   -16068.724    15.406046    13.342038    27.326919    5616.9948 
  180500      180.484     380.2593    15.630454   -442.46714   -426.83668   -6903.4964   -2798.3399   -3788.4264   -14123.723    15.406048     13.34204    27.326901    5616.9929 
  181000      180.984    393.82051    16.187884   -442.99868   -426.81079   -6799.1406   -3827.7292   -1690.3429    -14879.35    15.406051    13.342042    27.326884    5616.9911 
  181500      181.484    397.27689    16.329958   -443.11431   -426.78436   -7502.3356   -5722.0459   -397.93052    -16387.03    15.406053    13.342044    27.326866    5616.9892 
  182000      181.984    387.34156    15.921569   -442.68017    -426.7586   -7633.4241   -5464.4359    -1004.673   -16431.163    15.406055    13.342046    27.326849    5616.9873 
  182500      182.484     403.4221    16.582555   -443.31539   -426.73283   -6951.1718   -2825.1423   -1848.0248   -16180.348    15.406058    13.342048    27.326831    5616.9855 
  183000      182.984    420.48311    17.283843   -443.99108   -426.70723   -7658.1941   -4642.8348   -1668.4978    -16663.25     15.40606     13.34205    27.326814    5616.9836 
  183500      183.484    399.42779     16.41837   -443.09892   -426.68055   -7039.4503   -1326.1759    298.00493    -20090.18    15.406062    13.342052    27.326796    5616.9817 
  184000      183.984     400.9231    16.479834   -443.13449   -426.65466   -8047.5633   -3406.5094     -3498.89    -17237.29    15.406065    13.342054    27.326779    5616.9799 
  184500      184.484    405.37227    16.662716   -443.29139   -426.62867   -8071.9577    -6126.146   -2157.9253   -15931.802    15.406067    13.342056    27.326762     5616.978 
  185000      184.984    399.63032    16.426695   -443.02883   -426.60214   -7192.9169   -3660.2583   -3329.1684   -14589.324    15.406069    13.342058    27.326744    5616.9761 
  185500      185.484    413.77831    17.008244   -443.58477   -426.57653   -7174.3531   -2794.4269    586.29954   -19314.932    15.406072     13.34206    27.326727    5616.9743 
  186000      185.984    416.62863    17.125406   -443.67591    -426.5505   -8984.1284   -6689.6116   -1476.1993   -18786.574    15.406074    13.342063    27.326709    5616.9724 
  186500      186.484    395.76213    16.267694   -442.79233   -426.52464   -6681.9516   -4507.2266   -475.72311   -15062.905    15.406076    13.342065    27.326692    5616.9705 
  187000      186.984    426.32876    17.524127    -444.0224   -426.49827   -7208.8267   -2786.6567   -3139.7804   -15700.043    15.406079    13.342067    27.326674    5616.9687 
  187500      187.484    397.31524    16.331534   -442.80345   -426.47191   -7155.4614   -3969.0623   -1561.6113   -15935.711    15.406081    13.342069    27.326657    5616.9668 
  188000      187.984    402.74497    16.554721   -442.99974   -426.44502    -7183.298   -2400.5597   -3363.8892   -15785.445    15.406084    13.342071    27.326639    5616.9649 
  188500      188.484    392.24761     16.12323   -442.54184   -426.41861   -6810.6366   -3630.5157   -988.45175   -15812.942    15.406086    13.342073    27.326622    5616.9631 
  189000      188.984    411.04566    16.895919   -443.28845   -426.39253   -6552.0542   -3734.1452   -743.94788   -15178.069    15.406088    13.342075    27.326604    5616.9612 
  189500      189.484    386.55241    15.889131   -442.25504   -426.36591   -6161.3492   -295.78393    -967.5933    -17220.67    15.406091    13.342077    27.326587    5616.9593 
  190000      189.984    400.69204    16.470337   -442.81002   -426.33968   -7379.0601   -3294.1285   -555.71279   -18287.339    15.406093    13.342079     27.32657    5616.9575 
  190500      190.484    392.33626    16.126875   -442.43997    -426.3131   -6525.3587   -4212.4301   -3514.3637   -11849.282    15.406095    13.342081    27.326552    5616.9556 
  191000      190.984    397.29368    16.330648   -442.61795    -426.2873   -6541.6428   -5133.1915   -2746.0247   -11745.712    15.406098    13.342083    27.326535    5616.9537 
  191500      191.484    393.41364     16.17116   -442.43166    -426.2605   -6770.2012   -4258.8047   -1741.3995   -14310.399      15.4061    13.342085    27.326517    5616.9519 
  192000      191.984    406.44492    16.706807   -442.94106   -426.23425   -6375.1048    -1654.104   -866.47304   -16604.737    15.406102    13.342087      27.3265      5616.95 
  192500      192.484    382.84086    15.736569   -441.94409   -426.20752   -5511.6787   -3221.8838   -2126.1022    -11187.05    15.406105    13.342089    27.326482    5616.9481 
  193000      192.984    405.98915    16.688073   -442.86872   -426.18065    -6736.031    -4234.986    1337.0181   -17310.125    15.406107    13.342091    27.326465    5616.9463 
  193500      193.484    431.34636    17.730374   -443.88476   -426.15439   -8682.1131   -2829.6178   -3173.9164   -20042.805    15.406109    13.342093    27.326447    5616.9444 
  194000      193.984    421.23161     17.31461   -443.44195   -426.12734   -7282.7314    -4327.444   -242.44772   -17278.302    15.406112    13.342095     27.32643    5616.9425 
  194500      194.484    418.20632    17.190256   -443.29111   -426.10086    -7569.222   -6537.1158    249.29072   -16419.841    15.406114    13.342097    27.326413    5616.9407 
  195000      194.984    402.07564    16.527209   -442.60062   -426.07341     -7243.69   -2664.7995   -2534.9578   -16531.313    15.406116    13.342099    27.326395    5616.9388 
  195500      195.484    388.40405    15.965242   -442.01142   -426.04618   -6326.8609   -535.75838   -2418.1572   -16026.667    15.406119    13.342101    27.326378    5616.9369 
  196000      195.984    404.46957    16.625611   -442.64535   -426.01974   -6993.0643   -5597.1829    -903.1324   -14478.877    15.406121    13.342104     27.32636    5616.9351 
  196500      196.484    397.30902    16.331278   -442.32419   -425.99292   -6975.5736    22.105183   -3458.6212   -17490.205    15.406123    13.342106    27.326343    5616.9332 
  197000      196.984    415.02713    17.059577   -443.02554   -425.96596   -6528.9757   -1176.5327   -1227.3874   -17183.007    15.406126    13.342108    27.326325    5616.9313 
  197500      197.484    398.93062    16.397934   -442.33699   -425.93906    -6310.335   -1518.6406    1030.2292   -18442.593    15.406128     13.34211    27.326308    5616.9295 
  198000      197.984    416.45717    17.118358   -443.03092   -425.91256   -6177.4701   -1792.7187   -801.77587   -15937.916    15.406131    13.342112     27.32629    5616.9276 
  198500      198.484    399.86287    16.436254   -442.32156   -425.88531   -5801.5579   -3952.1741    2044.5346   -15497.034    15.406133    13.342114    27.326273    5616.9257 
  199000      198.984    401.69294    16.511478   -442.37013   -425.85865    -7559.118   -3749.8038   -410.55929   -18516.991    15.406135    13.342116    27.326255    5616.9239 
  199500      199.484    404.47355    16.625774   -442.45732   -425.83154   -5570.9389   -2683.0191   -413.31445   -13616.483    15.406138    13.342118    27.326238     5616.922 
  200000      199.984    424.76061    17.459669   -443.26441   -425.80474   -7856.6127   -1719.2788    -1897.723   -19952.836     15.40614     13.34212    27.326221    5616.9201 
  200500      200.484     414.1284    17.022634   -442.80018   -425.77754   -6113.2405   -3755.4985    2562.8388   -17147.062    15.406142    13.342122    27.326203    5616.9183 
  201000      200.984    435.29842    17.892822   -443.64491   -425.75209    -7435.676   -4497.9358   -4476.9119    -13332.18    15.406145    13.342124    27.326186    5616.9164 
  201500      201.484    421.08081    17.308411   -443.03322   -425.72481   -6693.5166   -3716.1126   -2697.8872    -13666.55    15.406147    13.342126    27.326168    5616.9145 
  202000      201.984    421.75513    17.336129   -443.03415   -425.69802   -6638.6434    -2251.607   -1027.6598   -16636.664    15.406149    13.342128    27.326151    5616.9127 
  202500      202.484    429.14547    17.639907   -443.31072   -425.67081    -6556.217   -2536.5258   -1137.7929   -15994.332    15.406152     13.34213    27.326133    5616.9108 
  203000      202.984    415.21081    17.067126   -442.71064   -425.64352   -8192.0562   -4139.7711   -1321.8089   -19114.589    15.406154    13.342132    27.326116    5616.9089 
  203500      203.484    402.60073    16.548793    -442.1647   -425.61591   -6633.6988   -1815.1156   -911.17976   -17174.801    15.406156    13.342134    27.326098     5616.907 
  204000      203.984    418.83521    17.216107   -442.80536   -425.58925   -7076.1257   -5134.8296    -2804.009   -13289.538    15.406159    13.342136    27.326081    5616.9052 
  204500      204.484     404.7498     16.63713   -442.19903    -425.5619   -6807.9025   -5117.4842     425.5532   -15731.776    15.406161    13.342138    27.326064    5616.9033 
  205000      204.984    398.99293    16.400495   -441.93553   -425.53504   -6674.7359   -69.492517   -1828.8198   -18125.895    15.406163     13.34214    27.326046    5616.9014 
  205500      205.484    410.93576    16.891402   -442.39966   -425.50826   -6502.1578   -1451.9581    -2670.525    -15383.99    15.406166    13.342142    27.326029    5616.8996 
  206000      205.984      416.592      17.1239   -442.60583   -425.48193   -6985.8482   -4837.4944   -1557.3804    -14562.67    15.406168    13.342145    27.326011    5616.8977 
  206500      206.484    402.26878    16.535148   -441.98937   -425.45423   -6246.9213   -825.52027    476.77618    -18392.02     15.40617    13.342147    27.325994    5616.8958 
  207000      206.984      420.209    17.272576   -442.70001   -425.42743     -7165.11   -4889.9697   -1690.4487   -14914.911    15.406173    13.342149    27.325976     5616.894 
  207500      207.484    382.35832    15.716734   -441.11594    -425.3992    -6406.062   -1872.4322   -1587.2615   -15758.492    15.406175    13.342151    27.325959    5616.8921 
  208000      207.984    405.28578    16.659161   -442.03236   -425.37319   -5491.5843   -3942.7329     154.3333   -12686.353    15.406178    13.342153    27.325941    5616.8902 
  208500      208.484     413.8195    17.009937   -442.35538   -425.34544   -7285.9375   -1954.3695   -4715.5975   -15187.846     15.40618    13.342155    27.325924    5616.8884 
  209000      208.984    443.10776    18.213823   -443.53283   -425.31901   -6701.1551   -3649.4639   -2430.5381   -14023.463    15.406182    13.342157    27.325906    5616.8865 
  209500      209.484     423.6206    17.412809   -442.70377   -425.29096   -7245.2908   -4152.8176    -1024.053   -16559.002    15.406185    13.342159    27.325889    5616.8846 
  210000      209.984    414.63395    17.043415   -442.30711   -425.26369   -6923.7283   -5223.5787   -1072.2758    -14475.33    15.406187    13.342161    27.325872    5616.8828 
  210500      210.484    424.93814    17.466966   -442.70298   -425.23601   -6660.8067   -1858.3957    635.47584     -18759.5    15.406189    13.342163    27.325854    5616.8809 
  211000      210.984    410.04999    16.854992   -442.06398   -425.20899   -5937.9873   -2371.6167   -1657.5137   -13784.832    15.406192    13.342165    27.325837     5616.879 
  211500      211.484     432.4626    17.776257   -442.95866   -425.18241    -6776.576   -2133.2296   -449.24182   -17747.257    15.406194    13.342167    27.325819    5616.8772 
  212000      211.984    406.05172    16.690645   -441.84487   -425.15423   -6308.9795   -2082.2468   -1213.7364   -15630.955    15.406196    13.342169    27.325802    5616.8753 
[...]
  948500      948.484    560.38448    23.034451   -436.34859   -413.31414   -1408.2187    933.29763    2813.4018   -7971.3555    15.409658    13.345189    27.300098     5614.123 
  949000      948.984    575.64993    23.661933   -436.97343   -413.31149   -1437.3556   -2202.6603    2575.9202   -4685.3266     15.40966    13.345191     27.30008    5614.1211 
  949500      949.484    557.99518    22.936239   -436.24576   -413.30952   -1449.4328    2929.4437    5566.6753   -12844.417    15.409663    13.345193    27.300063    5614.1193 
  950000      949.984    553.60703    22.755865   -436.06231   -413.30644    546.42464    4171.9721    7684.8232   -10217.521    15.409665    13.345195    27.300046    5614.1174 
  950500      950.484    545.19153    22.409948   -435.71398   -413.30404   -1247.6913   -2308.6056    4297.6846    -5732.153    15.409667    13.345197    27.300028    5614.1155 
  951000      950.984    595.44297     24.47552   -437.77736   -413.30184   -1923.5994   -41.654401    2367.4995   -8096.6434     15.40967    13.345199    27.300011    5614.1136 
  951500      951.484    561.24562    23.069848    -436.3676   -413.29775    -2199.657   -149.58615    2307.0143   -8756.3991    15.409672    13.345201    27.299993    5614.1118 
  952000      951.984    560.48528    23.038594   -436.33165   -413.29306   -1039.0538   -1514.1731    4863.8081   -6466.7964    15.409674    13.345203    27.299976    5614.1099 
  952500      952.484    597.18305    24.547046   -437.83688   -413.28983   -3803.8189   -3518.8194    2428.9964   -10321.634    15.409677    13.345205    27.299958     5614.108 
  953000      952.984    580.80809    23.873958      -437.16   -413.28605   -2125.9592   -6117.4593    7566.4774   -7826.8956    15.409679    13.345207    27.299941    5614.1062 
  953500      953.484    569.29104    23.400552   -436.68366   -413.28311   -974.46613    -322.6498    5570.2941   -8171.0427    15.409681    13.345209    27.299923    5614.1043 
  954000      953.984    589.44424    24.228944   -437.50914    -413.2802    37.208861   -402.86446    5809.9873   -5295.4963    15.409684    13.345211    27.299906    5614.1024 
  954500      954.484    536.97314    22.072134   -435.34644    -413.2743   -1268.2016   -1598.6808    3366.3877   -5572.3118    15.409686    13.345213    27.299889    5614.1006 
  955000      954.984    576.67011    23.703867   -436.97427    -413.2704   -1254.3252    2440.0375    1636.6225   -7839.6355    15.409688    13.345215    27.299871    5614.0987 
  955500      955.484    551.36831    22.663844   -435.93089   -413.26704   -966.99596   -209.82213     5903.729   -8594.8948    15.409691    13.345217    27.299854    5614.0968 
  956000      955.984    543.54523    22.342278   -435.60437   -413.26209   -309.18719    1398.3645     4685.243   -7011.1691    15.409693     13.34522    27.299836    5614.0949 
  956500      956.484    577.91675     23.75511   -437.01507   -413.25996    -2214.849    -1385.856    5918.9525   -11177.644    15.409695    13.345222    27.299819    5614.0931 
  957000      956.984    600.46089    24.681781   -437.93843   -413.25665   -2163.1817   -643.50109    1824.5204   -7670.5644    15.409698    13.345224    27.299801    5614.0912 
  957500      957.484    545.60619    22.426993   -435.67848   -413.25149    755.20318   -812.82109    4035.9453   -957.51468      15.4097    13.345226    27.299784    5614.0893 
  958000      957.984    564.90131    23.220113   -436.46964   -413.24953   -1274.4045   -950.56105     4597.961   -7470.6135    15.409703    13.345228    27.299766    5614.0875 
  958500      958.484     561.9195    23.097547   -436.34417   -413.24662   -1485.3266    1124.1883    1619.3751   -7199.5432    15.409705     13.34523    27.299749    5614.0856 
  959000      958.984    583.83329    23.998308    -437.2431   -413.24479   -1754.8509   -1360.5645    6683.2588   -10587.247    15.409707    13.345232    27.299731    5614.0837 
  959500      959.484    567.59527    23.330848   -436.57191   -413.24106   -583.77027    4473.2995    2895.5748   -9120.1851     15.40971    13.345234    27.299714    5614.0819 
  960000      959.984     594.0303    24.417453   -437.65497   -413.23752    -1336.629   -722.05163    4201.7028   -7489.5382    15.409712    13.345236    27.299697      5614.08 
  960500      960.484    574.05357    23.596315    -436.8286   -413.23229   -8.4536948    547.67325    7535.0501   -8108.0844    15.409714    13.345238    27.299679    5614.0781 
  961000      960.984    544.93762    22.399511   -435.62693   -413.22741   -2933.4942   -2534.8803    2847.7792   -9113.3814    15.409717     13.34524    27.299662    5614.0762 
  961500      961.484    573.50607     23.57381   -436.79622   -413.22241   -1318.2339    371.30834    2903.4927   -7229.5028    15.409719    13.345242    27.299644    5614.0744 
  962000      961.984    585.23885    24.056082    -437.2744   -413.21832   -2766.4415   -1308.4397     2736.747   -9727.6319    15.409721    13.345244    27.299627    5614.0725 
  962500      962.484    579.86669    23.835262   -437.04808   -413.21282    -1557.492    685.28749    6025.3912   -11383.155    15.409724    13.345246    27.299609    5614.0706 
  963000      962.984     576.6741    23.704031   -436.91225   -413.20822   -401.09721    2952.1539    2064.0538   -6219.4993    15.409726    13.345248    27.299592    5614.0688 
  963500      963.484    566.21838    23.274252   -436.47813   -413.20387   -990.60073    701.78228    5051.2834   -8724.8679    15.409728     13.34525    27.299574    5614.0669 
  964000      963.984    584.42275    24.022537   -437.22098   -413.19845   -781.84484   -246.09256    9055.4445   -11154.886    15.409731    13.345252    27.299557     5614.065 
  964500      964.484    593.03284    24.376453   -437.57103   -413.19458   -1963.3147   -5235.4118   -195.10521   -459.42705    15.409733    13.345254     27.29954    5614.0632 
  965000      964.984    547.67846    22.512173   -435.70267   -413.19049   -1082.6264   -1766.1898    4838.3395   -6320.0289    15.409735    13.345256    27.299522    5614.0613 
  965500      965.484    585.72145     24.07592   -437.26156   -413.18564   -560.27121    2453.9337    4885.7083   -9020.4557    15.409738    13.345258    27.299505    5614.0594 
  966000      965.984    587.14692    24.134513   -437.31302    -413.1785   -2529.3489   -104.56329    3230.5187   -10714.002     15.40974    13.345261    27.299487    5614.0575 
  966500      966.484    597.21922    24.548532   -437.72299   -413.17446   -795.59847    3151.3051    1506.4495     -7044.55    15.409742    13.345263     27.29947    5614.0557 
  967000      966.984    551.78209    22.680852   -435.84851   -413.16766    589.76361   -263.47883    7187.6047    -5154.835    15.409745    13.345265    27.299452    5614.0538 
  967500      967.484    567.58752     23.33053   -436.49392   -413.16339   -1690.3062     2112.696    903.91922   -8087.5336    15.409747    13.345267    27.299435    5614.0519 
  968000      967.984    585.62451    24.071935   -437.22983   -413.15789     -1231.94    634.82657    5624.7937   -9955.4401     15.40975    13.345269    27.299417    5614.0501 
  968500      968.484    572.06228    23.514463   -436.66631   -413.15185   -155.45853    2903.4481    3128.6376   -6498.4612    15.409752    13.345271      27.2994    5614.0482 
  969000      968.984    541.24459     22.24771    -435.3937   -413.14599    240.60123    3828.4533    2323.3253    -5429.975    15.409754    13.345273    27.299382    5614.0463 
  969500      969.484    585.72296    24.075982   -437.21867   -413.14269   -1357.4294   -1526.2567    5057.3517   -7603.3831    15.409757    13.345275    27.299365    5614.0445 
  970000      969.984    558.41465    22.953481   -436.09023   -413.13674   -407.30483    1573.6846    2589.0077   -5384.6069    15.409759    13.345277    27.299348    5614.0426 
  970500      970.484    565.89369    23.260905   -436.39241    -413.1315   -819.97915    1978.1339    6473.7371   -10911.808    15.409761    13.345279     27.29933    5614.0407 
  971000      970.984    576.45156    23.694883   -436.82094   -413.12606   -326.21713    1686.0426    5715.9301   -8380.6241    15.409764    13.345281    27.299313    5614.0388 
  971500      971.484    570.24022    23.439568   -436.55911   -413.11954    -78.26287    2337.3666    2955.8832   -5528.0384    15.409766    13.345283    27.299295     5614.037 
  972000      971.984    578.35611     23.77317   -436.88761   -413.11444   -517.79797    2195.0672    4095.6092   -7844.0703    15.409768    13.345285    27.299278    5614.0351 
  972500      972.484    598.51021    24.601598   -437.71132   -413.10972   -2572.3839   -2218.3459    4652.6325   -10151.438    15.409771    13.345287     27.29926    5614.0332 
  973000      972.984    588.80184    24.202538   -437.30569   -413.10316   -1533.8253    2993.4126    68.590872   -7663.4793    15.409773    13.345289    27.299243    5614.0314 
  973500      973.484     592.3999    24.350436   -437.44978   -413.09934   -289.37705   -1623.6987    2880.1862   -2124.6186    15.409775    13.345291    27.299225    5614.0295 
  974000      973.984    564.16012    23.189647   -436.28374   -413.09409    -1544.081    2261.9105    2050.4647   -8944.6182    15.409778    13.345293    27.299208    5614.0276 
  974500      974.484    577.67485    23.745166   -436.83331   -413.08814    -1648.457     1858.153    1753.1681   -8556.6919     15.40978    13.345295    27.299191    5614.0258 
  975000      974.984    563.54388    23.164317   -436.24577   -413.08146   -1275.4714   -192.71397    5111.2127   -8744.9131    15.409782    13.345297    27.299173    5614.0239 
  975500      975.484    596.11698    24.503225   -437.57979   -413.07656    -1487.709   -264.60757    5945.2187   -10143.738    15.409785    13.345299    27.299156     5614.022 
  976000      975.984    561.35585    23.074379    -436.1453   -413.07093   -381.52989    1157.1433     3621.115    -5922.848    15.409787    13.345302    27.299138    5614.0201 
  976500      976.484    593.15505    24.381476    -437.4453   -413.06383   -1561.7397   -946.22648    4710.8724   -8449.8652    15.409789    13.345304    27.299121    5614.0183 
  977000      976.984     570.1692    23.436649   -436.49392   -413.05727    -292.7037    3865.4789    6894.2634   -11637.853    15.409792    13.345306    27.299103    5614.0164 
  977500      977.484    581.85492    23.916987   -436.96956   -413.05257   -1202.8166   -1712.2856    5033.5947   -6929.7591    15.409794    13.345308    27.299086    5614.0145 
  978000      977.984    552.01439      22.6904   -435.73748   -413.04708   -1951.5709    387.95284    2673.0175   -8915.6829    15.409797     13.34531    27.299068    5614.0127 
  978500      978.484    571.30194     23.48321   -436.52357   -413.04036   -1632.2629    1347.9474    3133.7348   -9378.4708    15.409799    13.345312    27.299051    5614.0108 
  979000      978.984    555.18887    22.820886   -435.85428    -413.0334   -259.33376    3576.0868    4134.6534   -8488.7415    15.409801    13.345314    27.299033    5614.0089 
  979500      979.484    593.23279    24.384671   -437.41253   -413.02786   -1177.2587     344.0841    4634.9046   -8510.7648    15.409804    13.345316    27.299016    5614.0071 
  980000      979.984    586.37627    24.102836   -437.12395   -413.02111   -1543.9512   -1431.0122    4290.9301   -7491.7715    15.409806    13.345318    27.298999    5614.0052 
  980500      980.484    558.75035     22.96728   -435.98039   -413.01311    43.989358    1875.9833    2584.9983   -4329.0136    15.409808     13.34532    27.298981    5614.0033 
  981000      980.984    556.93868    22.892812   -435.89849   -413.00568   -1917.2541    1462.3648    5281.6937   -12495.821    15.409811    13.345322    27.298964    5614.0014 
  981500      981.484    598.15839    24.587137   -437.58568   -412.99854   -904.56755    2143.3293    4611.0022   -9468.0342    15.409813    13.345324    27.298946    5613.9996 
  982000      981.984    556.56188    22.877324   -435.86768   -412.99035    19.310021     1355.998     1812.948    -3111.016    15.409815    13.345326    27.298929    5613.9977 
  982500      982.484    572.03159    23.513202   -436.49871   -412.98551   -264.86071    172.72858    8431.6839   -9398.9946    15.409818    13.345328    27.298911    5613.9958 
  983000      982.984    606.39848    24.925843   -437.90543   -412.97959   -419.86444    2061.2419    6443.3198    -9764.155     15.40982     13.34533    27.298894     5613.994 
  983500      983.484    568.94203    23.386206   -436.35804   -412.97184   -1173.5387    2506.0979    2543.9253   -8570.6392    15.409822    13.345332    27.298876    5613.9921 
  984000      983.984    579.35013    23.814029   -436.77955   -412.96552   -779.07503    343.97946    1204.7433   -3885.9478    15.409825    13.345334    27.298859    5613.9902 
  984500      984.484    568.53389     23.36943   -436.32812   -412.95869   -284.20771   -407.69768    3962.6855    -4407.611    15.409827    13.345336    27.298842    5613.9884 
  985000      984.984    552.47843    22.709474    -435.6618   -412.95233   -487.32588    1310.0462    6385.5151   -9157.5389    15.409829    13.345338    27.298824    5613.9865 
  985500      985.484    593.50628    24.395913   -437.34127   -412.94536   -1355.8066   -2466.8422    3685.5065   -5286.0842    15.409832     13.34534    27.298807    5613.9846 
  986000      985.984    577.71364    23.746761   -436.68598   -412.93922   -1819.0592    -748.6021    8729.6647    -13438.24    15.409834    13.345343    27.298789    5613.9827 
  986500      986.484    563.18985    23.149765   -436.08139   -412.93163   -957.81874    3825.3019     726.4391   -7425.1972    15.409836    13.345345    27.298772    5613.9809 
  987000      986.984    578.28541    23.770263   -436.69643   -412.92617   -88.390596     537.2168    5746.8513   -6549.2399    15.409839    13.345347    27.298754     5613.979 
  987500      987.484    549.86385    22.602003   -435.51863   -412.91662   -321.08186    4031.0832    3556.1502    -8550.479    15.409841    13.345349    27.298737    5613.9771 
  988000      987.984    573.53931    23.575176   -436.48471   -412.90953   -277.90617    67.928038    5242.9482   -6144.5947    15.409844    13.345351    27.298719    5613.9753 
  988500      988.484    577.08852    23.721066   -436.62515   -412.90409    55.175343     1079.177    5399.4095   -6313.0605    15.409846    13.345353    27.298702    5613.9734 
  989000      988.984    558.72604    22.966281   -435.86223   -412.89595    -574.4222   -1640.6325    3733.4967   -3816.1308    15.409848    13.345355    27.298684    5613.9715 
  989500      989.484    584.49778    24.025621   -436.91625   -412.89063   -41.065419    93.966667    4424.4214   -4641.5843    15.409851    13.345357    27.298667    5613.9697 
  990000      989.984    569.57749    23.412327   -436.29622    -412.8839   -362.82636    4027.7034    1609.8543   -6726.0368    15.409853    13.345359     27.29865    5613.9678 
  990500      990.484    592.55981    24.357009   -437.23402   -412.87701   -438.75477    5171.8384    3043.4186   -9531.5213    15.409855    13.345361    27.298632    5613.9659 
  991000      990.984    583.00481    23.964253   -436.83183   -412.86757   -196.07896    2988.3746    1585.5227   -5162.1342    15.409858    13.345363    27.298615     5613.964 
  991500      991.484    598.69034    24.609002   -437.46945   -412.86045   -1570.3318    3.8836991    2734.6444   -7449.5236     15.40986    13.345365    27.298597    5613.9622 
  992000      991.984    576.62449    23.701992   -436.55314   -412.85115    368.11862    3018.3351    6212.3146   -8126.2938    15.409862    13.345367     27.29858    5613.9603 
  992500      992.484    578.53947    23.780706   -436.62564   -412.84493   -2411.3994    661.47528    1798.6434    -9694.317    15.409865    13.345369    27.298562    5613.9584 
  993000      992.984    580.71116    23.869973   -436.70578   -412.83581   -1212.8464   -585.70612    1580.4739   -4633.3068    15.409867    13.345371    27.298545    5613.9566 
  993500      993.484    572.08182    23.515266    -436.3427   -412.82743   -1570.6721   -1751.3466    1739.4669   -4700.1366    15.409869    13.345373    27.298527    5613.9547 
  994000      993.984    594.97854     24.45643   -437.27808   -412.82165   -1380.0911   -1940.2117    2563.3131   -4763.3747    15.409872    13.345375     27.29851    5613.9528 
  994500      994.484    587.46756    24.147693   -436.96162   -412.81393   -415.92047   -106.52418    2471.6266   -3612.8638    15.409874    13.345377    27.298493     5613.951 
  995000      994.984    570.50232    23.450342   -436.25632   -412.80598   -1386.4575     636.7034    2504.1127   -7300.1885    15.409876    13.345379    27.298475    5613.9491 
  995500      995.484    573.27908     23.56448   -436.36341   -412.79893    986.69263    2631.5095    4999.5268   -4670.9583    15.409879    13.345381    27.298458    5613.9472 
  996000      995.984    581.05384    23.884059   -436.67481   -412.79076   -462.33632    3239.4377    531.02178   -5157.4685    15.409881    13.345384     27.29844    5613.9453 
  996500      996.484    563.16742    23.148843   -435.92898   -412.78014    169.53078     2281.302     4363.272   -6135.9816    15.409883    13.345386    27.298423    5613.9435 
  997000      996.984     550.0631    22.610193   -435.38228   -412.77208    99.047419    549.16762    3966.4676    -4218.493    15.409886    13.345388    27.298405    5613.9416 
  997500      997.484    556.06549    22.856919    -435.6214   -412.76448   -219.71378   -2248.5977    5540.8671   -3951.4107    15.409888     13.34539    27.298388    5613.9397 
  998000      997.984    567.03119    23.307662   -436.06384   -412.75618   -317.82586   -376.16831      5245.12   -5822.4292    15.409891    13.345392     27.29837    5613.9379 
  998500      998.484    563.61116    23.167082   -435.91353   -412.74644     1252.621    3820.3216     4958.807   -5021.2658    15.409893    13.345394    27.298353     5613.936 
  999000      998.984    556.83213    22.888432   -435.62701   -412.73857   -886.48157    767.03067    3397.1312   -6823.6066    15.409895    13.345396    27.298335    5613.9341 
  999500      999.484    589.72313    24.240408   -436.97235   -412.73195    453.76402    544.26889    4557.7885   -3740.7653    15.409898    13.345398    27.298318    5613.9323 
 1000000      999.984    569.51042     23.40957   -436.13404   -412.72447   -1564.6099    911.35059    621.98895   -6227.1692      15.4099      13.3454    27.298301    5613.9304 
 1000016         1000    587.87923    24.164615   -436.88923   -412.72462    -1897.995    3170.8186    697.16709   -9561.9705      15.4099      13.3454      27.2983    5613.9303 
Loop time of 887.825 on 28 procs for 1000000 steps with 319 atoms

Performance: 97.316 ns/day, 0.247 hours/ns, 1126.348 timesteps/s
86.9% CPU use with 28 MPI tasks x no OpenMP threads

MPI task timing breakdown:
Section |  min time  |  avg time  |  max time  |%varavg| %total
---------------------------------------------------------------
Pair    | 727.29     | 775.19     | 802.63     |  67.4 | 87.31
Neigh   | 0.018451   | 0.027927   | 0.036429   |   2.8 |  0.00
Comm    | 75.114     | 100.79     | 147.16     | 180.2 | 11.35
Output  | 0.098942   | 0.10131    | 0.12304    |   1.3 |  0.01
Modify  | 4.7386     | 6.6545     | 8.4954     |  42.4 |  0.75
Other   |            | 5.066      |            |       |  0.57

Nlocal:    11.3929 ave 16 max 6 min
Histogram: 1 1 2 5 2 3 4 3 3 4
Nghost:    641.714 ave 682 max 582 min
Histogram: 2 3 3 0 1 2 3 3 5 6
Neighs:    708.679 ave 998 max 360 min
Histogram: 1 1 4 4 2 5 3 2 2 4
FullNghs:  1417.36 ave 2042 max 740 min
Histogram: 2 2 4 3 2 5 3 2 2 3

Total # of neighbors = 39686
Ave neighs/atom = 124.408
Neighbor list builds = 420
Dangerous builds = 0

write_restart   POSCAR_1x1x1.rest

#unfix    1
#undump   1
Total wall time: 0:14:48
