LAMMPS (7 Dec 2015)
#----------- Initialize Simulation ------------ restart01
#processors	2 2 2
units		metal
boundary	p p p     ## periodic boundary condition  on x y z axis ##
atom_style atomic
#atom_modify map array sort 0 0.0

read_data	POSCAR_1x1x1.lammps
  triclinic box = (0 0 0) to (15.4527 13.3825 26.9834) with tilt (-7.72625 0 0)
  2 by 2 by 7 MPI processor grid
  reading atoms ...
  319 atoms

#----------- Define Potential -----------------
pair_style meam
pair_coeff * * MgAlZn.library.meam Mg Al Zn MgAlZn.parameter.meam Mg Al Zn 	#1=Mg 2=Al 3=Zn	#atoms/mass

#----------- Neighbor List --------------------
neighbor 2.0 bin
neigh_modify delay 10 check yes

#--------------  Run a simulation (minimization) ---------------------------------------
minimize       1.0e-4   1.0e-6   100   1000          #結構優化的條件
WARNING: Resetting reneighboring criteria during minimization (../min.cpp:168)
Neighbor list info ...
  2 neighbor list requests
  update every 1 steps, delay 0 steps, check yes
  max neighbors/atom: 2000, page size: 100000
  master list distance cutoff = 8
  ghost atom cutoff = 8
  binsize = 4 -> bins = 6 4 7
Memory usage per processor = 8.65643 Mbytes
Step Temp E_pair E_mol TotEng Press 
       0            0   -434.87202            0   -434.87202   -354.72196 
      13            0   -457.81434            0   -457.81434   -18290.201 
Loop time of 0.0217488 on 28 procs for 13 steps with 319 atoms

86.6% CPU use with 28 MPI tasks x no OpenMP threads

Minimization stats:
  Stopping criterion = energy tolerance
  Energy initial, next-to-last, final = 
         -434.87202133     -457.779290649     -457.814335652
  Force two-norm initial, final = 21.3547 0.665549
  Force max component initial, final = 2.8243 0.127818
  Final line search alpha, max atom move = 0.347253 0.044385
  Iterations, force evaluations = 13 23

MPI task timing breakdown:
Section |  min time  |  avg time  |  max time  |%varavg| %total
---------------------------------------------------------------
Pair    | 0.017181   | 0.018466   | 0.01955    |   0.5 | 84.90
Neigh   | 0          | 0          | 0          |   0.0 |  0.00
Comm    | 0.0013134  | 0.0023876  | 0.0036317  |   1.3 | 10.98
Output  | 0          | 0          | 0          |   0.0 |  0.00
Modify  | 0          | 0          | 0          |   0.0 |  0.00
Other   |            | 0.0008954  |            |       |  4.12

Nlocal:    11.3929 ave 16 max 6 min
Histogram: 1 1 2 5 2 2 4 4 3 4
Nghost:    650.5 ave 684 max 593 min
Histogram: 3 1 0 1 2 1 4 7 7 2
Neighs:    711.036 ave 1018 max 364 min
Histogram: 2 0 4 5 2 0 7 2 4 2
FullNghs:  1422.07 ave 2002 max 748 min
Histogram: 2 0 7 2 0 2 6 2 5 2

Total # of neighbors = 39818
Ave neighs/atom = 124.821
Neighbor list builds = 0
Dangerous builds = 0
velocity all  create 600.0 4928459 #rot yes dist gaussian

#--------------  Run a simulation (Relaxation)  ----------------------------------------
fix  1  all  nvt   temp  600.0  600.0  100				#damping constant
#fix  2  all  npt   temp  393.0  393.0  50 iso 0.0 0.0 1000.0
fix  2  all deform 1 x final 0 15.4575 y final 0 13.3866 z final 0 26.9484 xy final -7.72865 units lattice
#fix  3  all  npt   temp  393.0  393.0  50 z 0.0 0.0 1000.0

#variable b equal 1
#fix 2 all efield  0.0  0.0  v_b
#compute pot all pe/atom


#----------- Output --------------------------
thermo	 500
timestep  0.001		#1.0 fs
thermo_style	custom step time temp ke pe etotal press pxx pyy pzz lx ly lz vol

dump 1 all custom 10000 dump.eq id type x y z
dump_modify 1 sort  id

run        1000000	#1000 ps
Neighbor list info ...
  2 neighbor list requests
  update every 1 steps, delay 10 steps, check yes
  max neighbors/atom: 2000, page size: 100000
  master list distance cutoff = 8
  ghost atom cutoff = 8
  binsize = 4 -> bins = 6 4 7
Memory usage per processor = 7.56256 Mbytes
Step Time Temp KinEng PotEng TotEng Press Pxx Pyy Pzz Lx Ly Lz Volume 
      13            0          600    24.662836   -457.81434    -433.1515   -13569.312   -10904.346   -8350.7361   -21452.854      15.4527      13.3825      26.9834    5580.0526 
     500        0.487    312.79706    12.857438   -446.00428   -433.14685   -7380.9667   -7828.5498   -1539.5711   -12774.779    15.452702    13.382502    26.983383    5580.0508 
    1000        0.987    306.93866     12.61663   -445.76276   -433.14613   -6367.3281   -7075.4317    -235.1565   -11791.396    15.452705    13.382504    26.983365    5580.0489 
    1500        1.487    312.02288    12.825615   -445.97189   -433.14627   -7505.0431   -6359.3031    -2162.225   -13993.601    15.452707    13.382506    26.983348     5580.047 
    2000        1.987    298.15139    12.255431   -445.39965   -433.14422   -7516.2306   -8646.3267   -2213.7289   -11688.636     15.45271    13.382508     26.98333    5580.0451 
    2500        2.487    308.57698    12.683972   -445.82677    -433.1428   -6860.0276   -7639.0826   -196.61772   -12744.382    15.452712     13.38251    26.983313    5580.0432 
    3000        2.987    332.33702    13.660622   -446.80171   -433.14109   -7186.4254    -8496.248   -3221.6176   -9841.4106    15.452714    13.382512    26.983295    5580.0413 
    3500        3.487    322.37476    13.251126   -446.39058   -433.13946   -6095.3523   -6708.9836   -25.655681   -11551.418    15.452717    13.382514    26.983278    5580.0394 
    4000        3.987    315.59761    12.972553    -446.1093   -433.13675    -7535.339   -6232.8541   -3702.1285   -12671.035    15.452719    13.382516     26.98326    5580.0375 
    4500        4.487     318.7724    13.103052   -446.23768   -433.13462   -6565.8343   -6294.2249   -1210.0909   -12193.187    15.452722    13.382518    26.983243    5580.0356 
    5000        4.987     302.3286    12.427134   -445.55751   -433.13037   -5907.7446   -6270.1136   -200.24438   -11252.876    15.452724     13.38252    26.983225    5580.0337 
    5500        5.487    306.40266    12.594597   -445.72211   -433.12751   -6582.6422   -6754.1023   -3405.9812   -9587.8429    15.452726    13.382522    26.983208    5580.0318 
    6000        5.987    325.40727    13.375777   -446.50056   -433.12478     -6596.81   -9258.3219   -2073.1201   -8458.9879    15.452729    13.382525     26.98319    5580.0299 
    6500        6.487    307.04569    12.621029    -445.7414   -433.12037   -7328.2866     -5654.05   -3745.4136   -12585.396    15.452731    13.382527    26.983173     5580.028 
    7000        6.987    302.10279    12.417853   -445.53361   -433.11576   -6077.4251   -8293.5855   -2061.5317   -7877.1582    15.452734    13.382529    26.983155    5580.0261 
    7500        7.487     309.0926    12.705167   -445.81681   -433.11164   -6261.3687   -9457.7648   -2181.5446   -7144.7966    15.452736    13.382531    26.983138    5580.0242 
    8000        7.987    301.72146    12.402178   -445.50892   -433.10674   -6879.7686   -5117.5307   -3094.4321   -12427.343    15.452738    13.382533     26.98312    5580.0223 
    8500        8.487    313.62196    12.891345   -445.99294   -433.10159   -6238.4245   -5887.7665   -3316.4688   -9511.0381    15.452741    13.382535    26.983103    5580.0204 
    9000        8.987     314.0365    12.908384   -446.00464   -433.09625   -7051.2138   -7466.7586   -566.28783   -13120.595    15.452743    13.382537    26.983085    5580.0185 
    9500        9.487    302.83219    12.447834   -445.53835   -433.09052   -6025.6396   -7539.1513   -3115.4123   -7422.3551    15.452746    13.382539    26.983068    5580.0166 
   10000        9.987    321.23516    13.204283   -446.28882   -433.08454   -5868.9766    -6739.751   -3138.6539   -7728.5248    15.452748    13.382541     26.98305    5580.0147 
   10500       10.487    323.74572    13.307479   -446.38586   -433.07838    -6771.458   -8712.1539   -2273.2064   -9329.0136     15.45275    13.382543    26.983033    5580.0129 
   11000       10.987    342.38437    14.073616   -447.14568   -433.07206   -7278.5505   -8822.4895    -1108.639   -11904.523    15.452753    13.382545    26.983015     5580.011 
   11500       11.487     313.9067    12.903049   -445.96768   -433.06463   -7292.5016   -4803.0071   -4669.1538   -12405.344    15.452755    13.382547    26.982998    5580.0091 
   12000       11.987    312.30689    12.837289   -445.89467   -433.05738   -6794.0814   -4758.1772   -4223.1174   -11400.949    15.452758    13.382549     26.98298    5580.0072 
   12500       12.487    293.38965    12.059701   -445.10929   -433.04958    -6091.225   -6682.2059   -3405.3144   -8186.1547     15.45276    13.382551    26.982963    5580.0053 
   13000       12.987      298.875    12.285175   -445.32719   -433.04201   -5386.7908   -5895.4812   -795.86353   -9469.0278    15.452762    13.382553    26.982945    5580.0034 
   13500       13.487    318.93344    13.109672   -446.14375   -433.03408   -6895.4728   -8266.9383   -1596.5259   -10822.954    15.452765    13.382555    26.982928    5580.0015 
   14000       13.987    306.41079    12.594931   -445.62047   -433.02554    -6592.785    -8156.538   -1145.1435   -10476.674    15.452767    13.382557     26.98291    5579.9996 
   14500       14.487    315.96151    12.987511   -446.00443   -433.01692   -7080.4844   -8515.8593   -2005.0156   -10720.578     15.45277    13.382559    26.982893    5579.9977 
   15000       14.987    315.15353      12.9543   -445.96208   -433.00778   -6770.6997   -6722.2998   -2726.8658   -10862.933    15.452772    13.382561    26.982875    5579.9958 
   15500       15.487    297.24409    12.218137   -445.21528   -432.99714    -6094.838   -6995.1899   -925.94432    -10363.38    15.452774    13.382563    26.982858    5579.9939 
   16000       15.987    324.42401     13.33536   -446.32386    -432.9885   -7252.6182   -8944.6792   -2582.4619   -10230.714    15.452777    13.382566     26.98284     5579.992 
   16500       16.487    312.20285    12.833012   -445.81092    -432.9779   -6740.0498   -6588.3815   -3997.7319   -9634.0361    15.452779    13.382568    26.982823    5579.9901 
   17000       16.987    313.56807     12.88913   -445.85663    -432.9675   -7234.7882   -8780.0781   -1570.4431   -11353.843    15.452782     13.38257    26.982805    5579.9882 
   17500       17.487    315.81428     12.98146   -445.93852   -432.95706   -7479.6424   -6548.6517    -2714.225    -13176.05    15.452784    13.382572    26.982788    5579.9863 
   18000       17.987    345.57794    14.204887   -447.15205   -432.94716   -6876.0686   -8145.7005   -1254.1321   -11228.373    15.452786    13.382574     26.98277    5579.9844 
   18500       18.487     311.6587    12.810646    -445.7458   -432.93515   -6816.5676   -7706.4519   -3044.9281   -9698.3227    15.452789    13.382576    26.982753    5579.9825 
   19000       18.987    312.47415    12.844164   -445.76755   -432.92339    -6368.372   -5390.1158   -1782.0451   -11932.955    15.452791    13.382578    26.982735    5579.9806 
   19500       19.487    302.53258    12.435519   -445.34694   -432.91142   -6715.6928   -5140.3937   -3445.2231   -11561.461    15.452794     13.38258    26.982718    5579.9787 
   20000       19.987    296.56791    12.190343   -445.08945   -432.89911   -6397.6244   -6398.3245   -2081.5798   -10712.969    15.452796    13.382582      26.9827    5579.9768 
   20500       20.487    316.30346    13.001567   -445.88867    -432.8871   -7013.1146   -9082.2925   -3133.1594   -8823.8918    15.452798    13.382584    26.982683    5579.9749 
   21000       20.987    332.49282    13.667026   -446.54128   -432.87426   -7367.0561   -8370.1407   -3119.0024   -10612.025    15.452801    13.382586    26.982665     5579.973 
   21500       21.487    335.15417     13.77642   -446.63865   -432.86223   -6680.5063    -6929.181   -639.77291   -12472.565    15.452803    13.382588    26.982648    5579.9711 
   22000       21.987    314.93226    12.945204   -445.79331   -432.84811   -6105.6005   -8307.4207   -3036.5761   -6972.8047    15.452806     13.38259     26.98263    5579.9692 
   22500       22.487    312.09121    12.828424   -445.66284   -432.83442   -6077.6839   -5923.2834   -1656.2877   -10653.481    15.452808    13.382592    26.982613    5579.9673 
   23000       22.987    321.34275    13.208706   -446.02944   -432.82073   -6409.2475   -7706.0294    -1997.961   -9523.7521     15.45281    13.382594    26.982595    5579.9654 
   23500       23.487    320.88756    13.189995   -445.99711   -432.80711    -5677.386   -8404.8309   -1869.6298   -6757.6972    15.452813    13.382596    26.982578    5579.9635 
   24000       23.987    325.52149    13.380472   -446.17354   -432.79306    -7054.423   -7597.5786   -3280.8304    -10284.86    15.452815    13.382598     26.98256    5579.9616 
   24500       24.487    324.73466    13.348129   -446.12658   -432.77845   -6727.6666   -6499.8892   -3192.5504    -10490.56    15.452818      13.3826    26.982543    5579.9597 
   25000       24.987    319.13367    13.117902   -445.88115   -432.76325   -6746.9734   -7590.5327    11.251681   -12661.639     15.45282    13.382602    26.982525    5579.9578 
   25500       25.487    321.42451    13.212066   -445.95996   -432.74789   -6382.3467   -6346.1101   -1315.5445   -11485.386    15.452822    13.382604    26.982508    5579.9559 
   26000       25.987    313.76484    12.897218   -445.62953   -432.73231   -5909.4492   -7673.3027   -1764.4165   -8290.6284    15.452825    13.382607     26.98249     5579.954 
   26500       26.487    323.92076    13.314674   -446.03195   -432.71728   -5451.4064   -7439.2372   -787.74836   -8127.2338    15.452827    13.382609    26.982473    5579.9521 
   27000       26.987    329.17474    13.530637   -446.23183   -432.70119   -6643.2573    -6608.709   -1489.8235   -11831.239     15.45283    13.382611    26.982455    5579.9502 
   27500       27.487    312.55604     12.84753   -445.53272   -432.68519   -5427.7246   -5426.5765   -2267.1339   -8589.4634    15.452832    13.382613    26.982438    5579.9483 
   28000       27.987    325.59566     13.38352   -446.05273   -432.66921   -6199.6481   -5788.6548   -2820.7183   -9989.5712    15.452834    13.382615     26.98242    5579.9464 
   28500       28.487    327.94439    13.480064   -446.13248   -432.65242     -6426.77   -6847.9636    -2439.572   -9992.7745    15.452837    13.382617    26.982403    5579.9445 
   29000       28.987    318.34265    13.085388   -445.72108   -432.63569   -6951.9231   -8343.6777   -5497.7616   -7014.3299    15.452839    13.382619    26.982385    5579.9426 
   29500       29.487    314.05142    12.908997   -445.52783   -432.61883   -6771.7145   -7445.8376    -1055.698   -11813.608    15.452842    13.382621    26.982368    5579.9407 
   30000       29.987    303.88453     12.49109   -445.09221   -432.60112   -6134.3782   -5885.8535   -2657.4615   -9859.8197    15.452844    13.382623     26.98235    5579.9388 
   30500       30.487    326.75686    13.431251    -446.0151   -432.58385   -7597.5509   -7690.7417   -2299.8956   -12802.015    15.452846    13.382625    26.982333    5579.9369 
   31000       30.987     321.0921    13.198403   -445.76498   -432.56658   -6806.6532   -6946.8795   -485.08396   -12987.996    15.452849    13.382627    26.982315    5579.9351 
   31500       31.487     320.1075    13.157931   -445.70727   -432.54934   -5882.2576   -7313.5264    503.99112   -10837.238    15.452851    13.382629    26.982298    5579.9332 
   32000       31.987     330.7161    13.593995   -446.12534   -432.53134   -5202.9463   -7941.8988    1948.8711   -9615.8111    15.452854    13.382631     26.98228    5579.9313 
   32500       32.487    320.12493    13.158648   -445.67198   -432.51334   -6504.5416   -6439.3581   -1819.4504   -11254.816    15.452856    13.382633    26.982263    5579.9294 
   33000       32.987    318.67629    13.099102   -445.59435   -432.49525   -6858.4763    -7006.434   -1959.6245    -11609.37    15.452858    13.382635    26.982245    5579.9275 
   33500       33.487    316.45784    13.007913   -445.48576   -432.47784   -6520.8388   -7905.9984    -2503.445   -9153.0731    15.452861    13.382637    26.982228    5579.9256 
   34000       33.987    326.31567    13.413116    -445.8723   -432.45918   -6625.3443   -7244.4022   -350.02271   -12281.608    15.452863    13.382639     26.98221    5579.9237 
   34500       34.487    309.85512     12.73651   -445.17678   -432.44027   -4764.0556   -4727.7522   -2982.6075   -6581.8069    15.452866    13.382641    26.982193    5579.9218 
   35000       34.987    316.88976    13.025667    -445.4479   -432.42223   -5936.5806    -6897.718    -2061.138   -8850.8857    15.452868    13.382643    26.982175    5579.9199 
   35500       35.487    330.05657    13.566885   -445.97019    -432.4033   -5591.4654    -7338.836   -1160.1081    -8275.452     15.45287    13.382645    26.982158     5579.918 
   36000       35.987    312.51892    12.846005   -445.23005   -432.38405   -5475.2169   -7125.8299    1274.8851   -10574.706    15.452873    13.382648     26.98214    5579.9161 
   36500       36.487    336.24054    13.821075   -446.18636   -432.36528   -6148.0836    -6222.848   -2810.3477    -9411.055    15.452875     13.38265    26.982123    5579.9142 
   37000       36.987    319.18859     13.12016   -445.46581   -432.34565   -6910.1378   -8313.4117   -1613.2584   -10803.743    15.452878    13.382652    26.982105    5579.9123 
   37500       37.487    329.19765    13.531579   -445.85858     -432.327   -6048.0617   -5001.5925   -2991.4756   -10151.117     15.45288    13.382654    26.982088    5579.9104 
   38000       37.987    330.42878    13.582185   -445.89071   -432.30852   -6420.4423   -8230.1003   -641.10281   -10390.124    15.452882    13.382656     26.98207    5579.9085 
   38500       38.487    306.84216    12.612663   -444.90147   -432.28881   -5305.0617   -6352.9232   -1700.2057   -7862.0564    15.452885    13.382658    26.982053    5579.9066 
   39000       38.987    346.02852    14.223407   -446.49366   -432.27026   -7478.1856   -6641.4908   -1927.2674   -13865.799    15.452887     13.38266    26.982035    5579.9047 
   39500       39.487    327.69666    13.469881   -445.72067   -432.25079   -7684.4236   -7947.5936   -2040.0327   -13065.645     15.45289    13.382662    26.982018    5579.9028 
   40000       39.987    299.96948    12.330163   -444.56138   -432.23122   -5534.7806   -5816.0529   -611.96271   -10176.326    15.452892    13.382664       26.982    5579.9009 
   40500       40.487    318.35285    13.085807   -445.29819   -432.21239   -5976.7127   -5133.7665     -25.7133   -12770.658    15.452894    13.382666    26.981983     5579.899 
   41000       40.987     314.5908    12.931169   -445.12385   -432.19268   -5738.7618   -6104.3852   -587.83866   -10524.062    15.452897    13.382668    26.981965    5579.8971 
   41500       41.487    337.20163    13.860581   -446.03515   -432.17457   -5734.7792   -5184.6479   -1151.2078   -10868.482    15.452899     13.38267    26.981948    5579.8952 
   42000       41.987    322.25806    13.246329   -445.40133     -432.155   -6169.4999   -8107.0061   -2316.9602   -8084.5336    15.452902    13.382672     26.98193    5579.8933 
   42500       42.487     329.6369    13.549635   -445.68546   -432.13583   -5875.7154   -6801.9125   -3389.2796   -7435.9542    15.452904    13.382674    26.981913    5579.8914 
   43000       42.987    330.80733    13.597745   -445.71456   -432.11681   -6330.1574   -6410.4249   -2500.0981   -10079.949    15.452906    13.382676    26.981895    5579.8895 
   43500       43.487    328.69703    13.511001   -445.60868   -432.09768   -5438.0917   -6919.5174   -1602.6271   -7792.1306    15.452909    13.382678    26.981878    5579.8876 
   44000       43.987     338.8027    13.926392   -446.00498   -432.07859   -6990.1862   -6873.4931   -2718.8674   -11378.198    15.452911     13.38268     26.98186    5579.8857 
   44500       44.487    325.28573    13.370781   -445.42994   -432.05916   -6301.8636   -8393.2717   -2823.9146   -7688.4045    15.452914    13.382682    26.981843    5579.8838 
   45000       44.987    310.98598    12.782994   -444.82377   -432.04078   -5740.2073   -6641.2656   -2212.1961   -8367.1604    15.452916    13.382684    26.981825    5579.8819 
   45500       45.487    324.43309    13.335733   -445.35793   -432.02219    -5815.753   -5794.1576   -2779.6953    -8873.406    15.452918    13.382686    26.981808      5579.88 
   46000       45.987     321.7984    13.227435   -445.23038   -432.00295    -6218.218   -4984.3678   -345.71235   -13324.574    15.452921    13.382689     26.98179    5579.8781 
   46500       46.487    325.83816    13.393488   -445.37772   -431.98423   -6228.3592   -7151.8285   -4165.1262   -7368.1228    15.452923    13.382691    26.981773    5579.8762 
   47000       46.987    323.87483    13.312786   -445.27852   -431.96573   -5747.1456   -4511.7508   -2502.8268   -10226.859    15.452926    13.382693    26.981755    5579.8743 
   47500       47.487    331.64053    13.631993   -445.57934   -431.94734   -5517.7458     -4786.35   -393.33009   -11373.557    15.452928    13.382695    26.981738    5579.8724 
   48000       47.987    354.65883    14.578154   -446.50736    -431.9292   -6846.8264   -7847.2534   -3804.5607    -8888.665     15.45293    13.382697     26.98172    5579.8705 
   48500       48.487    346.04578    14.224117   -446.13469   -431.91058   -4773.2324   -3357.9104   -1315.9188   -9645.8681    15.452933    13.382699    26.981703    5579.8686 
   49000       48.987    343.11277    14.103556    -445.9958   -431.89224   -5981.5133   -5433.9269   -3619.0537   -8891.5594    15.452935    13.382701    26.981685    5579.8667 
   49500       49.487    344.62997    14.165921   -446.03961   -431.87369   -6352.8001   -5256.2565   -2731.2558   -11070.888    15.452938    13.382703    26.981668    5579.8648 
   50000       49.987    349.14725    14.351602   -446.20748   -431.85588   -6893.9061   -7617.6752   -1178.6753   -11885.368     15.45294    13.382705     26.98165    5579.8629 
   50500       50.487    326.81624    13.433692   -445.27141   -431.83772   -7200.1369   -9390.9025   -1288.7205   -10920.788    15.452942    13.382707    26.981633     5579.861 
   51000       50.987    303.25176     12.46508   -444.28437   -431.81929   -5238.6241   -6172.1839   -1499.1174    -8044.571    15.452945    13.382709    26.981615    5579.8591 
   51500       51.487    330.77563    13.596442    -445.3989   -431.80246   -6095.2243   -7617.7379   -791.13166   -9876.8033    15.452947    13.382711    26.981598    5579.8572 
   52000       51.987    331.32423    13.618992   -445.40327   -431.78428   -5318.8631   -5119.6057    295.75414   -11132.738     15.45295    13.382713     26.98158    5579.8553 
   52500       52.487    327.52731    13.462921   -445.22983   -431.76691   -4963.7042   -6314.5168    764.56779   -9341.1636    15.452952    13.382715    26.981563    5579.8535 
   53000       52.987    325.89805     13.39595   -445.14519   -431.74924   -6295.9724   -8377.6805   -2516.2053   -7994.0314    15.452954    13.382717    26.981545    5579.8516 
   53500       53.487    345.92247    14.219048   -445.95145    -431.7324   -5804.2864   -4118.0373   -3138.1903   -10156.632    15.452957    13.382719    26.981528    5579.8497 
   54000       53.987    360.85358    14.832788   -446.54786   -431.71507   -6343.1125   -4307.8161   -1536.6891   -13184.832    15.452959    13.382721     26.98151    5579.8478 
   54500       54.487    353.44136     14.52811   -446.22636   -431.69825   -6429.3305   -6438.9841   -2564.6632   -10284.344    15.452962    13.382723    26.981493    5579.8459 
   55000       54.987     349.5965    14.370069   -446.05098   -431.68091   -5124.5294   -5461.5188   -109.24925   -9802.8201    15.452964    13.382725    26.981475     5579.844 
   55500       55.487    327.50473    13.461992   -445.12529    -431.6633   -5047.5773   -7790.8076   -996.80526   -6355.1191    15.452966    13.382727    26.981458    5579.8421 
   56000       55.987    336.86321     13.84667   -445.49313   -431.64646   -6686.9906   -6488.5246   -577.72509   -12994.722    15.452969     13.38273     26.98144    5579.8402 
   56500       56.487    347.16768    14.270233   -445.89981   -431.62958    -5136.958   -6991.9668   -1359.6536   -7059.2535    15.452971    13.382732    26.981423    5579.8383 
   57000       56.987     349.9655    14.385236    -445.9984   -431.61316    -7236.106    -6572.768   -2090.4618   -13045.088    15.452974    13.382734    26.981405    5579.8364 
   57500       57.487    342.41923    14.075048   -445.67112   -431.59607   -5901.2998   -5464.4751   -432.90979   -11806.514    15.452976    13.382736    26.981388    5579.8345 
   58000       57.987    345.17535    14.188338    -445.7685   -431.58016   -5888.8806   -7966.8314   -84.392958   -9615.4175    15.452978    13.382738     26.98137    5579.8326 
   58500       58.487    332.06912     13.64961   -445.21296   -431.56335   -6898.6672   -9162.3903   -865.78361   -10667.828    15.452981     13.38274    26.981353    5579.8307 
   59000       58.987    356.39807    14.649645   -446.19682   -431.54717   -5685.3749   -5643.3733   -972.53322   -10440.218    15.452983    13.382742    26.981335    5579.8288 
   59500       59.487    320.53887    13.175662   -444.70598   -431.53032   -6232.3996   -7514.7871    1578.7817   -12761.193    15.452986    13.382744    26.981318    5579.8269 
   60000       59.987    335.02946    13.771294   -445.28536   -431.51406   -4808.5166   -7364.2454   -291.39642    -6769.908    15.452988    13.382746      26.9813     5579.825 
   60500       60.487    344.83102    14.174185   -445.67215   -431.49796   -6077.7355   -7518.9114   -1978.7151   -8735.5801     15.45299    13.382748    26.981283    5579.8231 
   61000       60.987    311.48767    12.803615   -444.28454   -431.48092     -5008.03   -6825.6336    914.69302   -9113.1495    15.452993     13.38275    26.981265    5579.8212 
   61500       61.487    339.68684    13.962735   -445.42892   -431.46618   -5084.9444   -6517.7205    1189.0553    -9926.168    15.452995    13.382752    26.981248    5579.8193 
   62000       61.987    354.84381    14.585758   -446.03546    -431.4497   -6308.5376   -5657.3124   -2866.0196   -10402.281    15.452998    13.382754     26.98123    5579.8174 
   62500       62.487    339.10983    13.939017   -445.37289   -431.43387   -6255.3094   -5504.2143   -1367.5341    -11894.18       15.453    13.382756    26.981213    5579.8155 
   63000       62.987    340.88748    14.012086   -445.43018    -431.4181   -5302.2752   -6028.7676   -671.84062   -9206.2172    15.453002    13.382758    26.981195    5579.8136 
   63500       63.487    335.41275    13.787049   -445.18913   -431.40208   -5139.1863   -5302.3396   -1415.5404   -8699.6789    15.453005     13.38276    26.981178    5579.8117 
   64000       63.987    339.83516    13.968831   -445.35517   -431.38634   -5065.8889   -6003.5326   -577.69596   -8616.4383    15.453007    13.382762     26.98116    5579.8098 
   64500       64.487    315.33033    12.961567   -444.33131   -431.36975    -4659.175   -5616.1846   -621.05224   -7740.2881     15.45301    13.382764    26.981143    5579.8079 
   65000       64.987     344.9555    14.179301   -445.53407   -431.35477   -4738.4691    -7140.107   -101.50405   -6973.7964    15.453012    13.382766    26.981125     5579.806 
   65500       65.487    328.88668    13.518797   -444.85772   -431.33892   -5329.6619   -6648.7454   -911.54549   -8428.6948    15.453014    13.382768    26.981108    5579.8041 
   66000       65.987    317.84696    13.065012   -444.38809   -431.32308   -5929.2889   -8526.7405   -1757.1166   -7504.0094    15.453017    13.382771     26.98109    5579.8022 
   66500       66.487    314.78216    12.939035   -444.24657   -431.30753   -6072.0306   -6277.6419   -1698.9715   -10239.478    15.453019    13.382773    26.981073    5579.8003 
   67000       66.987     348.6837    14.332548   -445.62554   -431.29299    -6020.597    -6256.219   -1896.5687   -9909.0033    15.453022    13.382775    26.981055    5579.7984 
   67500       67.487    339.99069    13.975224   -445.25256   -431.27734   -5202.6489   -5446.0054   -978.72136     -9183.22    15.453024    13.382777    26.981038    5579.7965 
   68000       67.987    339.90584    13.971737   -445.23322   -431.26149   -5591.6921    -7097.589   -56.223938   -9621.2634    15.453026    13.382779     26.98102    5579.7946 
   68500       68.487    313.72518    12.895588   -444.14058   -431.24499   -6233.2185   -6249.2006   -152.84794   -12297.607    15.453029    13.382781    26.981003    5579.7927 
   69000       68.987    349.88886    14.382086   -445.61274   -431.23065   -6033.6657   -6215.5976   -4198.1304   -7687.2689    15.453031    13.382783    26.980985    5579.7908 
   69500       69.487     326.1013    13.404305   -444.61862   -431.21432   -4964.8764   -4212.0475    195.35681   -10877.939    15.453034    13.382785    26.980968    5579.7889 
   70000       69.987    327.54674    13.463719   -444.66226   -431.19854   -4976.0625   -8689.5459    1221.9324   -7460.5739    15.453036    13.382787     26.98095     5579.787 
   70500       70.487    337.96483    13.891952   -445.07473   -431.18278     -5394.18   -5845.7249   -306.94616   -10029.869    15.453038    13.382789    26.980933    5579.7851 
   71000       70.987    332.36042    13.661584   -444.82904   -431.16746   -5692.1703    -6695.122   -1690.0225   -8691.3664    15.453041    13.382791    26.980915    5579.7832 
   71500       71.487    349.72197    14.375226   -445.52656   -431.15133   -5341.8404   -4745.8966   -842.75447    -10436.87    15.453043    13.382793    26.980898    5579.7813 
   72000       71.987    334.45699    13.747763   -444.88343   -431.13566   -6004.9541    -4487.739    170.52894   -13697.652    15.453046    13.382795     26.98088    5579.7794 
   72500       72.487    356.30137     14.64567   -445.76568   -431.12001   -6476.5016   -7051.6445   -1102.4492   -11275.411    15.453048    13.382797    26.980863    5579.7775 
   73000       72.987    340.72935    14.005587   -445.10963   -431.10404    -5587.002   -2201.1057   -1359.5852   -13200.315     15.45305    13.382799    26.980845    5579.7756 
   73500       73.487    334.48448    13.748893   -444.83689     -431.088   -5209.4617   -5399.7481    149.59286    -10378.23    15.453053    13.382801    26.980828    5579.7737 
   74000       73.987    359.26687    14.767566   -445.84049   -431.07293   -5498.5887   -6876.4816   -751.66961   -8867.6149    15.453055    13.382803     26.98081    5579.7718 
   74500       74.487    332.82656    13.680744   -444.73734   -431.05659   -6841.3782   -6877.8951   -1999.0026   -11647.237    15.453058    13.382805    26.980793      5579.77 
   75000       74.987    329.96621    13.563171   -444.60399   -431.04082   -5487.0961   -5890.3378    -4656.916   -5914.0345     15.45306    13.382807    26.980775    5579.7681 
   75500       75.487    346.13275    14.227692   -445.25249   -431.02479   -5939.5723   -6022.7722    -1178.398   -10617.547    15.453062    13.382809    26.980758    5579.7662 
   76000       75.987    339.44513    13.952799   -444.96157   -431.00877   -5459.1172   -8534.2269   -1033.7823   -6809.3425    15.453065    13.382812     26.98074    5579.7643 
   76500       76.487    340.13602    13.981198   -444.97384   -430.99264   -3676.9344     -4874.97    909.44024   -7065.2734    15.453067    13.382814    26.980723    5579.7624 
   77000       76.987    328.37586      13.4978   -444.47378   -430.97598   -5793.6433    -5956.311   -354.73633   -11069.882     15.45307    13.382816    26.980705    5579.7605 
   77500       77.487    329.95044    13.562523   -444.52197   -430.95945   -5421.9007   -7074.4671   -711.34532   -8479.8898    15.453072    13.382818    26.980688    5579.7586 
   78000       77.987    338.55676    13.916283    -444.8593   -430.94302    -4193.586   -6357.0747   -1046.0577   -5177.6255    15.453074     13.38282     26.98067    5579.7567 
   78500       78.487     336.1604    13.817781   -444.74415   -430.92637   -5941.0826   -6364.4579   -2266.8743   -9191.9155    15.453077    13.382822    26.980653    5579.7548 
   79000       78.987    343.34991    14.113304   -445.02375   -430.91044   -5670.9263   -5106.2825   -4424.9543   -7481.5421    15.453079    13.382824    26.980635    5579.7529 
   79500       79.487     346.1772    14.229519   -445.12275   -430.89324   -5251.9784   -4640.5289   -461.93927   -10653.467    15.453082    13.382826    26.980618     5579.751 
   80000       79.987    345.64041    14.207454   -445.08417   -430.87671   -5136.3989   -5232.2706   -2191.1854   -7985.7408    15.453084    13.382828      26.9806    5579.7491 
   80500       80.487    342.28314    14.069455    -444.9294   -430.85994   -5244.5259   -6175.5599   -500.57225   -9057.4456    15.453086     13.38283    26.980583    5579.7472 
   81000       80.987    333.07503    13.690958   -444.53379   -430.84283   -4772.9411   -5760.4114   -1353.9972   -7204.4146    15.453089    13.382832    26.980565    5579.7453 
   81500       81.487    348.01599    14.305102   -445.13131   -430.82621   -5936.5197   -6443.2926    -1368.079   -9998.1876    15.453091    13.382834    26.980548    5579.7434 
   82000       81.987    358.53154    14.737341   -445.54643   -430.80909    -5377.728   -5460.3287    716.57931   -11389.435    15.453094    13.382836     26.98053    5579.7415 
   82500       82.487     343.5722    14.122441   -444.91514   -430.79269   -5514.3705   -5382.4039   -1870.2382   -9290.4693    15.453096    13.382838    26.980513    5579.7396 
   83000       82.987    356.26785    14.644292   -445.42016   -430.77587   -5892.5622   -4163.8839   -4427.6463   -9086.1563    15.453098     13.38284    26.980495    5579.7377 
   83500       83.487    337.24738    13.862461   -444.62061   -430.75814   -5196.4337   -6688.8363   -2684.2549   -6216.2098    15.453101    13.382842    26.980478    5579.7358 
   84000       83.987    339.73885    13.964873   -444.70557   -430.74069   -5634.8222   -6629.6185   -859.69789   -9415.1502    15.453103    13.382844     26.98046    5579.7339 
   84500       84.487    328.25243    13.492726   -444.21623    -430.7235   -4713.3311   -5934.8907    436.72248   -8641.8252    15.453106    13.382846    26.980443     5579.732 
   85000       84.987    332.51611    13.667984   -444.37402   -430.70603   -5445.8702     -8385.07   -1118.8084   -6833.7322    15.453108    13.382848    26.980425    5579.7301 
   85500       85.487     342.7754    14.089689   -444.77752   -430.68783   -6003.2094   -6037.5616   -2302.8424   -9669.2242     15.45311     13.38285    26.980408    5579.7282 
   86000       85.987    343.42748    14.116493   -444.78742   -430.67093   -4487.6949   -4358.4442   -2119.2613   -6985.3792    15.453113    13.382853     26.98039    5579.7263 
   86500       86.487    334.27421     13.74025   -444.39295    -430.6527   -6206.8676   -5416.9125      -202.21    -13001.48    15.453115    13.382855    26.980373    5579.7244 
   87000       86.987    356.50514    14.654046   -445.28922   -430.63517   -5732.2919   -6050.5598     -1454.69   -9691.6261    15.453118    13.382857    26.980355    5579.7225 
   87500       87.487    351.97594    14.467875   -445.08514   -430.61726   -6047.4602    -6542.239   -477.35627   -11122.785     15.45312    13.382859    26.980338    5579.7206 
   88000       87.987    364.98744    15.002709   -445.60231    -430.5996   -7115.8178   -7057.8022   -3021.1709    -11268.48    15.453122    13.382861     26.98032    5579.7187 
   88500       88.487     371.7502     15.28069    -445.8624   -430.58171   -4808.2108   -4050.4973   -919.88339   -9454.2517    15.453125    13.382863    26.980303    5579.7168 
   89000       88.987    366.60305    15.069118   -445.63299   -430.56387   -5862.2398   -4924.6416   -4937.4652   -7724.6126    15.453127    13.382865    26.980285    5579.7149 
   89500       89.487    340.03464    13.977031   -444.52227   -430.54524   -5000.7968   -3376.6155    -4084.357   -7541.4178     15.45313    13.382867    26.980268     5579.713 
   90000       89.987    342.28017    14.069333   -444.59597   -430.52664   -5369.5406   -5299.0292   -1726.5707    -9083.022    15.453132    13.382869     26.98025    5579.7111 
   90500       90.487    364.99554    15.003042   -445.51161   -430.50857   -4920.0151   -4917.0792   -1823.1653   -8019.8008    15.453134    13.382871    26.980233    5579.7092 
   91000       90.987    350.46666    14.405836   -444.89571   -430.48988   -5473.7088    -5293.973    -2180.056   -8947.0973    15.453137    13.382873    26.980215    5579.7073 
   91500       91.487    359.01335    14.757146   -445.22858   -430.47143   -6198.0982   -7250.9357   -2923.9051   -8419.4537    15.453139    13.382875    26.980198    5579.7054 
   92000       91.987    352.01814    14.469609   -444.92184   -430.45223   -6234.4495   -6239.1393   -3026.7726   -9437.4367    15.453142    13.382877     26.98018    5579.7035 
   92500       92.487    357.42828    14.691992   -445.12569    -430.4337    -5210.039   -8866.6286    327.25584   -7090.7443    15.453144    13.382879    26.980163    5579.7016 
   93000       92.987    363.91242     14.95852   -445.37323   -430.41471   -5395.9508   -4857.8041   -2612.8691   -8717.1792    15.453146    13.382881    26.980145    5579.6997 
   93500       93.487    331.31913    13.618782   -444.01386   -430.39508   -5053.1241   -6787.0372    1681.4087   -10053.744    15.453149    13.382883    26.980128    5579.6978 
   94000       93.987    352.17805    14.476182   -444.85309   -430.37691   -4985.6004   -5676.0207    892.09824   -10172.879    15.453151    13.382885     26.98011    5579.6959 
   94500       94.487    345.70702    14.210192   -444.56743   -430.35724   -4939.9053    -3494.619     -1873.49   -9451.6069    15.453154    13.382887    26.980093     5579.694 
   95000       94.987    349.77112    14.377246    -444.7157   -430.33845   -6024.9615   -10466.728    913.72231   -8521.8786    15.453156    13.382889    26.980075    5579.6921 
   95500       95.487     362.9062     14.91716    -445.2362   -430.31904   -4995.4302   -5753.9196   -1290.7055   -7941.6655    15.453158    13.382891    26.980058    5579.6902 
   96000       95.987    352.70149    14.497698   -444.79719   -430.29949   -5709.2772   -4065.8433   -2418.9196   -10643.069    15.453161    13.382894     26.98004    5579.6883 
   96500       96.487    387.12468    15.912654   -446.19283   -430.28017    -6838.132   -6313.5366   -2892.9194    -11307.94    15.453163    13.382896    26.980023    5579.6864 
   97000       96.987    356.48684    14.653294   -444.91363   -430.26034   -5375.8822   -6513.8412   -3343.9213   -6269.8841    15.453166    13.382898    26.980005    5579.6845 
   97500       97.487    334.92722    13.767092    -444.0074   -430.24031   -4675.8283   -5063.1775   -1611.6345    -7352.673    15.453168      13.3829    26.979988    5579.6827 
   98000       97.987     371.5133    15.270952   -445.49194   -430.22099   -5966.0213   -5863.1949   -4581.1623   -7453.7068     15.45317    13.382902     26.97997    5579.6808 
   98500       98.487    362.18676    14.887588   -445.08895   -430.20136   -6115.3051    -4577.732   -2573.0419   -11195.141    15.453173    13.382904    26.979953    5579.6789 
   99000       98.987    364.11091    14.966679   -445.14778   -430.18111   -5545.4449   -4194.7058   -1801.5785    -10640.05    15.453175    13.382906    26.979935     5579.677 
   99500       99.487    372.35585    15.305585   -445.46665   -430.16106   -5533.6883   -2862.1354   -1599.0339   -12139.896    15.453178    13.382908    26.979918    5579.6751 
  100000       99.987    350.41571    14.403742   -444.54455    -430.1408   -5085.2823   -7508.4908    1296.1888   -9043.5449     15.45318     13.38291      26.9799    5579.6732 
  100500      100.487    342.81206    14.091196   -444.21179   -430.12059   -4199.9241   -4833.3713    -2528.021   -5238.3802    15.453182    13.382912    26.979883    5579.6713 
  101000      100.987    335.77596    13.801979   -443.90218    -430.1002   -5174.8258   -5195.2482   -1743.0135   -8586.2158    15.453185    13.382914    26.979865    5579.6694 
  101500      101.487    358.24359    14.725504   -444.80651   -430.08101   -5342.2094   -6433.6259   -1494.7084    -8098.294    15.453187    13.382916    26.979848    5579.6675 
  102000      101.987    343.84251    14.133552   -444.19333   -430.05978   -4667.6485   -3291.6255   -1861.2033   -8850.1167     15.45319    13.382918     26.97983    5579.6656 
  102500      102.487    342.68755    14.086078    -444.1247   -430.03862    -5951.713   -7081.7677   -2563.4059   -8209.9653    15.453192     13.38292    26.979813    5579.6637 
  103000      102.987    358.61188    14.740643   -444.75898   -430.01833   -5660.2315   -6755.9053   -2093.6396   -8131.1498    15.453194    13.382922    26.979795    5579.6618 
  103500      103.487    364.54985    14.984722   -444.98319   -429.99847   -5512.7305   -4661.6602   -3844.0488   -8032.4825    15.453197    13.382924    26.979778    5579.6599 
  104000      103.987    377.64323    15.522922   -445.50132    -429.9784   -6228.4416   -8787.2731   -2566.1154   -7331.9362    15.453199    13.382926     26.97976     5579.658 
  104500      104.487    360.10206    14.801897   -444.75907   -429.95717   -5519.5569    -7193.389   -297.80565    -9067.476    15.453202    13.382928    26.979743    5579.6561 
  105000      104.987    371.77908    15.281877    -445.2181   -429.93622   -4731.3471   -7193.9341    -769.0313    -6231.076    15.453204     13.38293    26.979725    5579.6542 
  105500      105.487    356.63795    14.659505   -444.57514   -429.91563   -5295.7609   -4726.7392    878.12444   -12038.668    15.453206    13.382932    26.979708    5579.6523 
  106000      105.987    347.44944    14.281814   -444.17598   -429.89417    -5525.055   -4515.8489    -830.0864    -11229.23    15.453209    13.382935     26.97969    5579.6504 
  106500      106.487    367.29442    15.097536   -444.97097   -429.87344   -4550.3403   -4355.4319   -858.58054   -8437.0083    15.453211    13.382937    26.979673    5579.6485 
  107000      106.987    364.75734    14.993251   -444.84565   -429.85239   -5171.1915   -5663.3524   -401.59523   -9448.6268    15.453214    13.382939    26.979655    5579.6466 
  107500      107.487    349.22757    14.354904   -444.18545   -429.83055   -5626.4551   -4100.9121   -2505.3492   -10273.104    15.453216    13.382941    26.979638    5579.6447 
  108000      107.987    345.27798    14.192557   -444.00173   -429.80917   -4377.2739   -6104.0562    709.45177   -7737.2174    15.453218    13.382943     26.97962    5579.6428 
  108500      108.487    361.28342    14.850456   -444.63939   -429.78894   -4717.8355   -5890.3587   -609.98136   -7653.1663    15.453221    13.382945    26.979603    5579.6409 
  109000      108.987    381.21323    15.669666   -445.43661   -429.76695     -4979.12    -5449.225    -541.1565   -8946.9786    15.453223    13.382947    26.979585     5579.639 
  109500      109.487    384.78928    15.816658   -445.56266   -429.74601   -5000.0476   -8336.5405   -84.399428    -6579.203    15.453226    13.382949    26.979568    5579.6371 
  110000      109.987    354.42962    14.568733   -444.29305   -429.72431   -5754.4717   -7208.3066    1465.6723   -11520.781    15.453228    13.382951     26.97955    5579.6352 
  110500      110.487    357.86885    14.710101    -444.4124    -429.7023   -4689.5018   -4447.0557   -1153.0908   -8468.3587     15.45323    13.382953    26.979533    5579.6333 
  111000      110.987    353.83949    14.544475   -444.22511   -429.68064   -4061.7967   -3938.0058    83.326443   -8330.7108    15.453233    13.382955    26.979515    5579.6314 
  111500      111.487    358.21563    14.724355   -444.38371   -429.65935   -5222.4239    -5136.227    -2883.347   -7647.6977    15.453235    13.382957    26.979498    5579.6295 
  112000      111.987    367.40705    15.102166   -444.74016     -429.638   -5106.1037    -7251.414    524.86921   -8591.7662    15.453238    13.382959     26.97948    5579.6276 
  112500      112.487    360.78705    14.830053   -444.44592   -429.61586   -5687.0957    -6167.628   -2053.1147   -8840.5446     15.45324    13.382961    26.979463    5579.6257 
  113000      112.987    344.29237    14.152043    -443.7453   -429.59326   -5833.3245    -6549.014   -2243.5172   -8707.4424    15.453242    13.382963    26.979445    5579.6238 
  113500      113.487    376.38258    15.471103   -445.04316   -429.57205   -5812.3972    -6951.732    -1905.663   -8579.7967    15.453245    13.382965    26.979428    5579.6219 
  114000      113.987    358.08928    14.719162   -444.26969   -429.55053    -5133.847   -5530.2257   0.57239778   -9871.8877    15.453247    13.382967     26.97941      5579.62 
  114500      114.487    363.64753    14.947632   -444.47534   -429.52771   -6053.3915   -5441.4806   -1628.7736    -11089.92     15.45325    13.382969    26.979393    5579.6181 
  115000      114.987    355.19021    14.599996    -444.1056    -429.5056   -5256.7744   -6052.4191   -598.49713   -9119.4069    15.453252    13.382971    26.979375    5579.6162 
  115500      115.487    363.47168    14.940404   -444.42398   -429.48358   -4841.2673   -3349.3976   -242.89946   -10931.505    15.453254    13.382973    26.979358    5579.6143 
  116000      115.987    376.80071     15.48829   -444.94968   -429.46139   -4703.4233     -3035.23   -1263.1786   -9811.8614    15.453257    13.382976     26.97934    5579.6124 
  116500      116.487    368.55995    15.149556   -444.58862   -429.43906   -5434.1976   -7959.5423    155.33092   -8498.3816    15.453259    13.382978    26.979323    5579.6105 
  117000      116.987    337.29735    13.864515   -443.28063   -429.41612   -4165.6365   -3592.9049   -1133.7738   -7770.2307    15.453262     13.38298    26.979305    5579.6086 
  117500      117.487    362.03726    14.881443   -444.27546   -429.39402   -4328.1284   -4140.7767   -255.33571   -8588.2729    15.453264    13.382982    26.979288    5579.6067 
  118000      117.987    359.38511    14.772427     -444.144   -429.37157   -5362.4448   -6765.1945   -1235.6613   -8086.4787    15.453266    13.382984     26.97927    5579.6048 
  118500      118.487    372.55567    15.313799   -444.66309   -429.34929   -3795.1668   -2228.1937   -2359.7377    -6797.569    15.453269    13.382986    26.979253    5579.6029 
  119000      118.987    366.14228    15.050178   -444.37653   -429.32636   -4715.4993   -6396.9243    -21.74753    -7727.826    15.453271    13.382988    26.979235     5579.601 
  119500      119.487    375.75713    15.445394   -444.74934   -429.30395   -4338.7955   -5337.7585   -927.71609    -6750.912    15.453274     13.38299    26.979218    5579.5991 
  120000      119.987    358.23541    14.725169    -444.0067   -429.28153    -3199.272   -3878.7266   -1334.3247   -4384.7648    15.453276    13.382992      26.9792    5579.5972 
  120500      120.487       368.81    15.159834   -444.41926   -429.25943   -4428.7954   -3428.4789   -1228.2187   -8629.6886    15.453278    13.382994    26.979183    5579.5953 
  121000      120.987      363.229    14.930428   -444.16679   -429.23636   -3664.7114   -5711.2147    1033.5019   -6316.4215    15.453281    13.382996    26.979165    5579.5934 
  121500      121.487    376.79997     15.48826   -444.70176    -429.2135   -5007.1918   -3776.3288   -1514.4997   -9730.7468    15.453283    13.382998    26.979148    5579.5916 
  122000      121.987       355.87    14.627939   -443.81831   -429.19037   -4938.4906   -5601.9188    439.19386   -9652.7467    15.453286       13.383     26.97913    5579.5897 
  122500      122.487    379.58034    15.602546   -444.77035    -429.1678   -5095.1495   -3465.6337   -2314.8981   -9504.9168    15.453288    13.383002    26.979113    5579.5878 
  123000      122.987    382.70876    15.731139   -444.87677   -429.14563   -5202.5909   -5925.5353   -124.28141    -9557.956     15.45329    13.383004    26.979095    5579.5859 
  123500      123.487    370.83228    15.242959   -444.36548   -429.12252   -4690.7965   -4818.2186   -23.457433   -9230.7133    15.453293    13.383006    26.979078     5579.584 
  124000      123.987    373.27846    15.343509   -444.44301   -429.09951   -5194.4662    -4985.223   -190.77943   -10407.396    15.453295    13.383008     26.97906    5579.5821 
  124500      124.487    349.80389    14.378593   -443.45398   -429.07539   -5093.9151   -4858.5895   -2213.1217   -8210.0341    15.453298     13.38301    26.979043    5579.5802 
  125000      124.987    367.15156    15.091664   -444.14476   -429.05309   -4946.3831    -7705.195    706.08013   -7840.0343      15.4533    13.383012    26.979025    5579.5783 
  125500      125.487    351.36158    14.442622   -443.47252   -429.02989   -5346.4236   -3786.6222   -2806.9085   -9445.7402    15.453302    13.383014    26.979008    5579.5764 
  126000      125.987    371.87708    15.285905   -444.29319   -429.00729   -5629.5376   -5142.2568    615.19403    -12361.55    15.453305    13.383017     26.97899    5579.5745 
  126500      126.487    371.50317    15.270536   -444.25514    -428.9846   -5705.0325   -7341.6267    1308.1642   -11081.635    15.453307    13.383019    26.978973    5579.5726 
  127000      126.987    356.16432    14.640037   -443.60146   -428.96142   -5090.6409   -6714.6119   -1241.2932   -7316.0177     15.45331    13.383021    26.978955    5579.5707 
  127500      127.487    374.58567    15.397241   -444.33597   -428.93873   -6213.8415   -9142.7194   -5.5598199   -9493.2453    15.453312    13.383023    26.978938    5579.5688 
  128000      127.987    374.45074    15.391695   -444.30688   -428.91518    -4854.301   -4037.9744    2658.3262   -13183.255    15.453314    13.383025     26.97892    5579.5669 
  128500      128.487    377.19694    15.504577   -444.39746   -428.89288    -4942.987   -4246.4232   -965.77854   -9616.7591    15.453317    13.383027    26.978903     5579.565 
  129000      128.987    347.99918    14.304411   -443.17384   -428.86942   -5425.4993   -8405.7673    943.32271   -8814.0532    15.453319    13.383029    26.978885    5579.5631 
  129500      129.487    350.32286    14.399925   -443.24655   -428.84662   -4391.2838   -6085.2906    1595.5618   -8684.1225    15.453322    13.383031    26.978868    5579.5612 
  130000      129.987      367.252    15.095793   -443.91961   -428.82382   -4123.1346   -3646.2762    2180.8199   -10903.948    15.453324    13.383033     26.97885    5579.5593 
  130500      130.487    352.57313    14.492422   -443.29247   -428.80004   -4692.9394   -6857.8046    2797.5672   -10018.581    15.453326    13.383035    26.978833    5579.5574 
  131000      130.987    351.28454    14.439455   -443.21626   -428.77681   -3908.9597   -4172.4916   -691.88781   -6862.4998    15.453329    13.383037    26.978815    5579.5555 
  131500      131.487     355.1246    14.597299   -443.35052   -428.75322   -3728.7981   -4528.1932    424.41123   -7082.6124    15.453331    13.383039    26.978798    5579.5536 
  132000      131.987    379.29337     15.59075   -444.32031   -428.72956   -5993.6151   -6543.1731   -537.89967   -10899.773    15.453334    13.383041     26.97878    5579.5517 
  132500      132.487    379.59098    15.602983   -444.30997   -428.70699   -5865.4348   -7001.1997    809.79533     -11404.9    15.453336    13.383043    26.978763    5579.5498 
  133000      132.987    367.83291    15.119671   -443.80275   -428.68308   -4506.0942   -2985.1702   -1328.4096   -9204.7028    15.453338    13.383045    26.978745    5579.5479 
  133500      133.487    372.59972    15.315609    -443.9753    -428.6597   -4443.9298   -4589.8508   -1248.3242   -7493.6143    15.453341    13.383047    26.978728     5579.546 
  134000      133.987    383.70773    15.772201   -444.40952   -428.63732   -4549.0689   -4181.5338   -151.19823   -9314.4747    15.453343    13.383049     26.97871    5579.5441 
  134500      134.487    365.06115    15.005739   -443.61902   -428.61328   -5083.7859   -4703.3882   -360.19843   -10187.771    15.453346    13.383051    26.978693    5579.5422 
  135000      134.987    366.68303    15.072406   -443.66228   -428.58988   -5478.1222   -5774.3413   -1755.1573   -8904.8681    15.453348    13.383053    26.978675    5579.5403 
  135500      135.487     375.7619     15.44559   -444.01225   -428.56666   -5134.1508    -4771.305   -455.56194   -10175.586     15.45335    13.383055    26.978658    5579.5384 
  136000      135.987    396.88491    16.313845   -444.85723   -428.54338   -5424.1254   -5150.7632   -513.80547   -10607.808    15.453353    13.383058     26.97864    5579.5365 
  136500      136.487     370.9151    15.246363   -443.76582   -428.51945   -4892.1247   -7005.0033   -2615.7216   -5055.6493    15.453355     13.38306    26.978623    5579.5346 
  137000      136.987    379.52058     15.60009   -444.09557   -428.49548   -4718.6689   -4904.6295    424.98507   -9676.3622    15.453358    13.383062    26.978605    5579.5327 
  137500      137.487    367.17085    15.092457   -443.56418   -428.47172   -3226.0989   -4648.0253    2583.9842   -7614.2555     15.45336    13.383064    26.978588    5579.5308 
  138000      137.987    375.01048    15.414703   -443.86271     -428.448   -3945.4583    -6375.896    505.33465   -5965.8135    15.453362    13.383066     26.97857    5579.5289 
  138500      138.487    367.28103    15.096986   -443.52154   -428.42455   -4410.8275   -4291.4539   -29.257845   -8911.7707    15.453365    13.383068    26.978553     5579.527 
  139000      138.987    376.29239    15.467396   -443.86856   -428.40116   -4893.0809   -6565.4665    909.29351   -9023.0699    15.453367     13.38307    26.978535    5579.5251 
  139500      139.487    345.78037    14.213207   -442.58954   -428.37634   -3346.8414   -6631.7525    2050.9446   -5459.7161     15.45337    13.383072    26.978518    5579.5232 
  140000      139.987    386.83964    15.900938   -444.25441   -428.35347   -4541.5507   -6142.5522    672.40239   -8154.5022    15.453372    13.383074      26.9785    5579.5213 
  140500      140.487    365.54226    15.025514   -443.35512   -428.32961   -5264.9297   -8786.5763    2249.8025   -9258.0153    15.453374    13.383076    26.978483    5579.5194 
  141000      140.987    389.16923    15.996695   -444.30266   -428.30596   -4925.4745   -3463.1001   -690.30501   -10623.018    15.453377    13.383078    26.978465    5579.5175 
  141500      141.487    357.95446     14.71362   -442.99575   -428.28213   -4824.4415   -6270.6161    8.1652321   -8210.8736    15.453379     13.38308    26.978448    5579.5156 
  142000      141.987    377.29797     15.50873    -443.7667   -428.25797   -3960.5727    -3510.093   -408.78765   -7962.8374    15.453382    13.383082     26.97843    5579.5137 
  142500      142.487    391.47158    16.091332   -444.32569   -428.23436   -3612.7871   -7122.4003   -412.34386    -3303.617    15.453384    13.383084    26.978413    5579.5118 
  143000      142.987    373.59112     15.35636   -443.56673   -428.21037   -5186.6112   -7542.0671   -1357.2102   -6660.5562    15.453386    13.383086    26.978395    5579.5099 
  143500      143.487    387.90608    15.944773   -444.13207    -428.1873   -4055.8559   -3292.2953   -2222.2468   -6653.0255    15.453389    13.383088    26.978378     5579.508 
  144000      143.987    374.47033      15.3925   -443.55546   -428.16296   -3660.3489   -4602.5007    11.464386   -6390.0104    15.453391     13.38309     26.97836    5579.5061 
  144500      144.487    369.57928    15.191455   -443.33069   -428.13923   -4642.0827   -4108.2815   -72.420486   -9745.5459    15.453394    13.383092    26.978343    5579.5042 
  145000      144.987    372.57199     15.31447   -443.42901   -428.11454    -5022.834   -6697.4791   -2013.3537   -6357.6692    15.453396    13.383094    26.978325    5579.5023 
  145500      145.487    369.51336    15.188745   -443.27862   -428.08987   -3806.0812   -4576.0319   -23.140761    -6819.071    15.453398    13.383096    26.978308    5579.5004 
  146000      145.987    362.11964    14.884829    -442.9514   -428.06657   -3673.5998     -3459.34   -1796.3673    -5765.092    15.453401    13.383099     26.97829    5579.4985 
  146500      146.487    383.54855    15.765658   -443.80756    -428.0419   -5153.0248   -6351.5613   -459.91993    -8647.593    15.453403    13.383101    26.978273    5579.4966 
  147000      146.987    376.18046    15.462795   -443.48049    -428.0177   -2983.7999   -6734.3028    1460.5527   -3677.6495    15.453406    13.383103    26.978255    5579.4948 
  147500      147.487    375.05675    15.416605   -443.41003   -427.99343   -5030.2461   -6082.7944     188.3819   -9196.3259    15.453408    13.383105    26.978238    5579.4929 
  148000      147.987     370.9864    15.249295   -443.21842   -427.96913   -5021.6055   -5595.1911   -918.07169   -8551.5539     15.45341    13.383107     26.97822     5579.491 
  148500      148.487    365.96813     15.04302   -442.98758   -427.94456    -4589.517   -6568.6111   -278.54273   -6921.3971    15.453413    13.383109    26.978203    5579.4891 
  149000      148.987    402.18779    16.531819    -444.4528   -427.92098   -4797.4428   -6193.4851   -2862.2809   -5336.5624    15.453415    13.383111    26.978185    5579.4872 
  149500      149.487    391.45981    16.090848   -443.98659   -427.89574   -3939.3808   -4154.0154    1006.2406   -8670.3676    15.453418    13.383113    26.978168    5579.4853 
  150000      149.987    392.10176    16.117236   -443.98909   -427.87186   -4677.6434   -7197.2656    592.77435    -7428.439     15.45342    13.383115     26.97815    5579.4834 
  150500      150.487    388.21617    15.957519   -443.80418   -427.84666   -3687.9973   -3843.9311   -1167.6757   -6052.3852    15.453422    13.383117    26.978133    5579.4815 
  151000      150.987    383.25042    15.753404   -443.57607   -427.82266   -4353.8769   -3802.5022   -669.32946    -8589.799    15.453425    13.383119    26.978115    5579.4796 
  151500      151.487    371.60952    15.274908   -443.07306   -427.79816   -3635.0116   -4393.0115    2151.6754   -8663.6988    15.453427    13.383121    26.978098    5579.4777 
  152000      151.987     388.2559    15.959152   -443.73334   -427.77419   -4600.9146   -5466.0665   -1838.0823    -6498.595     15.45343    13.383123     26.97808    5579.4758 
  152500      152.487    391.68007    16.099902   -443.84877   -427.74887   -2857.0622   -4788.4181   -722.42526   -3060.3431    15.453432    13.383125    26.978063    5579.4739 
  153000      152.987      389.094    15.993602   -443.71782   -427.72422   -3978.5812   -3766.5176   -1241.6691   -6927.5569    15.453434    13.383127    26.978045     5579.472 
  153500      153.487    375.48009    15.434006   -443.13381    -427.6998    -4628.809   -4080.3025   -3280.1186    -6526.006    15.453437    13.383129    26.978028    5579.4701 
  154000      153.987    401.99463    16.523879   -444.19968    -427.6758   -5153.4261   -5604.8598   -3323.8741   -6531.5444    15.453439    13.383131     26.97801    5579.4682 
  154500      154.487    371.80215    15.282825   -442.93358   -427.65075   -3966.6464   -3804.1065   -570.43994   -7525.3926    15.453442    13.383133    26.977993    5579.4663 
  155000      154.987    394.70161    16.224101   -443.85077   -427.62667   -4584.1721   -5874.5329     895.3357   -8773.3192    15.453444    13.383135    26.977975    5579.4644 
  155500      155.487    372.62399    15.316607   -442.91834   -427.60173   -4089.3221   -4715.5027    2439.0969   -9991.5606    15.453446    13.383137    26.977958    5579.4625 
  156000      155.987     369.7455    15.198287    -442.7748   -427.57651   -4491.6252   -4797.1912    175.89183   -8853.5763    15.453449     13.38314     26.97794    5579.4606 
  156500      156.487    406.23471    16.698166   -444.25038   -427.55221   -4985.6443    -4768.895    -871.9625   -9316.0754    15.453451    13.383142    26.977923    5579.4587 
  157000      156.987    386.14842    15.872525   -443.40023   -427.52771   -3785.6422   -3376.3172   -2856.9402   -5123.6692    15.453454    13.383144    26.977905    5579.4568 
  157500      157.487    394.12723    16.200492   -443.70255   -427.50206   -4370.7677   -6235.2505    963.75577   -7840.8083    15.453456    13.383146    26.977888    5579.4549 
  158000      157.987    376.82639    15.489346     -442.966   -427.47665   -4774.2803   -6233.0258    2169.7077   -10259.523    15.453458    13.383148     26.97787     5579.453 
  158500      158.487    381.72869    15.690853   -443.14286   -427.45201   -4036.7609   -3710.6834   -1625.7112    -6773.888    15.453461     13.38315    26.977853    5579.4511 
  159000      158.987    393.83306      16.1884    -443.6164     -427.428   -4021.0687   -4697.8059    1793.3602   -9158.7603    15.453463    13.383152    26.977835    5579.4492 
  159500      159.487    387.16915    15.914482   -443.31734   -427.40286   -2407.4732   -4126.3364    172.53902   -3268.6223    15.453466    13.383154    26.977818    5579.4473 
  160000      159.987    369.31706    15.180676   -442.55802   -427.37734    -3871.978   -3277.6907    199.45245   -8537.6957    15.453468    13.383156      26.9778    5579.4454 
  160500      160.487    396.56487     16.30069    -443.6531   -427.35241   -4435.7679   -4071.4097   -414.89812   -8820.9959     15.45347    13.383158    26.977783    5579.4435 
  161000      160.987    383.70841    15.772229   -443.09954   -427.32731   -4220.8767   -3550.9217   -1516.6518   -7595.0567    15.453473     13.38316    26.977765    5579.4416 
  161500      161.487    394.37686    16.210753   -443.51368   -427.30293   -4507.2459   -2752.6478    2309.3238   -13078.414    15.453475    13.383162    26.977748    5579.4397 
  162000      161.987    370.69203    15.237195   -442.51471   -427.27751   -3731.5545   -7965.4815   -1727.8679    -1501.314    15.453478    13.383164     26.97773    5579.4378 
  162500      162.487    383.28363    15.754768    -443.0075   -427.25273   -4056.8385   -2447.4082   -198.13934   -9524.9681     15.45348    13.383166    26.977713    5579.4359 
  163000      162.987    383.34582    15.757325   -442.98525   -427.22793     -3406.97   -2310.3085    348.95128   -8259.5527    15.453482    13.383168    26.977695     5579.434 
  163500      163.487    389.86291    16.025208   -443.22814   -427.20293   -4148.3783   -5346.2709    471.74479   -7570.6087    15.453485     13.38317    26.977678    5579.4321 
  164000      163.987    394.02674    16.196361   -443.37405   -427.17769   -4469.5098   -8570.7356    471.72905   -5309.5229    15.453487    13.383172     26.97766    5579.4302 
  164500      164.487    381.47131    15.680274   -442.83222   -427.15195   -3372.1102    -3676.904    3014.4465   -9453.8732     15.45349    13.383174    26.977643    5579.4283 
  165000      164.987    398.23321    16.369267   -443.49659   -427.12732   -4479.5848   -7633.4074    2022.4913   -7827.8384    15.453492    13.383176    26.977625    5579.4264 
  165500      165.487    411.57793    16.917798   -444.01974   -427.10194   -4554.6042   -5714.7411    944.55427   -8893.6258    15.453494    13.383178    26.977608    5579.4245 
  166000      165.987    370.84838    15.243621   -442.31897   -427.07535   -4005.0675   -6739.8985    2934.0036   -8209.3075    15.453497    13.383181     26.97759    5579.4226 
  166500      166.487    429.33311     17.64762   -444.69917   -427.05155   -5083.6388   -5183.1755   -1220.6741   -8847.0668    15.453499    13.383183    26.977573    5579.4207 
  167000      166.987    414.83428    17.051649   -444.07773   -427.02608    -4178.108   -3485.1801   -1801.3838   -7247.7601    15.453502    13.383185    26.977555    5579.4188 
  167500      167.487    393.96273     16.19373   -443.19367   -426.99994    -4350.259     -4550.37   -365.01734   -8135.3897    15.453504    13.383187    26.977538    5579.4169 
  168000      167.987    383.39994    15.759549   -442.73415    -426.9746   -2566.2916   -3925.8283    1827.8387   -5600.8853    15.453506    13.383189     26.97752     5579.415 
  168500      168.487    381.12925    15.666213    -442.6155   -426.94929   -2888.9724   -5197.2871    22.875364   -3492.5056    15.453509    13.383191    26.977503    5579.4131 
  169000      168.987    413.64526    17.002775   -443.92712   -426.92435   -3604.1629   -5091.2651    1166.0207   -6887.2444    15.453511    13.383193    26.977485    5579.4112 
  169500      169.487    398.85488    16.394821   -443.29358   -426.89876   -4232.0835   -5328.2464    896.92064   -8264.9248    15.453514    13.383195    26.977468    5579.4093 
  170000      169.987    407.59287    16.753993   -443.62771   -426.87372   -4621.2461   -3551.1962    695.76721   -11008.309    15.453516    13.383197     26.97745    5579.4074 
  170500      170.487    382.44892    15.720458   -442.56859   -426.84813    -4589.126   -5981.8149   -94.194919   -7691.3681    15.453518    13.383199    26.977433    5579.4055 
  171000      170.987    398.31772    16.372741   -443.19503   -426.82229   -3799.9405   -9049.3861    2628.4904   -4978.9257    15.453521    13.383201    26.977415    5579.4036 
  171500      171.487    411.91929    16.931829   -443.72917   -426.79734   -3503.8391   -5106.6536     943.5032   -6348.3668    15.453523    13.383203    26.977398    5579.4017 
  172000      171.987    390.06268     16.03342   -442.80517   -426.77175   -3038.9598   -2131.8448    866.13094   -7851.1655    15.453526    13.383205     26.97738    5579.3998 
  172500      172.487    401.22464    16.492229   -443.23868   -426.74645    -2530.777   -2529.5421   -162.27272   -4900.5162    15.453528    13.383207    26.977363    5579.3979 
  173000      172.987     394.1164    16.200047   -442.92141   -426.72136   -4423.4559   -6757.5758    1867.2466   -8380.0384     15.45353    13.383209    26.977345     5579.396 
  173500      173.487    404.38633    16.622189   -443.31834   -426.69615   -5124.8163   -5102.7613  -0.92328038   -10270.764    15.453533    13.383211    26.977328    5579.3942 
  174000      173.987     361.0297    14.840027   -441.50961   -426.66958   -3463.7128   -3887.6385    1323.7294   -7827.2294    15.453535    13.383213     26.97731    5579.3923 
  174500      174.487    413.96264    17.015821   -443.66026   -426.64444   -3765.7448    -5745.779   -3837.9313   -1713.5241    15.453538    13.383215    26.977293    5579.3904 
  175000      174.987    398.77129    16.391385    -443.0103   -426.61892    -3007.138   -3264.2054    539.60052    -6296.809     15.45354    13.383217    26.977275    5579.3885 
  175500      175.487    386.59472     15.89087   -442.48376   -426.59289   -2808.3163   -4736.4132     1091.999   -4780.5348    15.453542    13.383219    26.977258    5579.3866 
  176000      175.987    400.47088    16.461246   -443.02897   -426.56772   -3909.9436   -3653.2425    1006.6597    -9083.248    15.453545    13.383222     26.97724    5579.3847 
  176500      176.487    401.28663    16.494777   -443.03642   -426.54164   -3953.8079   -1268.8214   -2351.3819   -8241.2203    15.453547    13.383224    26.977223    5579.3828 
  177000      176.987    411.87065     16.92983   -443.44588   -426.51605   -3265.1922    -1536.225   -1874.7808   -6384.5708     15.45355    13.383226    26.977205    5579.3809 
  177500      177.487    403.27717    16.576598   -443.06704   -426.49044   -3351.6583    -3048.976    1243.2016   -8249.2006    15.453552    13.383228    26.977188     5579.379 
  178000      177.987    394.59317    16.219644    -442.6841   -426.46445   -2344.8911   -2916.1276    1013.5708   -5132.1165    15.453554     13.38323     26.97717    5579.3771 
  178500      178.487    380.36517    15.634806    -442.0726   -426.43779   -2893.4971   -3658.9112     2392.653   -7414.2331    15.453557    13.383232    26.977153    5579.3752 
  179000      178.987    377.55099     15.51913   -441.93153    -426.4124   -3148.2366   -5809.6101    302.16187   -3937.2615    15.453559    13.383234    26.977135    5579.3733 
  179500      179.487    412.72798    16.965071   -443.35207     -426.387   -2917.5255   -1128.0728   -62.396012   -7562.1078    15.453562    13.383236    26.977118    5579.3714 
  180000      179.987    385.39124    15.841401   -442.20273   -426.36132   -4423.6914   -5412.6098   -551.98004   -7306.4843    15.453564    13.383238      26.9771    5579.3695 
  180500      180.487    405.76047    16.678673   -443.01564   -426.33697   -3168.2936   -2970.6897    20.014728   -6554.2059    15.453566     13.38324    26.977083    5579.3676 
  181000      180.987    384.51687     15.80546   -442.11608   -426.31062   -3401.9355   -5219.6367    269.92027   -5256.0901    15.453569    13.383242    26.977065    5579.3657 
  181500      181.487    402.08947    16.527777   -442.81306   -426.28529   -4288.8682   -3901.1836     1784.768   -10750.189    15.453571    13.383244    26.977048    5579.3638 
  182000      181.987    416.62447    17.125235   -443.38506   -426.25982   -5203.7141   -7017.4189     -610.419   -7983.3044    15.453574    13.383246     26.97703    5579.3619 
  182500      182.487    417.70818    17.169781   -443.40359   -426.23381   -4592.1509   -3916.2663     578.8884   -10439.075    15.453576    13.383248    26.977013      5579.36 
  183000      182.987    395.30502    16.248905   -442.45597   -426.20707   -2341.9587   -737.23084    1808.7977    -8097.443    15.453578     13.38325    26.976995    5579.3581 
  183500      183.487    381.29704     15.67311   -441.85407   -426.18096   -1783.3201   -4426.8152    1554.0545   -2477.1997    15.453581    13.383252    26.976978    5579.3562 
  184000      183.987     401.7747    16.514839   -442.67031   -426.15547   -2748.6041   -4099.5008    203.09827   -4349.4097    15.453583    13.383254     26.97696    5579.3543 
  184500      184.487    430.60066    17.699722   -443.82852    -426.1288   -4363.3448   -3939.7527   -1154.4724   -7995.8093    15.453586    13.383256    26.976943    5579.3524 
  185000      184.987    408.15081    16.776927   -442.87944   -426.10251   -3179.5905   -4977.6574    422.42933   -4983.5434    15.453588    13.383258    26.976925    5579.3505 
  185500      185.487     411.0705     16.89694   -442.97386   -426.07692   -3891.7566   -2946.3698     142.4847   -8871.3847     15.45359     13.38326    26.976908    5579.3486 
  186000      185.987    406.01678    16.689209   -442.73945   -426.05024   -3846.8607   -3360.8649   -1852.1915   -6327.5257    15.453593    13.383263     26.97689    5579.3467 
  186500      186.487    415.18403    17.066026   -443.08956   -426.02354   -3092.2756    -5460.656    1564.2565   -5380.4274    15.453595    13.383265    26.976873    5579.3448 
  187000      186.987    395.60003    16.261031   -442.25769   -425.99666   -2035.6881   -2670.1354    1816.5303   -5253.4594    15.453598    13.383267    26.976855    5579.3429 
  187500      187.487    422.47794     17.36584   -443.33697   -425.97113   -2885.1675    -4016.742    344.27681   -4983.0374      15.4536    13.383269    26.976838     5579.341 
  188000      187.987    426.06875    17.513439   -443.45864    -425.9452   -3063.8091   -5600.8791    1954.0315   -5544.5797    15.453602    13.383271     26.97682    5579.3391 
  188500      188.487    391.04186    16.073668   -441.99195   -425.91828   -2711.0374    111.66857   -1714.0959    -6530.685    15.453605    13.383273    26.976803    5579.3372 
  189000      188.987    419.25335    17.233294   -443.12585   -425.89256   -4689.4773   -4717.6476    205.15579     -9555.94    15.453607    13.383275    26.976785    5579.3353 
  189500      189.487    419.27341    17.234119   -443.10006   -425.86594   -3224.8513   -4945.5818   -2251.3365   -2477.6357     15.45361    13.383277    26.976768    5579.3334 
  190000      189.987    415.59891     17.08308   -442.92262   -425.83954    -3992.409   -5443.3277   -907.30461   -5626.5948    15.453612    13.383279     26.97675    5579.3315 
  190500      190.487    416.01709    17.100269   -442.91399   -425.81372   -3401.7102   -4433.9591     666.7486   -6437.9201    15.453614    13.383281    26.976733    5579.3296 
  191000      190.987    404.20946    16.614919   -442.40136   -425.78644   -4056.4094   -4517.3853    935.46306    -8587.306    15.453617    13.383283    26.976715    5579.3277 
  191500      191.487    391.98168    16.112299   -441.87223   -425.75993   -3671.9664   -2890.8249   -1640.3841   -6484.6901    15.453619    13.383285    26.976698    5579.3258 
  192000      191.987    422.46684    17.365384   -443.09994   -425.73456   -2812.4066   -3516.0388     -1301.35   -3619.8311    15.453622    13.383287     26.97668    5579.3239 
  192500      192.487    391.48061    16.091703   -441.79885   -425.70715   -3274.2191   -4426.4384   -460.08156   -4936.1374    15.453624    13.383289    26.976663     5579.322 
  193000      192.987    405.96219    16.686965   -442.36816    -425.6812   -4123.0208   -1943.3242    1259.9755   -11685.714    15.453626    13.383291    26.976645    5579.3201 
  193500      193.487    433.44839    17.816778   -443.47241   -425.65563   -4580.4148   -5152.8102   -846.84617    -7741.588    15.453629    13.383293    26.976628    5579.3182 
  194000      193.987    427.46477    17.570822   -443.19959   -425.62877   -3820.5031   -3470.9144   -873.07209   -7117.5228    15.453631    13.383295     26.97661    5579.3163 
  194500      194.487    387.56239    15.930646   -441.53229   -425.60164   -1884.8515   -1857.6572    1007.7511   -4804.6482    15.453634    13.383297    26.976593    5579.3144 
  195000      194.987    419.63733    17.249078   -442.82501   -425.57593   -1798.4541   -1514.6905    2334.4979   -6215.1698    15.453636    13.383299    26.976575    5579.3125 
  195500      195.487    397.26649     16.32953    -441.8785   -425.54897   -4575.8522   -5910.9364   -3071.9784   -4744.6417    15.453638    13.383301    26.976558    5579.3106 
  196000      195.987    432.21329    17.766009   -443.28844   -425.52243   -3396.2018   -3969.8337   -33.337568   -6185.4341    15.453641    13.383304     26.97654    5579.3087 
  196500      196.487    407.24284    16.739606   -442.23499   -425.49539   -3287.4676   -3355.7884    1759.0986    -8265.713    15.453643    13.383306    26.976523    5579.3068 
  197000      196.987     429.2258    17.643209   -443.11187   -425.46866   -3977.4758   -6737.1698    1787.9262   -6983.1839    15.453646    13.383308    26.976505    5579.3049 
  197500      197.487    407.79181    16.762171   -442.20537    -425.4432   -3401.1197    -6268.691   -1568.3739   -2366.2941    15.453648     13.38331    26.976488     5579.303 
  198000      197.987    427.74892    17.582502   -442.99866   -425.41616   -1894.3741   -1968.8033   -1109.2906   -2605.0284     15.45365    13.383312     26.97647    5579.3011 
  198500      198.487    434.28762    17.851274   -443.24041   -425.38913    -3236.329   -3079.8458   -169.73337   -6459.4079    15.453653    13.383314    26.976453    5579.2992 
  199000      198.987    402.32088     16.53729   -441.89974   -425.36245   -3210.7936   -5442.2977    2268.5787   -6458.6619    15.453655    13.383316    26.976435    5579.2973 
  199500      199.487    410.46391    16.872007   -442.20737   -425.33537   -3929.1775   -4368.5546   -4130.3973   -3288.5806    15.453658    13.383318    26.976418    5579.2954 
  200000      199.987     419.3803    17.238512   -442.54758   -425.30906   -3719.2884   -4276.1138   -1107.8641   -5773.8872     15.45366     13.38332      26.9764    5579.2935 
  200500      200.487    422.88839    17.382711   -442.66595   -425.28324   -4252.8879   -5146.7879   -1764.1626   -5847.7132    15.453662    13.383322    26.976383    5579.2916 
  201000      200.987    419.23895    17.232702   -442.48895   -425.25625   -3315.0233   -5629.5672     292.4907   -4607.9935    15.453665    13.383324    26.976365    5579.2897 
  201500      201.487    384.72298    15.813933    -441.0425   -425.22856   -3087.3321   -6351.5361    1941.3954   -4851.8558    15.453667    13.383326    26.976348    5579.2879 
  202000      201.987    432.85166    17.792249   -442.99435    -425.2021   -2482.5002   -3078.9843   -2114.0832   -2254.4332     15.45367    13.383328     26.97633     5579.286 
  202500      202.487    418.54933    17.204356   -442.37896   -425.17461   -2898.8627   -2720.4002    2816.3507   -8792.5385    15.453672     13.38333    26.976313    5579.2841 
  203000      202.987    427.15194    17.557964   -442.70514   -425.14718   -3422.5253   -4783.8343   -414.54231   -5069.1994    15.453674    13.383332    26.976295    5579.2822 
  203500      203.487    396.12518    16.282617   -441.40194   -425.11932   -2787.1508     -4114.14    2034.8638   -6282.1763    15.453677    13.383334    26.976278    5579.2803 
  204000      203.987    399.65941    16.427891   -441.52091   -425.09302   -2017.3327   -3836.5669    3315.6913   -5531.1226    15.453679    13.383336     26.97626    5579.2784 
  204500      204.487    432.96313    17.796831   -442.86321   -425.06638   -2672.2257   -2104.7003    151.96311   -6063.9399    15.453682    13.383338    26.976243    5579.2765 
  205000      204.987    412.16197    16.941805   -441.98029   -425.03848   -2935.2692   -4525.5626    520.82389   -4801.0688    15.453684     13.38334    26.976225    5579.2746 
  205500      205.487    428.62466    17.618499   -442.62964   -425.01114   -3422.3968   -2141.6534   -148.60904    -7976.928    15.453686    13.383342    26.976208    5579.2727 
  206000      205.987    419.68898    17.251201   -442.23572   -424.98452   -3632.0203   -1204.9587   -507.90145   -9183.2006    15.453689    13.383345     26.97619    5579.2708 
  206500      206.487    422.07025    17.349082   -442.30627   -424.95719   -2485.5964   -1045.8555   -423.00798   -5987.9259    15.453691    13.383347    26.976173    5579.2689 
  207000      206.987    445.15138    18.297826   -443.22979   -424.93196   -2671.1312   -3083.4387    946.79168   -5876.7465    15.453694    13.383349    26.976155     5579.267 
  207500      207.487    424.30816    17.441071   -442.34581   -424.90474   -1844.0239   -2274.3055    1496.1711   -4753.9374    15.453696    13.383351    26.976138    5579.2651 
  208000      207.987    421.95534    17.344359   -442.22257   -424.87821   -3102.8153   -3080.6763   -2220.3233   -4007.4464    15.453698    13.383353     26.97612    5579.2632 
  208500      208.487    423.42452    17.404749   -442.25466   -424.84991   -2529.2344   -2439.6675   -1330.5896   -3817.4461    15.453701    13.383355    26.976103    5579.2613 
  209000      208.987    426.60061    17.535301   -442.35818   -424.82288   -3506.1749   -4532.2152   -591.18612   -5395.1232    15.453703    13.383357    26.976085    5579.2594 
  209500      209.487    421.69531     17.33367   -442.12936   -424.79569   -2329.4965   -137.87293    1539.3273   -8389.9437    15.453706    13.383359    26.976068    5579.2575 
  210000      209.987     411.4646     16.91314    -441.6821   -424.76896   -2269.7129   -2841.4026    2257.0905   -6224.8267    15.453708    13.383361     26.97605    5579.2556 
  210500      210.487     422.6096    17.371252   -442.11298   -424.74172   -3584.6812   -3907.7215   -37.253515   -6809.0687     15.45371    13.383363    26.976033    5579.2537 
  211000      210.987     407.1725    16.736714   -441.44991    -424.7132   -1813.2509   -1760.2608    -357.7073   -3321.7845    15.453713    13.383365    26.976015    5579.2518 
  211500      211.487    405.32088    16.660604   -441.34733   -424.68673   -1719.8071   -1359.7171   -191.03259   -3608.6716    15.453715    13.383367    26.975998    5579.2499 
  212000      211.987    414.98697    17.057926   -441.71772    -424.6598   -2427.1801    -1268.981    -332.9139   -5679.6455    15.453718    13.383369     26.97598     5579.248 
[...]
  948500      948.487    581.60252    23.906612   -436.96144   -413.05483    2246.2606    1045.8602     1827.355    3865.5667    15.457253    13.386389    26.950203    5576.4496 
  949000      948.987    574.94007    23.632754   -436.68433   -413.05158    3010.4284    2087.9043    5568.3603    1375.0206    15.457255    13.386391    26.950185    5576.4477 
  949500      949.487    566.72691    23.295154   -436.34342   -413.04826    2647.7349    657.83519    7004.3777    280.99181    15.457258    13.386393    26.950168    5576.4458 
  950000      949.987     554.4982    22.792497   -435.83687   -413.04437     3522.196    4904.5893    2031.1172    3630.8816     15.45726    13.386395     26.95015    5576.4439 
  950500      950.487    574.41741     23.61127   -436.65274   -413.04147    2532.0561    3604.8888     3733.378    257.90148    15.457262    13.386397    26.950133     5576.442 
  951000      950.987     601.3716    24.719215   -437.75857   -413.03935    1165.0995     2459.008    2030.7575   -994.46685    15.457265    13.386399    26.950115    5576.4401 
  951500      951.487    570.22123    23.438788   -436.47603   -413.03725    2430.4209    1480.7205    1088.8406    4721.7015    15.457267    13.386401    26.950098    5576.4382 
  952000      951.987    574.38134    23.609788   -436.64397   -413.03418    2802.5015     4102.693    3042.8323    1261.9791     15.45727    13.386403     26.95008    5576.4363 
  952500      952.487    548.71842     22.55492   -435.58701   -413.03209     3935.252    6143.6925    1354.0541    4308.0094    15.457272    13.386405    26.950063    5576.4344 
  953000      952.987    557.90159    22.932392   -435.96093   -413.02854    3634.5686    2388.4635    5032.2795    3482.9629    15.457274    13.386407    26.950045    5576.4325 
  953500      953.487    578.99021    23.799234   -436.82585   -413.02661    2149.0663     2755.425    3501.4627    190.31116    15.457277    13.386409    26.950028    5576.4306 
  954000      953.987    577.34598    23.731648   -436.75498   -413.02334    1419.8735    4251.2432    4483.6249   -4475.2474    15.457279    13.386411     26.95001    5576.4287 
  954500      954.487    546.97477    22.483248   -435.50153   -413.01828    3749.3759   -2236.8585    3604.8858    9880.1003    15.457282    13.386413    26.949993    5576.4268 
  955000      954.987    545.93732    22.440604   -435.45601   -413.01541    2646.9115    2054.5741    763.59146     5122.569    15.457284    13.386415    26.949975    5576.4249 
  955500      955.487    591.29147    24.304874   -437.31824   -413.01337    499.40698   -1908.2533    2948.3821    458.09213    15.457286    13.386417    26.949958     5576.423 
  956000      955.987    540.97317    22.236554   -435.24537   -413.00881    4127.2635    6897.5742    914.51954    4569.6967    15.457289     13.38642     26.94994    5576.4211 
  956500      956.487    581.42282    23.899226   -436.90278   -413.00355    1762.9444    3081.1262    3434.7286   -1227.0215    15.457291    13.386422    26.949923    5576.4192 
  957000      956.987    588.46793    24.188813   -437.18952   -413.00071    1815.6453    3217.9012    3226.1316   -997.09699    15.457294    13.386424    26.949905    5576.4173 
  957500      957.487    589.40367    24.227276   -437.22458    -412.9973    861.17404    2129.0003    4073.2118     -3618.69    15.457296    13.386426    26.949888    5576.4154 
  958000      957.987     561.2441    23.069785   -436.06309   -412.99331     2369.475    1574.4655    2154.0922    3379.8673    15.457298    13.386428     26.94987    5576.4135 
  958500      958.487     578.6492    23.785217   -436.77532   -412.99011    2536.3674     5999.075    1156.6643    453.36289    15.457301     13.38643    26.949853    5576.4116 
  959000      958.987    548.80887    22.558638   -435.54403   -412.98539    4787.9441    3102.4574    4344.2925    6917.0824    15.457303    13.386432    26.949835    5576.4097 
  959500      959.487    512.78667    21.077956   -434.05695     -412.979    2865.2435    6036.4907    2649.9012   -90.661544    15.457306    13.386434    26.949818    5576.4078 
  960000      959.987    585.54502    24.068668   -437.04691   -412.97824    2806.1842    1115.6402     4178.509    3124.4034    15.457308    13.386436      26.9498    5576.4059 
  960500      960.487    568.42942    23.365136   -436.33784    -412.9727    3958.5582    4981.6293    3189.0401    3705.0053     15.45731    13.386438    26.949783     5576.404 
  961000      960.987    566.15748    23.271748   -436.23958   -412.96783     2098.269   -187.18072    1443.2682    5038.7196    15.457313     13.38644    26.949765    5576.4021 
  961500      961.487    575.92291    23.673153   -436.63649   -412.96334    2385.6436    2603.5648    1422.7651    3130.6009    15.457315    13.386442    26.949748    5576.4002 
  962000      961.987    568.05944    23.349928   -436.31087   -412.96095    1950.4048   -172.70836    4461.1825    1562.7403    15.457318    13.386444     26.94973    5576.3983 
  962500      962.487    557.37966    22.910938   -435.86773   -412.95679    2106.5982    1448.7251    2333.2185     2537.851     15.45732    13.386446    26.949713    5576.3964 
  963000      962.987     560.9371    23.057166   -436.00948   -412.95231    2872.8016     1170.534    4924.7117     2523.159    15.457322    13.386448    26.949695    5576.3945 
  963500      963.487    605.32782    24.881834   -437.83212   -412.95029    1293.9637    2190.1996    3579.9442   -1888.2526    15.457325     13.38645    26.949678    5576.3926 
  964000      963.987    578.85476    23.793666   -436.73774   -412.94407    1472.4565    1405.6697    4203.0839   -1191.3842    15.457327    13.386452     26.94966    5576.3907 
  964500      964.487    582.69862    23.951667   -436.89158   -412.93991    3116.1396    7983.6619    612.58994     752.1669     15.45733    13.386454    26.949643    5576.3888 
  965000      964.987    557.32663    22.908758   -435.84485   -412.93609    3314.9948    2623.2517    3793.3781    3528.3546    15.457332    13.386456    26.949625    5576.3869 
  965500      965.487    578.91546    23.796161   -436.72798   -412.93182    2690.1914   -92.288423    3360.9293    4801.9332    15.457334    13.386458    26.949608     5576.385 
  966000      965.987    555.66209    22.840338   -435.76879   -412.92845    2838.3478   -620.86016    6912.5052    2223.3985    15.457337    13.386461     26.94959    5576.3831 
  966500      966.487    556.57013    22.877663   -435.80017   -412.92251    2715.5698    647.26135    3062.0598    4437.3883    15.457339    13.386463    26.949573    5576.3812 
  967000      966.987      575.416    23.652317   -436.57135   -412.91904    1850.6114    4070.7218    4080.5315   -2599.4192    15.457342    13.386465    26.949555    5576.3793 
  967500      967.487    578.95675    23.797859   -436.71109   -412.91323    3126.9014    5638.4412    3763.2766   -21.013495    15.457344    13.386467    26.949538    5576.3774 
  968000      967.987    531.07393    21.829648   -434.73511   -412.90547     1720.361    2670.7021    2938.1991   -447.81834    15.457346    13.386469     26.94952    5576.3755 
  968500      968.487    560.69103    23.047051   -435.94726   -412.90021    3119.9309    2983.3931     3085.216    3291.1835    15.457349    13.386471    26.949503    5576.3736 
  969000      968.987    551.60085    22.673402   -435.56889   -412.89549     3778.667    2871.6567     5325.548    3138.7963    15.457351    13.386473    26.949485    5576.3717 
  969500      969.487    568.38476      23.3633   -436.25274   -412.88944    2441.9918    4057.8306    1687.4531    1580.6918    15.457354    13.386475    26.949468    5576.3698 
  970000      969.987    564.59703    23.207606   -436.09117   -412.88357    1981.1699    1360.6546    1587.2944    2995.5609    15.457356    13.386477     26.94945    5576.3679 
  970500      970.487    584.91302     24.04269   -436.92336   -412.88067    2699.3266    5269.5771    -1510.856    4339.2587    15.457358    13.386479    26.949433     5576.366 
  971000      970.987    578.25157    23.768872   -436.64359   -412.87471    2709.7435    2486.6446    5180.9013    461.68442    15.457361    13.386481    26.949415    5576.3641 
  971500      971.487    578.82019    23.792246   -436.66132   -412.86907    3193.2884    1117.2715    2732.1201    5730.4736    15.457363    13.386483    26.949398    5576.3622 
  972000      971.987    574.62729    23.619898   -436.48488   -412.86499     2715.469    3462.8553    4733.1924   -49.640563    15.457366    13.386485     26.94938    5576.3603 
  972500      972.487    561.70897    23.088893   -435.94714   -412.85825    2036.6033    1895.0332    5241.7135    -1026.937    15.457368    13.386487    26.949363    5576.3584 
  973000      972.987    577.41255    23.734385   -436.58773   -412.85335    2731.9215    3194.7898    2494.1317     2506.843     15.45737    13.386489    26.949345    5576.3565 
  973500      973.487    599.42054    24.639017   -437.48752    -412.8485    1723.2515    3274.5082    1844.0787    51.167559    15.457373    13.386491    26.949328    5576.3546 
  974000      973.987    552.97422    22.729854   -435.57284   -412.84298    2891.8452   -818.86354    6653.3542    2841.0449    15.457375    13.386493     26.94931    5576.3527 
  974500      974.487     574.5358    23.616137   -436.45373   -412.83759    1600.5755     2527.708    4166.1584   -1892.1399    15.457378    13.386495    26.949293    5576.3508 
  975000      974.987    602.36383        24.76   -437.59161   -412.83161    1387.5795     2902.869    1998.9167   -739.04725     15.45738    13.386497    26.949275    5576.3488 
  975500      975.487     543.6248    22.345548   -435.17131   -412.82576    2492.6275    5776.9228    3831.2772   -2130.3175    15.457382    13.386499    26.949258    5576.3469 
  976000      975.987    591.75818    24.324058   -437.14474   -412.82068    2196.3454    1358.3415     4735.278    495.41663    15.457385    13.386502     26.94924     5576.345 
  976500      976.487    548.09159    22.529155   -435.34406   -412.81491    3027.8229    1028.5546    7393.8723    661.04179    15.457387    13.386504    26.949223    5576.3431 
  977000      976.987    549.41219    22.583437   -435.39058   -412.80714    3133.2607     2373.936     138.2317    6887.6143     15.45739    13.386506    26.949205    5576.3412 
  977500      977.487     568.0636    23.350098   -436.15209   -412.80199    3028.0005     5002.898     7381.261   -3300.1575    15.457392    13.386508    26.949188    5576.3393 
  978000      977.987     567.0449    23.308225   -436.10362   -412.79539    487.32538   -1628.2505    2784.7133    305.51334    15.457394     13.38651     26.94917    5576.3374 
  978500      978.487    572.12355    23.516982    -436.3059   -412.78892    2599.8313    4005.9542    3795.2831   -1.7433054    15.457397    13.386512    26.949153    5576.3355 
  979000      978.987    553.67707    22.758744   -435.54171   -412.78296    2977.4185    253.41321    3284.8295     5394.013    15.457399    13.386514    26.949135    5576.3336 
  979500      979.487    543.51677    22.341108   -435.11866   -412.77755    3111.8132    3399.6081    7597.0696   -1661.2381    15.457402    13.386516    26.949118    5576.3317 
  980000      979.987    591.25197     24.30325   -437.07715    -412.7739    1037.9122    1049.3261    4101.7957   -2037.3853    15.457404    13.386518      26.9491    5576.3298 
  980500      980.487    571.47804    23.490448   -436.25639   -412.76594    3206.1291       1642.6     5985.096    1990.6913    15.457406     13.38652    26.949083    5576.3279 
  981000      980.987    586.08562    24.090889   -436.85113   -412.76024    3198.6274    3410.5736    5334.0902    851.21842    15.457409    13.386522    26.949065     5576.326 
  981500      981.487    586.93476    24.125793   -436.87991   -412.75411     1801.414    1263.1593    3199.0568    942.02594    15.457411    13.386524    26.949048    5576.3241 
  982000      981.987    597.13461    24.545055   -437.29275   -412.74769    2568.3356    776.01295    5108.0194    1820.9743    15.457414    13.386526     26.94903    5576.3222 
  982500      982.487    548.28014    22.536905   -435.27706   -412.74016     1847.105    1114.4473    1881.4556    2545.4121    15.457416    13.386528    26.949013    5576.3203 
  983000      982.987    572.18526    23.519518   -436.25405   -412.73453    2393.7913    2669.9752    4030.9925    480.40624    15.457418     13.38653    26.948995    5576.3184 
  983500      983.487    592.96829    24.373799   -437.10171   -412.72791    1840.4031     3318.603    3958.5396   -1755.9331    15.457421    13.386532    26.948978    5576.3165 
  984000      983.987     529.2473    21.754565   -434.47404   -412.71947    3452.2792    5255.0507    2786.2432    2315.5439    15.457423    13.386534     26.94896    5576.3146 
  984500      984.487    597.41851    24.556724    -437.2708   -412.71408    2709.8632    2131.0429      5828.74    169.80669    15.457426    13.386536    26.948943    5576.3127 
  985000      984.987    545.78791    22.434463   -435.14064   -412.70617    4672.8846    6259.3261    -104.5312    7863.8588    15.457428    13.386538    26.948925    5576.3108 
  985500      985.487    579.12336    23.804707   -436.50418   -412.69947    2958.7467    4263.7218    1978.4462     2634.072     15.45743     13.38654    26.948908    5576.3089 
  986000      985.987     565.7626    23.255517    -435.9479   -412.69238    1760.8173    2673.6147    6364.7738   -3755.9366    15.457433    13.386543     26.94889     5576.307 
  986500      986.487    543.93637    22.358356   -435.04275   -412.68439    2363.3494    2552.2504    4092.8774    444.92024    15.457435    13.386545    26.948873    5576.3051 
  987000      986.987    592.29514    24.346129   -437.02535   -412.67922    1051.6574    1190.8514    1918.3431    45.777704    15.457438    13.386547    26.948855    5576.3032 
  987500      987.487    534.31393    21.962828   -434.63334   -412.67051    2778.5548    2375.1953     4436.387    1524.0821     15.45744    13.386549    26.948838    5576.3013 
  988000      987.987    567.29167    23.318369   -435.98303   -412.66467    2177.6948     3204.128    4096.4203   -767.46383    15.457442    13.386551     26.94882    5576.2994 
  988500      988.487     552.4903    22.709962   -435.36743   -412.65747    3409.0645    6439.7861    4671.1385   -883.73117    15.457445    13.386553    26.948803    5576.2975 
  989000      988.987    571.42862    23.488417   -436.13714   -412.64872    3001.9708    738.33565    4093.8106    4173.7662    15.457447    13.386555    26.948785    5576.2956 
  989500      989.487    540.38313    22.212301   -434.85108   -412.63878    3849.3066    4114.1411    3162.3198    4271.4588     15.45745    13.386557    26.948768    5576.2937 
  990000      989.987     579.1179    23.804483   -436.43889    -412.6344    2772.3368    6262.3094    1783.5143    271.18664    15.457452    13.386559     26.94875    5576.2918 
  990500      990.487    537.66365    22.100517   -434.72739   -412.62687    2689.9486    663.18557    6452.7692    953.89109    15.457454    13.386561    26.948733    5576.2899 
  991000      990.987    561.29162    23.071738   -435.69253   -412.62079     2738.834    1702.9282    6166.5451     347.0287    15.457457    13.386563    26.948715     5576.288 
  991500      991.487    596.76803    24.529986   -437.14453   -412.61455    307.68524    121.14977    3949.3922   -3147.4863    15.457459    13.386565    26.948698    5576.2861 
  992000      991.987     539.6454    22.181976   -434.78763   -412.60565    3603.1959   -2287.0499     5659.519    7437.1188    15.457462    13.386567     26.94868    5576.2842 
  992500      992.487    564.92296    23.221004    -435.8227    -412.6017    2453.8019   -3469.3716    4050.6164    6780.1611    15.457464    13.386569    26.948663    5576.2823 
  993000      992.987    547.86021    22.519644    -435.1119   -412.59225    2728.3837   -2483.7148    4200.5717    6468.2944    15.457466    13.386571    26.948645    5576.2804 
  993500      993.487    552.21622    22.698697    -435.2843    -412.5856    2912.3567    2430.6632    4309.2894    1997.1174    15.457469    13.386573    26.948628    5576.2785 
  994000      993.987    613.61555    25.222499   -437.79974   -412.57724    1805.7385   -102.97294    4865.3876    654.80089    15.457471    13.386575     26.94861    5576.2766 
  994500      994.487      571.012    23.471292   -436.04171   -412.57042    1738.0003   -1806.9885    8389.4227   -1368.4334    15.457474    13.386577    26.948593    5576.2747 
  995000      994.987    551.86173    22.684125   -435.24532   -412.56119    1916.6793   -2046.1467     8517.136   -720.95139    15.457476    13.386579    26.948575    5576.2728 
  995500      995.487    556.30688    22.866842   -435.42039   -412.55355    4332.9291    3257.6588    8676.1915     1064.937    15.457478    13.386581    26.948558    5576.2709 
  996000      995.987    579.15215    23.805891   -436.35243   -412.54654    3683.2967     4007.452    3657.5384    3384.8998    15.457481    13.386584     26.94854     5576.269 
  996500      996.487     563.6611    23.169135   -435.70676   -412.53763    3508.4438   -1712.8014    5110.3998     7127.733    15.457483    13.386586    26.948523    5576.2671 
  997000      996.987    569.61138     23.41372   -435.94206   -412.52834    1607.2632    1318.5132    3153.0174    350.25895    15.457486    13.386588    26.948505    5576.2652 
  997500      997.487    587.96714    24.168228   -436.69085   -412.52262    3334.4189     796.2174    7654.3227    1552.7165    15.457488     13.38659    26.948488    5576.2633 
  998000      997.987    558.89948     22.97341   -435.48614   -412.51273    2758.9788   -802.90849    4011.6944    5068.1505     15.45749    13.386592     26.94847    5576.2614 
  998500      998.487    560.48784    23.038699   -435.54372   -412.50502     3436.869   -1609.7131    6617.4768    5302.8434    15.457493    13.386594    26.948453    5576.2595 
  999000      998.987    582.24353    23.932961   -436.42923   -412.49627    2961.7941   -499.21805    8347.3559    1037.2446    15.457495    13.386596    26.948435    5576.2576 
  999500      999.487     576.8032    23.709338   -436.19758   -412.48825    2059.8595   -7361.5371    8650.2504    4890.8653    15.457498    13.386598    26.948418    5576.2557 
 1000000      999.987     550.6274    22.633388   -435.11333   -412.47994     3249.686    1227.8523    5560.7744    2960.4314      15.4575      13.3866      26.9484    5576.2538 
 1000013         1000    551.18433    22.656281   -435.13639    -412.4801    2953.1508    342.58459     5505.574    3011.2939      15.4575      13.3866      26.9484    5576.2537 
Loop time of 926.735 on 28 procs for 1000000 steps with 319 atoms

Performance: 93.231 ns/day, 0.257 hours/ns, 1079.057 timesteps/s
87.5% CPU use with 28 MPI tasks x no OpenMP threads

MPI task timing breakdown:
Section |  min time  |  avg time  |  max time  |%varavg| %total
---------------------------------------------------------------
Pair    | 751.06     | 801.57     | 837.42     |  80.7 | 86.49
Neigh   | 0.018903   | 0.030824   | 0.040983   |   3.3 |  0.00
Comm    | 78.376     | 112.67     | 162.34     | 208.1 | 12.16
Output  | 0.099913   | 0.10215    | 0.12239    |   1.3 |  0.01
Modify  | 4.7286     | 7.209      | 12.203     |  81.3 |  0.78
Other   |            | 5.155      |            |       |  0.56

Nlocal:    11.3929 ave 16 max 7 min
Histogram: 3 2 3 2 4 2 5 4 2 1
Nghost:    646.857 ave 684 max 580 min
Histogram: 2 2 0 1 1 3 6 3 8 2
Neighs:    712.571 ave 1010 max 419 min
Histogram: 3 3 2 2 3 3 4 4 3 1
FullNghs:  1425.14 ave 2035 max 852 min
Histogram: 3 2 3 2 4 2 5 4 2 1

Total # of neighbors = 39904
Ave neighs/atom = 125.091
Neighbor list builds = 458
Dangerous builds = 0

write_restart   POSCAR_1x1x1.rest

#unfix    1
#undump   1
Total wall time: 0:15:26
