LAMMPS (7 Dec 2015)
#----------- Initialize Simulation ------------ restart01
#processors	2 2 2
units		metal
boundary	p p p     ## periodic boundary condition  on x y z axis ##
atom_style atomic
#atom_modify map array sort 0 0.0

read_data	POSCAR_1x1x1.lammps
  triclinic box = (0 0 0) to (15.2149 13.1765 28.7324) with tilt (-7.60743 0 0)
  2 by 2 by 7 MPI processor grid
  reading atoms ...
  324 atoms

#----------- Define Potential -----------------
pair_style meam
pair_coeff * * MgAlZn.library.meam Mg Al Zn MgAlZn.parameter.meam Mg Al Zn 	#1=Mg 2=Al 3=Zn	#atoms/mass

#----------- Neighbor List --------------------
neighbor 2.0 bin
neigh_modify delay 10 check yes

#--------------  Run a simulation (minimization) ---------------------------------------
minimize       1.0e-4   1.0e-6   100   1000          #結構優化的條件
WARNING: Resetting reneighboring criteria during minimization (../min.cpp:168)
Neighbor list info ...
  2 neighbor list requests
  update every 1 steps, delay 0 steps, check yes
  max neighbors/atom: 2000, page size: 100000
  master list distance cutoff = 8
  ghost atom cutoff = 8
  binsize = 4 -> bins = 6 4 8
Memory usage per processor = 8.65338 Mbytes
Step Temp E_pair E_mol TotEng Press 
       0            0   -481.32817            0   -481.32817   -2240.6285 
      13            0   -496.12735            0   -496.12735   -9227.5148 
Loop time of 0.0222265 on 28 procs for 13 steps with 324 atoms

88.1% CPU use with 28 MPI tasks x no OpenMP threads

Minimization stats:
  Stopping criterion = energy tolerance
  Energy initial, next-to-last, final = 
        -481.328174936     -496.084029432     -496.127354698
  Force two-norm initial, final = 21.3842 1.07002
  Force max component initial, final = 4.05447 0.177215
  Final line search alpha, max atom move = 0.223367 0.0395841
  Iterations, force evaluations = 13 25

MPI task timing breakdown:
Section |  min time  |  avg time  |  max time  |%varavg| %total
---------------------------------------------------------------
Pair    | 0.018164   | 0.019113   | 0.020105   |   0.4 | 85.99
Neigh   | 0          | 0          | 0          |   0.0 |  0.00
Comm    | 0.001302   | 0.002225   | 0.0031752  |   1.2 | 10.01
Output  | 0          | 0          | 0          |   0.0 |  0.00
Modify  | 0          | 0          | 0          |   0.0 |  0.00
Other   |            | 0.0008889  |            |       |  4.00

Nlocal:    11.5714 ave 15 max 9 min
Histogram: 3 9 0 3 0 4 4 0 1 4
Nghost:    661.25 ave 713 max 626 min
Histogram: 7 4 1 3 5 0 0 2 3 3
Neighs:    719.786 ave 959 max 528 min
Histogram: 2 3 6 3 3 3 2 2 1 3
FullNghs:  1439.57 ave 1882 max 1104 min
Histogram: 3 9 0 3 0 4 4 0 1 4

Total # of neighbors = 40308
Ave neighs/atom = 124.407
Neighbor list builds = 0
Dangerous builds = 0
velocity all  create 393.0 4928459 #rot yes dist gaussian

#--------------  Run a simulation (Relaxation)  ----------------------------------------
fix  1  all  nvt   temp  393.0  393.0  100				#damping constant
#fix  2  all  npt   temp  393.0  393.0  50 iso 0.0 0.0 1000.0
#fix  2  all deform 1 x final 0 15.6906 y final 0 13.5884 z final 0 25.2339 xy final -7.8452 units lattice
#fix  3  all  npt   temp  393.0  393.0  50 z 0.0 0.0 1000.0

#variable b equal 1
#fix 2 all efield  0.0  0.0  v_b
#compute pot all pe/atom


#----------- Output --------------------------
thermo	 500
timestep  0.001		#1.0 fs
thermo_style	custom step time temp ke pe etotal press pxx pyy pzz lx ly lz vol

dump 1 all custom 10000 dump.eq id type x y z
dump_modify 1 sort  id

run        1000000	#10000	 ps
Neighbor list info ...
  2 neighbor list requests
  update every 1 steps, delay 10 steps, check yes
  max neighbors/atom: 2000, page size: 100000
  master list distance cutoff = 8
  ghost atom cutoff = 8
  binsize = 4 -> bins = 6 4 8
Memory usage per processor = 7.54385 Mbytes
Step Time Temp KinEng PotEng TotEng Press Pxx Pyy Pzz Lx Ly Lz Volume 
      13            0          393    16.408154   -496.12735    -479.7192   -6184.9647     17355.03    23940.575     -59850.5      15.2149      13.1765      28.7324    5760.2466 
     500        0.487    213.62972    8.9192602   -488.63422   -479.71496   -4716.8968    21272.185    26587.165   -62010.041      15.2149      13.1765      28.7324    5760.2466 
    1000        0.987    210.85032    8.8032174   -488.51798   -479.71477   -4749.9725    18672.254    27145.039    -60067.21      15.2149      13.1765      28.7324    5760.2466 
    1500        1.487     209.8338    8.7607764   -488.47462   -479.71385    -3040.333    22014.438     26520.73   -57656.166      15.2149      13.1765      28.7324    5760.2466 
    2000        1.987    223.39851    9.3271172   -489.04095   -479.71383   -4520.0617    21276.994    28782.601   -63619.781      15.2149      13.1765      28.7324    5760.2466 
    2500        2.487    205.80103    8.5924043   -488.30448   -479.71208   -2759.4412    23209.581    28841.018   -60328.923      15.2149      13.1765      28.7324    5760.2466 
    3000        2.987    213.00595    8.8932171   -488.60421   -479.71099   -4010.1409    21792.072    28381.318   -62203.812      15.2149      13.1765      28.7324    5760.2466 
    3500        3.487    214.41349    8.9519834   -488.66171   -479.70972   -4109.5775    21933.965    26319.087   -60581.785      15.2149      13.1765      28.7324    5760.2466 
    4000        3.987    196.89138    8.2204171   -487.92817   -479.70775   -3075.7487    25175.484    27592.089   -61994.819      15.2149      13.1765      28.7324    5760.2466 
    4500        4.487    215.24267    8.9866024   -488.69319   -479.70659   -3099.8622      23954.2    26991.047   -60244.833      15.2149      13.1765      28.7324    5760.2466 
    5000        4.987    217.98575    9.1011287   -488.80631   -479.70518   -2867.5101    21340.028    29632.024   -59574.582      15.2149      13.1765      28.7324    5760.2466 
    5500        5.487    217.52365    9.0818356   -488.78475   -479.70292   -4159.1154     20587.31    27335.266   -60399.922      15.2149      13.1765      28.7324    5760.2466 
    6000        5.987    220.64547    9.2121748     -488.913   -479.70083   -3666.1341     21665.88    29169.461   -61833.744      15.2149      13.1765      28.7324    5760.2466 
    6500        6.487    226.28372    9.4475777   -489.14567   -479.69809   -3635.5787    20446.227    29293.089   -60646.052      15.2149      13.1765      28.7324    5760.2466 
    7000        6.987    217.27676     9.071528   -488.76626   -479.69473   -3287.0574    21907.442    28876.316   -60644.931      15.2149      13.1765      28.7324    5760.2466 
    7500        7.487    216.16807    9.0252391    -488.7173   -479.69206   -4061.4219    22135.725    25640.566   -59960.557      15.2149      13.1765      28.7324    5760.2466 
    8000        7.987    212.39587    8.8677457   -488.55592   -479.68817   -4237.6171    21777.265    29077.315   -63567.431      15.2149      13.1765      28.7324    5760.2466 
    8500        8.487    214.90769    8.9726169   -488.65794   -479.68532   -4174.7455    21387.006    29722.249   -63633.492      15.2149      13.1765      28.7324    5760.2466 
    9000        8.987    202.71553    8.4635816   -488.14481   -479.68123   -4335.0498    20177.656    29912.218   -63095.023      15.2149      13.1765      28.7324    5760.2466 
    9500        9.487    217.78577    9.0927795   -488.77074   -479.67796   -3652.9287    22732.676    29948.781   -63640.243      15.2149      13.1765      28.7324    5760.2466 
   10000        9.987    212.24491    8.8614428   -488.53518   -479.67374   -4536.7373    19464.553    26583.138   -59657.903      15.2149      13.1765      28.7324    5760.2466 
   10500       10.487    206.67219    8.6287761   -488.29849   -479.66971   -4339.6738    23477.049    26041.581   -62537.652      15.2149      13.1765      28.7324    5760.2466 
   11000       10.987    205.35492    8.5737786   -488.23917   -479.66539   -3356.2277    20217.415    28261.828   -58547.926      15.2149      13.1765      28.7324    5760.2466 
   11500       11.487    206.19581    8.6088867   -488.26979    -479.6609   -4478.4884    22166.089    27139.325   -62740.879      15.2149      13.1765      28.7324    5760.2466 
   12000       11.987    205.86885    8.5952357    -488.2512   -479.65597    -3231.179     19315.79    26889.954   -55899.281      15.2149      13.1765      28.7324    5760.2466 
   12500       12.487    190.07345    7.9357617   -487.58581   -479.65004   -3352.4412    23882.183     27752.19   -61691.697      15.2149      13.1765      28.7324    5760.2466 
   13000       12.987     208.0487    8.6862467   -488.33203   -479.64578   -3877.0422    22689.913    26489.351    -60810.39      15.2149      13.1765      28.7324    5760.2466 
   13500       13.487    210.93462    8.8067372   -488.44723    -479.6405   -4064.5557     20340.61    28227.442   -60761.719      15.2149      13.1765      28.7324    5760.2466 
   14000       13.987    201.65744    8.4194053   -488.05378   -479.63438    -3279.713      24094.9    25716.094   -59650.133      15.2149      13.1765      28.7324    5760.2466 
   14500       14.487    217.00496    9.0601798   -488.68953   -479.62935   -4653.7569    18830.706     26725.43   -59517.407      15.2149      13.1765      28.7324    5760.2466 
   15000       14.987    208.73823    8.7150355   -488.33864    -479.6236   -3722.4473    24581.046    24595.314   -60343.702      15.2149      13.1765      28.7324    5760.2466 
   15500       15.487    207.36177    8.6575669   -488.27396   -479.61639   -4201.8548    19371.596    31640.632   -63617.792      15.2149      13.1765      28.7324    5760.2466 
   16000       15.987    208.87693    8.7208263   -488.33109   -479.61026   -4185.7498    20783.181    28531.468   -61871.899      15.2149      13.1765      28.7324    5760.2466 
   16500       16.487    223.16047    9.3171788   -488.92228    -479.6051   -3814.1346    22911.699    26346.336   -60700.439      15.2149      13.1765      28.7324    5760.2466 
   17000       16.987    203.46736    8.4949712   -488.09227    -479.5973   -3893.6093    22005.098    31620.003   -65305.929      15.2149      13.1765      28.7324    5760.2466 
   17500       17.487    221.48352    9.2471642   -488.83723   -479.59007   -3759.4792    21917.911    29436.481    -62632.83      15.2149      13.1765      28.7324    5760.2466 
   18000       17.987    220.91648    9.2234899   -488.80646   -479.58297   -3633.5319    20476.684    27666.909   -59044.189      15.2149      13.1765      28.7324    5760.2466 
   18500       18.487    205.31051    8.5719248   -488.14686   -479.57493   -3145.1534    22718.497    27259.879   -59413.836      15.2149      13.1765      28.7324    5760.2466 
   19000       18.987    212.26962    8.8624746   -488.42976   -479.56729   -4373.3985    23997.586    26651.202   -63768.984      15.2149      13.1765      28.7324    5760.2466 
   19500       19.487    216.83489    9.0530793   -488.61279   -479.55971   -4308.1662    23228.166    26410.253   -62562.917      15.2149      13.1765      28.7324    5760.2466 
   20000       19.987    212.09424    8.8551524    -488.4063   -479.55114   -3934.9177    21576.331    28335.263   -61716.348      15.2149      13.1765      28.7324    5760.2466 
   20500       20.487    222.57747    9.2928378   -488.83646   -479.54362   -4138.3588    20573.988    26488.195   -59477.259      15.2149      13.1765      28.7324    5760.2466 
   21000       20.987    203.70357    8.5048331   -488.03938   -479.53454   -3968.5483    24857.346    29942.322   -66705.313      15.2149      13.1765      28.7324    5760.2466 
   21500       21.487    219.69603     9.172535   -488.69903   -479.52649   -2870.2533     22205.55     29137.17    -59953.48      15.2149      13.1765      28.7324    5760.2466 
   22000       21.987    223.57219    9.3343683   -488.85178   -479.51741   -3654.1335    22494.704    28013.854   -61470.958      15.2149      13.1765      28.7324    5760.2466 
   22500       22.487    221.35994    9.2420047    -488.7508   -479.50879   -4949.4469    24035.491    26773.128    -65656.96      15.2149      13.1765      28.7324    5760.2466 
   23000       22.987     206.4165    8.6181008   -488.11707   -479.49897   -3605.2996    24301.186    28019.665   -63136.749      15.2149      13.1765      28.7324    5760.2466 
   23500       23.487    213.26788    8.9041528    -488.3942   -479.49005   -3416.5255    25951.843    27322.481     -63523.9      15.2149      13.1765      28.7324    5760.2466 
   24000       23.987    209.72604    8.7562777    -488.2361   -479.47982     -3131.35    23085.404    27641.908   -60121.362      15.2149      13.1765      28.7324    5760.2466 
   24500       24.487    223.27054    9.3217742   -488.79295   -479.47118   -3626.9442    23059.471    27284.892   -61225.195      15.2149      13.1765      28.7324    5760.2466 
   25000       24.987    217.31997    9.0733318   -488.53377   -479.46044   -3653.3422    20006.834    28359.957   -59326.818      15.2149      13.1765      28.7324    5760.2466 
   25500       25.487     203.8655     8.511594   -487.96254   -479.45095   -2933.0954    25411.115    27728.047   -61938.448      15.2149      13.1765      28.7324    5760.2466 
   26000       25.987    213.73182    8.9235228    -488.3638   -479.44028   -3240.1711    24442.285    26192.611    -60355.41      15.2149      13.1765      28.7324    5760.2466 
   26500       26.487    205.79178     8.592018   -488.02171   -479.42969   -2576.4914    24858.134    27768.179   -60355.787      15.2149      13.1765      28.7324    5760.2466 
   27000       26.987    222.77865    9.3012374   -488.72127   -479.42003   -3070.0993    27581.437    28747.212   -65538.947      15.2149      13.1765      28.7324    5760.2466 
   27500       27.487    215.56978    9.0002597   -488.40921   -479.40895     -3296.01    27137.633    28871.483   -65897.146      15.2149      13.1765      28.7324    5760.2466 
   28000       27.987    209.18973     8.733886   -488.13088   -479.39699   -3572.3361    22770.089    29480.782   -62967.879      15.2149      13.1765      28.7324    5760.2466 
   28500       28.487    224.56344     9.375754   -488.76151   -479.38575   -4256.0878    25567.959     26656.87   -64993.093      15.2149      13.1765      28.7324    5760.2466 
   29000       28.987    226.06772    9.4385595   -488.81369   -479.37513    -3999.556    20490.094    28207.524   -60696.286      15.2149      13.1765      28.7324    5760.2466 
   29500       29.487    219.24557    9.1537276   -488.51803    -479.3643   -4446.2645      24444.7    29659.394   -67442.887      15.2149      13.1765      28.7324    5760.2466 
   30000       29.987     221.5661    9.2506123   -488.60266   -479.35205   -2784.7591    25684.123    28876.302   -62914.702      15.2149      13.1765      28.7324    5760.2466 
   30500       30.487    225.35545    9.4088216   -488.74966   -479.34084   -3246.2036    20528.262    28161.204   -58428.077      15.2149      13.1765      28.7324    5760.2466 
   31000       30.987    222.05684    9.2711011   -488.60011   -479.32901   -4063.0168    20487.011    28959.641   -61635.702      15.2149      13.1765      28.7324    5760.2466 
   31500       31.487    207.40042    8.6591804   -487.97553   -479.31635   -4228.3811    23124.629    28123.007   -63932.779      15.2149      13.1765      28.7324    5760.2466 
   32000       31.987    227.72768    9.5078646    -488.8133   -479.30543   -4839.3127    22352.135     29165.17   -66035.244      15.2149      13.1765      28.7324    5760.2466 
   32500       32.487    219.83061    9.1781536   -488.47148   -479.29332    -3784.291    21995.651    29920.038   -63268.562      15.2149      13.1765      28.7324    5760.2466 
   33000       32.987    226.69841    9.4648914   -488.74538   -479.28049   -3561.4331    20701.716    28319.016   -59705.031      15.2149      13.1765      28.7324    5760.2466 
   33500       33.487    215.12116    8.9815291   -488.24941   -479.26788   -4589.7176    23990.297    29071.971    -66831.42      15.2149      13.1765      28.7324    5760.2466 
   34000       33.987    222.90861    9.3066634   -488.56272   -479.25605   -3530.5816    22118.073     27473.91   -60183.728      15.2149      13.1765      28.7324    5760.2466 
   34500       34.487    216.80702    9.0519156   -488.29532    -479.2434    -3617.055    22925.816    29027.487   -62804.468      15.2149      13.1765      28.7324    5760.2466 
   35000       34.987    210.40119    8.7844657   -488.01497    -479.2305   -3006.1799    24897.767    30741.829   -64658.135      15.2149      13.1765      28.7324    5760.2466 
   35500       35.487    223.95871    9.3505061   -488.56936   -479.21885     -4457.99    22102.485    26595.513   -62071.968      15.2149      13.1765      28.7324    5760.2466 
   36000       35.987    225.49419    9.4146138    -488.6204   -479.20579   -4663.7175    22689.086    28269.753   -64949.991      15.2149      13.1765      28.7324    5760.2466 
   36500       36.487    220.45911    9.2043943   -488.39793   -479.19353   -1927.3576    27333.421    30683.826   -63799.319      15.2149      13.1765      28.7324    5760.2466 
   37000       36.987    201.90698    8.4298235   -487.60982      -479.18   -3294.6648    22391.098     32705.32   -64980.413      15.2149      13.1765      28.7324    5760.2466 
   37500       37.487    218.32383    9.1152443   -488.28252   -479.16727   -2838.8458    26433.977    30635.109   -65585.623      15.2149      13.1765      28.7324    5760.2466 
   38000       37.987    231.65979    9.6720342   -488.82737   -479.15533   -3732.2597    21223.145    27735.604   -60155.528      15.2149      13.1765      28.7324    5760.2466 
   38500       38.487    218.93988    9.1409646   -488.28259   -479.14163   -4044.4139    23402.108    25986.326   -61521.676      15.2149      13.1765      28.7324    5760.2466 
   39000       38.987    221.85097    9.2625056   -488.39122   -479.12872   -3831.7094    21833.106    28798.887   -62127.121      15.2149      13.1765      28.7324    5760.2466 
   39500       39.487    206.90846    8.6386405    -487.7541   -479.11546   -4154.1304     23243.31     26363.35   -62069.051      15.2149      13.1765      28.7324    5760.2466 
   40000       39.987    230.76455     9.634657   -488.73762   -479.10296   -4134.4081    23498.693    26723.696   -62625.613      15.2149      13.1765      28.7324    5760.2466 
   40500       40.487    213.95467     8.932827    -488.0228   -479.08997    -4425.036    20785.814    27453.853   -61514.776      15.2149      13.1765      28.7324    5760.2466 
   41000       40.987    231.70092    9.6737513   -488.75166   -479.07791   -3703.9641    21597.497     25406.89    -58116.28      15.2149      13.1765      28.7324    5760.2466 
   41500       41.487    215.45956    8.9956578   -488.06029   -479.06464     -3451.14    26466.308    27085.306   -63905.034      15.2149      13.1765      28.7324    5760.2466 
   42000       41.987    223.05293    9.3126889   -488.36428   -479.05159   -3719.2741    22565.513    27147.412   -60870.747      15.2149      13.1765      28.7324    5760.2466 
   42500       42.487    229.12542    9.5662214     -488.605   -479.03877   -2763.8343     25222.99    29875.662   -63390.154      15.2149      13.1765      28.7324    5760.2466 
   43000       42.987    214.06888    8.9375956   -487.96297   -479.02538   -2827.7583    22636.551    29232.659   -60352.485      15.2149      13.1765      28.7324    5760.2466 
   43500       43.487    217.52544    9.0819103   -488.09427   -479.01236   -3007.4966    23871.723    29917.217    -62811.43      15.2149      13.1765      28.7324    5760.2466 
   44000       43.987    214.67178    8.9627672   -487.96212   -478.99936   -4206.0502    22935.364    26532.487   -62086.002      15.2149      13.1765      28.7324    5760.2466 
   44500       44.487     220.5216    9.2070033    -488.1937    -478.9867   -4032.1326    23807.826    29176.873   -65081.097      15.2149      13.1765      28.7324    5760.2466 
   45000       44.987    223.39593    9.3270096   -488.30142   -478.97441   -4406.6146    25803.681    26280.183   -65303.708      15.2149      13.1765      28.7324    5760.2466 
   45500       45.487    221.38522    9.2430602   -488.20464   -478.96158   -4122.6639    26255.967    28936.229   -67560.188      15.2149      13.1765      28.7324    5760.2466 
   46000       45.987    226.53953     9.458258   -488.40661   -478.94835     -3585.69    24134.342     29955.03   -64846.442      15.2149      13.1765      28.7324    5760.2466 
   46500       46.487    227.16261    9.4842721   -488.41989   -478.93562   -3366.3483    24691.064    32131.441    -66921.55      15.2149      13.1765      28.7324    5760.2466 
   47000       46.987    226.01186    9.4362272   -488.35947   -478.92324   -3962.4777    24527.011    28366.957   -64781.401      15.2149      13.1765      28.7324    5760.2466 
   47500       47.487    234.23442    9.7795275   -488.69074   -478.91121   -3601.3393    20688.796    28463.591   -59956.405      15.2149      13.1765      28.7324    5760.2466 
   48000       47.987    225.17289    9.4011994   -488.30011   -478.89891   -3093.8982    22229.794    31045.951    -62557.44      15.2149      13.1765      28.7324    5760.2466 
   48500       48.487    229.54227    9.5836255   -488.46993    -478.8863    -3979.042    22976.987     28253.14   -63167.253      15.2149      13.1765      28.7324    5760.2466 
   49000       48.987    222.99478     9.310261   -488.18349   -478.87323    -3720.785    24112.506     28508.77   -63783.631      15.2149      13.1765      28.7324    5760.2466 
   49500       49.487    220.65829      9.21271   -488.07316   -478.86045    -4817.586    24357.464    27455.604   -66265.827      15.2149      13.1765      28.7324    5760.2466 
   50000       49.987    235.17883    9.8189577   -488.66781   -478.84886   -4377.7348    24093.727    27028.036   -64254.968      15.2149      13.1765      28.7324    5760.2466 
   50500       50.487    212.77242    8.8834668   -487.71949   -478.83602   -3851.8005    23037.198    31382.726   -65975.325      15.2149      13.1765      28.7324    5760.2466 
   51000       50.987    233.59813    9.7529619   -488.57749   -478.82453     -3024.61    20527.839     30661.89   -60263.559      15.2149      13.1765      28.7324    5760.2466 
   51500       51.487    233.85987    9.7638898   -488.57666   -478.81277   -4057.7627    21757.875    27214.533   -61145.696      15.2149      13.1765      28.7324    5760.2466 
   52000       51.987    223.48163    9.3305874   -488.13094   -478.80036   -2594.7964    22375.637    30319.413   -60479.439      15.2149      13.1765      28.7324    5760.2466 
   52500       52.487    216.16761    9.0252196    -487.8137   -478.78848    -4090.907     23902.23    27893.229    -64068.18      15.2149      13.1765      28.7324    5760.2466 
   53000       52.987    232.30928     9.699151   -488.47579   -478.77664   -5012.3035    23543.611    28563.309   -67143.831      15.2149      13.1765      28.7324    5760.2466 
   53500       53.487    231.24268    9.6546194   -488.42043   -478.76581   -3636.5955    24787.229    27810.296   -63507.311      15.2149      13.1765      28.7324    5760.2466 
   54000       53.987    227.87942    9.5141998   -488.26738   -478.75318   -3353.7587    20056.247    27838.288   -57955.811      15.2149      13.1765      28.7324    5760.2466 
   54500       54.487    234.09141    9.7735568   -488.51532   -478.74176   -3385.3329    21274.106     30681.25   -62111.354      15.2149      13.1765      28.7324    5760.2466 
   55000       54.987    228.43136    9.5372436   -488.26742   -478.73018   -2745.8751     20992.77    31806.577   -61036.972      15.2149      13.1765      28.7324    5760.2466 
   55500       55.487    228.33872    9.5333761   -488.25219   -478.71881   -3699.0875    23434.111      29796.2   -64327.573      15.2149      13.1765      28.7324    5760.2466 
   56000       55.987    230.12823    9.6080898   -488.31512   -478.70703   -3941.4323    22402.222    25917.726   -60144.244      15.2149      13.1765      28.7324    5760.2466 
   56500       56.487    241.55647    10.085231   -488.78088   -478.69565   -3194.8936    22394.627    26625.664   -58604.972      15.2149      13.1765      28.7324    5760.2466 
   57000       56.987    243.50229     10.16647    -488.8504   -478.68393   -3941.6411    24117.385    27113.498   -63055.807      15.2149      13.1765      28.7324    5760.2466 
   57500       57.487    223.36639     9.325776   -487.99867    -478.6729   -2844.2923    25376.442    25228.069   -59137.388      15.2149      13.1765      28.7324    5760.2466 
   58000       57.987    234.05293    9.7719502    -488.4339   -478.66195   -2800.7425    22243.957    31101.331   -61747.515      15.2149      13.1765      28.7324    5760.2466 
   58500       58.487    228.55969    9.5426017   -488.19331   -478.65071    -3619.889    22624.529    26912.712   -60396.908      15.2149      13.1765      28.7324    5760.2466 
   59000       58.987    239.29576    9.9908439   -488.63067   -478.63982   -4501.0593    20525.065    26482.985   -60511.228      15.2149      13.1765      28.7324    5760.2466 
   59500       59.487    228.40096    9.5359746   -488.16427    -478.6283   -4047.5409    23511.716    27055.569   -62709.908      15.2149      13.1765      28.7324    5760.2466 
   60000       59.987    236.39415    9.8696985   -488.48701   -478.61731   -2901.5403    23910.368    29478.334   -62093.323      15.2149      13.1765      28.7324    5760.2466 
   60500       60.487    219.82274    9.1778252   -487.78392    -478.6061   -3471.8969    26209.243    27553.416    -64178.35      15.2149      13.1765      28.7324    5760.2466 
   61000       60.987    226.86734    9.4719445   -488.06766   -478.59572   -3771.4686    23257.762    26001.913   -60574.081      15.2149      13.1765      28.7324    5760.2466 
   61500       61.487    238.01285    9.9372808   -488.52243   -478.58514   -2832.7316    26805.365     28379.25    -63682.81      15.2149      13.1765      28.7324    5760.2466 
   62000       61.987    229.21759    9.5700696   -488.14459   -478.57452   -3704.6748    24513.891    30053.822   -65681.737      15.2149      13.1765      28.7324    5760.2466 
   62500       62.487    237.42846     9.912882   -488.47685   -478.56397     -4606.91    20891.499    26911.305   -61623.534      15.2149      13.1765      28.7324    5760.2466 
   63000       62.987    231.00394    9.6446516   -488.19674   -478.55209   -3452.4528    23508.374    28921.052   -62786.784      15.2149      13.1765      28.7324    5760.2466 
   63500       63.487    223.43764    9.3287509   -487.87009   -478.54134   -3197.2208    28939.177    27663.699   -66194.539      15.2149      13.1765      28.7324    5760.2466 
   64000       63.987    237.42898    9.9129037   -488.44339   -478.53048   -4276.0979    25260.328    25200.311   -63288.932      15.2149      13.1765      28.7324    5760.2466 
   64500       64.487    221.88596    9.2639667   -487.78363   -478.51966   -3675.5102    23579.001    26443.742   -61049.274      15.2149      13.1765      28.7324    5760.2466 
   65000       64.987     227.5057    9.4985967    -488.0077    -478.5091   -3479.4413    23760.502    30289.668   -64488.493      15.2149      13.1765      28.7324    5760.2466 
   65500       65.487    227.82237     9.511818   -488.00995   -478.49813   -3502.0298    24983.059      29604.6   -65093.749      15.2149      13.1765      28.7324    5760.2466 
   66000       65.987    237.12568    9.9002404    -488.3882   -478.48796   -3857.4711    22554.296    28769.749   -62896.458      15.2149      13.1765      28.7324    5760.2466 
   66500       66.487    230.75062    9.6340755    -488.1112   -478.47713    -4613.794    23954.916    29369.946   -67166.244      15.2149      13.1765      28.7324    5760.2466 
   67000       66.987    226.01816    9.4364904   -487.90301   -478.46652    -3605.294    22378.684    30293.831   -63488.398      15.2149      13.1765      28.7324    5760.2466 
   67500       67.487    224.84927     9.387688   -487.84338   -478.45569   -4810.4842    23973.051    28874.803   -67279.307      15.2149      13.1765      28.7324    5760.2466 
   68000       67.987    241.51226    10.083385   -488.52945   -478.44607   -3077.7465    25565.784    27152.307    -61951.33      15.2149      13.1765      28.7324    5760.2466 
   68500       68.487     224.8405    9.3873217   -487.82199   -478.43467   -4275.3475    22505.473    30064.591   -65396.107      15.2149      13.1765      28.7324    5760.2466 
   69000       68.987    223.34756    9.3249898   -487.74964   -478.42465   -3472.7849    26717.836    28264.218   -65400.408      15.2149      13.1765      28.7324    5760.2466 
   69500       69.487    233.45101    9.7468194   -488.16072    -478.4139   -3603.4059    19620.714    26216.667   -56647.599      15.2149      13.1765      28.7324    5760.2466 
   70000       69.987    235.16947    9.8185669   -488.22231   -478.40374   -3110.1276    23741.165    31066.064   -64137.612      15.2149      13.1765      28.7324    5760.2466 
   70500       70.487    228.83421    9.5540631   -487.94645   -478.39239   -3779.3732    22223.014    27968.502   -61529.636      15.2149      13.1765      28.7324    5760.2466 
   71000       70.987    225.80248    9.4274856   -487.81015   -478.38267   -4328.6934    23713.218    26741.963   -63441.261      15.2149      13.1765      28.7324    5760.2466 
   71500       71.487    223.73809     9.341295    -487.7137    -478.3724   -3064.8586    23256.351    30543.196   -62994.123      15.2149      13.1765      28.7324    5760.2466 
   72000       71.987    239.74249    10.009495   -488.37058   -478.36108   -4909.1912     23575.69    25890.037   -64193.301      15.2149      13.1765      28.7324    5760.2466 
   72500       72.487     220.7869    9.2180796   -487.56739   -478.34931   -3740.2171    23692.745    28088.117   -63001.513      15.2149      13.1765      28.7324    5760.2466 
   73000       72.987    233.14061    9.7338597   -488.07318   -478.33932   -3723.3992    25619.665     26400.62   -63190.483      15.2149      13.1765      28.7324    5760.2466 
   73500       73.487     215.9541    9.0163053   -487.34477   -478.32846   -3151.3424    25576.241    28938.246   -63968.515      15.2149      13.1765      28.7324    5760.2466 
   74000       73.987    217.57565    9.0840067   -487.40211    -478.3181    -2416.419    24816.877    29055.685   -61121.819      15.2149      13.1765      28.7324    5760.2466 
   74500       74.487    224.57068    9.3760564   -487.68292   -478.30686   -3603.5624    26279.087    29567.556    -66657.33      15.2149      13.1765      28.7324    5760.2466 
   75000       74.987    230.09277    9.6066095   -487.90328   -478.29667   -2888.4812    23934.919    27302.986   -59903.348      15.2149      13.1765      28.7324    5760.2466 
   75500       75.487    236.41013    9.8703657   -488.15632   -478.28596   -4278.3145    23865.669    28935.444   -65636.057      15.2149      13.1765      28.7324    5760.2466 
   76000       75.987    227.07646    9.4806753   -487.75595   -478.27527   -3586.1548     21745.96    28613.821   -61118.246      15.2149      13.1765      28.7324    5760.2466 
   76500       76.487    238.23843     9.946699   -488.21082   -478.26412   -4199.5824     25389.25      27257.1   -65245.097      15.2149      13.1765      28.7324    5760.2466 
   77000       76.987    239.59678    10.003411   -488.25703   -478.25361   -3781.5296    24720.567    28202.059   -64267.215      15.2149      13.1765      28.7324    5760.2466 
   77500       77.487    238.53108    9.9589177   -488.20147   -478.24256   -4138.2817    21799.794    26091.869   -60306.508      15.2149      13.1765      28.7324    5760.2466 
   78000       77.987    219.88089     9.180253   -487.41106   -478.23081    -4409.358    22513.765    30428.882    -66170.72      15.2149      13.1765      28.7324    5760.2466 
   78500       78.487    230.49332    9.6233329   -487.84346   -478.22012   -3357.9915    25257.042    31320.116   -66651.132      15.2149      13.1765      28.7324    5760.2466 
   79000       78.987    238.11641    9.9416046   -488.15172   -478.21012   -4299.3229    22498.105    26922.261   -62318.335      15.2149      13.1765      28.7324    5760.2466 
   79500       79.487    223.87881    9.3471701    -487.5451   -478.19793   -3592.1961    21561.387     31636.99   -63974.965      15.2149      13.1765      28.7324    5760.2466 
   80000       79.987    235.33518    9.8254853   -488.01262   -478.18713   -4116.6352    23656.367    29336.791   -65343.064      15.2149      13.1765      28.7324    5760.2466 
   80500       80.487    231.98433    9.6855838   -487.86113   -478.17554   -3648.6164    23146.347    34000.973    -68093.17      15.2149      13.1765      28.7324    5760.2466 
   81000       80.987    234.10184     9.773992   -487.93835   -478.16436   -4737.7707    22245.686    28430.018   -64889.016      15.2149      13.1765      28.7324    5760.2466 
   81500       81.487    226.04043    9.4374201   -487.59075   -478.15333   -2953.8832    21191.097    28760.842   -58813.589      15.2149      13.1765      28.7324    5760.2466 
   82000       81.987    245.14958    10.235247   -488.37758   -478.14233   -4113.2037    24477.778    26938.273   -63755.662      15.2149      13.1765      28.7324    5760.2466 
   82500       82.487    225.62977    9.4202745    -487.5507   -478.13042   -4014.6063    21109.547    26726.397   -59879.763      15.2149      13.1765      28.7324    5760.2466 
   83000       82.987    245.11573    10.233833   -488.35315   -478.11932   -4011.6199    23920.229    25955.649   -61910.737      15.2149      13.1765      28.7324    5760.2466 
   83500       83.487    223.70961     9.340106   -487.44736   -478.10725   -3666.4803    24960.092     28019.85   -63979.383      15.2149      13.1765      28.7324    5760.2466 
   84000       83.987    229.44184    9.5794322   -487.67525   -478.09582   -2384.4696    26690.714    30946.107   -64790.229      15.2149      13.1765      28.7324    5760.2466 
   84500       84.487    243.11461    10.150285   -488.23542   -478.08514   -3772.8626    24474.336     24338.66   -60131.585      15.2149      13.1765      28.7324    5760.2466 
   85000       84.987    230.66411    9.6304635   -487.70333   -478.07286   -3243.7714    24612.461    26705.915   -61049.689      15.2149      13.1765      28.7324    5760.2466 
   85500       85.487    235.32478    9.8250514   -487.88641   -478.06136   -4529.3622    24328.894    27475.036   -65392.017      15.2149      13.1765      28.7324    5760.2466 
   86000       85.987    233.88021    9.7647391   -487.81453   -478.04979   -3634.5008     26220.04    26731.253   -63854.796      15.2149      13.1765      28.7324    5760.2466 
   86500       86.487    231.65707    9.6719207   -487.71014   -478.03822   -3751.3354    21936.157    31122.857    -64313.02      15.2149      13.1765      28.7324    5760.2466 
   87000       86.987    245.50752    10.250191   -488.27676   -478.02657   -2623.0753      22452.4    31468.757   -61790.383      15.2149      13.1765      28.7324    5760.2466 
   87500       87.487     226.1226    9.4408506    -487.4555   -478.01465   -3814.9606     20480.19    30730.784   -62655.855      15.2149      13.1765      28.7324    5760.2466 
   88000       87.987    229.71969    9.5910331   -487.59382   -478.00278   -3277.6211    23356.207    31027.693   -64216.763      15.2149      13.1765      28.7324    5760.2466 
   88500       88.487    239.76206    10.010312   -488.00108   -477.99077    -4659.063     23204.49    28252.878   -65434.557      15.2149      13.1765      28.7324    5760.2466 
   89000       88.987     243.0018    10.145575   -488.12468    -477.9791   -3450.4116    19761.796    28873.166   -58986.197      15.2149      13.1765      28.7324    5760.2466 
   89500       89.487    230.97422    9.6434109   -487.61029   -477.96688   -4306.3534    22664.212    29531.789   -65115.061      15.2149      13.1765      28.7324    5760.2466 
   90000       89.987    234.96021    9.8098302   -487.76479   -477.95496    -2839.985    25363.027    31589.686   -65472.668      15.2149      13.1765      28.7324    5760.2466 
   90500       90.487    226.72297     9.465917    -487.4083   -477.94239   -3129.5951    23847.354     30910.78   -64146.919      15.2149      13.1765      28.7324    5760.2466 
   91000       90.987    238.92789    9.9754846   -487.90619   -477.93071    -3398.751    24915.857    29613.635   -64725.745      15.2149      13.1765      28.7324    5760.2466 
   91500       91.487    228.99141    9.5606265    -487.4783   -477.91768   -3903.5392    21874.326    29760.286   -63345.229      15.2149      13.1765      28.7324    5760.2466 
   92000       91.987    238.63305    9.9631747   -487.86901   -477.90584   -3515.9994    26122.107    28314.923   -64985.027      15.2149      13.1765      28.7324    5760.2466 
   92500       92.487    239.97904    10.019372   -487.91318   -477.89381   -2682.6336    21463.634     33012.98   -62524.514      15.2149      13.1765      28.7324    5760.2466 
   93000       92.987    236.05388    9.8554919   -487.73629    -477.8808   -3951.1593    20710.728    31011.218   -63575.424      15.2149      13.1765      28.7324    5760.2466 
   93500       93.487    228.67992    9.5476213   -487.41547   -477.86785   -2841.4122    27448.593    31029.839   -67002.669      15.2149      13.1765      28.7324    5760.2466 
   94000       93.987    241.84516    10.097284     -487.953   -477.85572   -3626.5588    22553.833    31942.433   -65375.942      15.2149      13.1765      28.7324    5760.2466 
   94500       94.487    232.10626    9.6906748   -487.53407   -477.84339   -3021.2837    27296.223    30496.838   -66856.913      15.2149      13.1765      28.7324    5760.2466 
   95000       94.987    226.35403    9.4505134   -487.28082   -477.83031   -2148.3812    23110.098    27938.055   -57493.297      15.2149      13.1765      28.7324    5760.2466 
   95500       95.487    243.50303    10.166501   -487.98461   -477.81811   -3909.1138    23136.149    28720.853   -63584.344      15.2149      13.1765      28.7324    5760.2466 
   96000       95.987    244.07173    10.190245   -487.99595    -477.8057   -3060.0406    25016.941    27088.616   -61285.679      15.2149      13.1765      28.7324    5760.2466 
   96500       96.487    226.46564    9.4551729   -487.24674   -477.79157   -2873.6636    23252.527    29441.748   -61315.265      15.2149      13.1765      28.7324    5760.2466 
   97000       96.987    261.32776    10.910702   -488.69115   -477.78045   -3868.4787    18805.263    29189.877   -59600.576      15.2149      13.1765      28.7324    5760.2466 
   97500       97.487    223.41089     9.327634   -487.09341   -477.76577   -3986.6114    22987.279    29545.958   -64493.071      15.2149      13.1765      28.7324    5760.2466 
   98000       97.987    217.80924    9.0937593   -486.84752   -477.75376   -2155.1725    26266.542    31470.984   -64203.044      15.2149      13.1765      28.7324    5760.2466 
   98500       98.487    240.07285    10.023288   -487.76399    -477.7407   -3055.0368    23898.061     31141.18   -64204.352      15.2149      13.1765      28.7324    5760.2466 
   99000       98.987    240.11651    10.025111   -487.75256   -477.72744   -3943.1826    22216.048    27707.313   -61752.909      15.2149      13.1765      28.7324    5760.2466 
   99500       99.487    245.38767    10.245187   -487.95972   -477.71453   -3042.3103    25006.511    29460.831   -63594.273      15.2149      13.1765      28.7324    5760.2466 
  100000       99.987     219.2828    9.1552821   -486.85628     -477.701   -2934.6299    25478.609    28566.322   -62848.821      15.2149      13.1765      28.7324    5760.2466 
  100500      100.487    241.10897    10.066547   -487.75408   -477.68754    -4485.949    21303.192    28713.503   -63474.541      15.2149      13.1765      28.7324    5760.2466 
  101000      100.987    240.74034    10.051156   -487.72549   -477.67434   -4893.3805     22705.27    26889.177   -64274.589      15.2149      13.1765      28.7324    5760.2466 
  101500      101.487    233.05516     9.730292   -487.39126   -477.66097    -3084.521    22919.249    32451.995   -64624.807      15.2149      13.1765      28.7324    5760.2466 
  102000      101.987    244.89972    10.224815   -487.87288   -477.64806    -2584.571    23418.188    30501.513   -61673.414      15.2149      13.1765      28.7324    5760.2466 
  102500      102.487    249.23023    10.405618   -488.04068   -477.63506    -4431.415    21655.507    27063.885   -62013.637      15.2149      13.1765      28.7324    5760.2466 
  103000      102.987     244.4334    10.205346   -487.82626   -477.62092   -2428.5263    23743.903    29512.363   -60541.845      15.2149      13.1765      28.7324    5760.2466 
  103500      103.487    243.38542    10.161591     -487.768    -477.6064   -1999.4857    25073.669    27960.904    -59033.03      15.2149      13.1765      28.7324    5760.2466 
  104000      103.987    253.75576    10.594563   -488.18777   -477.59321   -3065.5721     22779.51    27258.637   -59234.863      15.2149      13.1765      28.7324    5760.2466 
  104500      104.487    249.79311    10.429119   -488.00912      -477.58   -2370.8249    24849.689    30160.843   -62123.007      15.2149      13.1765      28.7324    5760.2466 
  105000      104.987    246.49854    10.291567   -487.85796    -477.5664   -3134.3751    24453.586    28215.878   -62072.589      15.2149      13.1765      28.7324    5760.2466 
  105500      105.487    240.53565    10.042611   -487.59438   -477.55177   -3471.7175    24138.852    27264.336    -61818.34      15.2149      13.1765      28.7324    5760.2466 
  106000      105.987    254.18987    10.612688   -488.15073   -477.53805   -3055.0507    24232.346    30686.067   -64083.564      15.2149      13.1765      28.7324    5760.2466 
  106500      106.487    251.28512    10.491412   -488.01527   -477.52386   -2629.7167    24404.068    26831.998   -59125.216      15.2149      13.1765      28.7324    5760.2466 
  107000      106.987    225.59537    9.4188385   -486.92907   -477.51023   -3833.3895    21155.786    32125.583   -64781.538      15.2149      13.1765      28.7324    5760.2466 
  107500      107.487    248.48273    10.374409   -487.87146   -477.49705   -3367.3035    21541.692    29562.915   -61206.517      15.2149      13.1765      28.7324    5760.2466 
  108000      107.987    263.87699    11.017135   -488.49966   -477.48253    -2670.254     24333.98    28388.578   -60733.319      15.2149      13.1765      28.7324    5760.2466 
  108500      108.487    240.22807    10.029769   -487.49781   -477.46804    -2386.157    24880.522    33315.436    -65354.43      15.2149      13.1765      28.7324    5760.2466 
  109000      108.987     242.5651    10.127342   -487.58147   -477.45413   -3438.9363    24219.671    30433.859   -64970.339      15.2149      13.1765      28.7324    5760.2466 
  109500      109.487    224.13791    9.3579881   -486.79696   -477.43898   -2436.9684    20929.017    29212.852   -57452.774      15.2149      13.1765      28.7324    5760.2466 
  110000      109.987    256.25039    10.698717   -488.12476   -477.42605   -3720.5513    23542.499    30277.122   -64981.275      15.2149      13.1765      28.7324    5760.2466 
  110500      110.487    249.96612    10.436342   -487.84706   -477.41072   -2831.9584    24489.818    29317.576   -62303.269      15.2149      13.1765      28.7324    5760.2466 
  111000      110.987    260.56112    10.878694   -488.27566   -477.39696   -3496.6205    23388.345    27429.018   -61307.224      15.2149      13.1765      28.7324    5760.2466 
  111500      111.487    248.21616     10.36328     -487.746   -477.38272   -2258.3177    24675.191    30081.356     -61531.5      15.2149      13.1765      28.7324    5760.2466 
  112000      111.987    233.30538    9.7407393   -487.10754    -477.3668   -3646.0595    22400.786    29585.367   -62924.331      15.2149      13.1765      28.7324    5760.2466 
  112500      112.487    232.65393    9.7135405   -487.06663   -477.35309   -2777.3104    23790.739    29642.477   -61765.147      15.2149      13.1765      28.7324    5760.2466 
  113000      112.987    234.24649    9.7800317   -487.11899   -477.33896   -2419.2527    23179.097    29176.519   -59613.374      15.2149      13.1765      28.7324    5760.2466 
  113500      113.487    234.90207    9.8074028   -487.13118   -477.32378   -2892.6605    25311.617    29915.174   -63904.773      15.2149      13.1765      28.7324    5760.2466 
  114000      113.987    237.27046    9.9062853   -487.21577   -477.30948   -3133.2337    23532.366    28729.685   -61661.752      15.2149      13.1765      28.7324    5760.2466 
  114500      114.487    252.71036    10.550917   -487.84583   -477.29491   -2346.9201    27151.195    28442.194   -62634.149      15.2149      13.1765      28.7324    5760.2466 
  115000      114.987    244.55223    10.210307   -487.49008   -477.27977   -3922.2938    22378.544    30099.114   -64244.539      15.2149      13.1765      28.7324    5760.2466 
  115500      115.487     247.9567    10.352447   -487.61825    -477.2658   -3215.2168    26598.923    27541.822   -63786.396      15.2149      13.1765      28.7324    5760.2466 
  116000      115.987    248.32743    10.367925   -487.61918   -477.25125   -3641.1297    20926.376    33746.678   -65596.443      15.2149      13.1765      28.7324    5760.2466 
  116500      116.487    241.69542    10.091032   -487.32711   -477.23608   -3423.9254    24199.009    29795.113   -64265.899      15.2149      13.1765      28.7324    5760.2466 
  117000      116.987    253.53904    10.585515   -487.80735   -477.22184   -4812.7728    21472.219    28010.242    -63920.78      15.2149      13.1765      28.7324    5760.2466 
  117500      117.487    241.32734    10.075664   -487.28206   -477.20639   -2624.6597    25314.009    27672.918   -60860.905      15.2149      13.1765      28.7324    5760.2466 
  118000      117.987    257.21222    10.738874   -487.93143   -477.19256   -2643.8419    27948.765    28666.811   -64547.103      15.2149      13.1765      28.7324    5760.2466 
  118500      118.487     239.8498    10.013975   -487.19087    -477.1769    -2343.755    26797.064    25292.179   -59120.508      15.2149      13.1765      28.7324    5760.2466 
  119000      118.987    243.17148    10.152659    -487.3141   -477.16144   -3184.5547    25560.869    26485.071   -61599.605      15.2149      13.1765      28.7324    5760.2466 
  119500      119.487    247.15915    10.319148   -487.46667   -477.14752   -4048.0165    25131.204    27146.691   -64421.945      15.2149      13.1765      28.7324    5760.2466 
  120000      119.987    257.18375    10.737686   -487.87027   -477.13259    -1578.381    24457.799     33425.63   -62618.571      15.2149      13.1765      28.7324    5760.2466 
  120500      120.487    236.67691    9.8815042   -486.99881    -477.1173   -2832.7326    26616.448    27941.572   -63056.218      15.2149      13.1765      28.7324    5760.2466 
  121000      120.987    239.79916    10.011861   -487.11383   -477.10197   -2657.6419    27173.462    30184.646   -65331.033      15.2149      13.1765      28.7324    5760.2466 
  121500      121.487    256.96837    10.728693   -487.81649    -477.0878   -2670.7485    23760.975    30824.911   -62598.132      15.2149      13.1765      28.7324    5760.2466 
  122000      121.987    243.87989    10.182236   -487.25458   -477.07234   -3260.4676     25831.78    30151.562   -65764.745      15.2149      13.1765      28.7324    5760.2466 
  122500      122.487    239.20043    9.9868635   -487.04418   -477.05731   -3116.7912    21865.323    28992.234   -60207.931      15.2149      13.1765      28.7324    5760.2466 
  123000      122.987    243.96857    10.185938   -487.22847   -477.04253   -4360.6878    20965.052    26904.065    -60951.18      15.2149      13.1765      28.7324    5760.2466 
  123500      123.487    249.90307     10.43371   -487.46147   -477.02776    -2274.062     25089.88    29571.765   -61483.831      15.2149      13.1765      28.7324    5760.2466 
  124000      123.987    244.22735    10.196743    -487.2081   -477.01136    -2941.273    25124.351    31637.583   -65585.752      15.2149      13.1765      28.7324    5760.2466 
  124500      124.487    257.27808    10.741624   -487.73767   -476.99605   -2305.5147    22481.393    32580.395   -61978.332      15.2149      13.1765      28.7324    5760.2466 
  125000      124.987    253.99345    10.604487   -487.58592   -476.98143   -2306.9143     24832.07    26106.943   -57859.756      15.2149      13.1765      28.7324    5760.2466 
  125500      125.487    246.68168    10.299213   -487.26453   -476.96532   -2950.4447     23798.88    27282.009   -59932.223      15.2149      13.1765      28.7324    5760.2466 
  126000      125.987    240.34346    10.034586   -486.98421   -476.94962   -3865.2042    24841.218    26482.519   -62919.349      15.2149      13.1765      28.7324    5760.2466 
  126500      126.487    254.91485    10.642957   -487.57734   -476.93438   -3307.4466    24864.899    23240.969   -58028.208      15.2149      13.1765      28.7324    5760.2466 
  127000      126.987    241.68562    10.090623   -487.01042    -476.9198   -1703.1168    24802.444    30013.411   -59925.205      15.2149      13.1765      28.7324    5760.2466 
  127500      127.487    252.24932    10.531668   -487.43571   -476.90404    -3297.785    26018.815    27997.496   -63909.666      15.2149      13.1765      28.7324    5760.2466 
  128000      127.987    252.65949    10.548793   -487.43753   -476.88874   -3187.0516    22289.845    27522.099   -59373.099      15.2149      13.1765      28.7324    5760.2466 
  128500      128.487    236.83805    9.8882318   -486.76107   -476.87284    -1952.919    23844.628    32263.249   -61966.634      15.2149      13.1765      28.7324    5760.2466 
  129000      128.987    245.84297    10.264197   -487.12182   -476.85763   -3472.1559    21703.061    29797.661    -61917.19      15.2149      13.1765      28.7324    5760.2466 
  129500      129.487    258.71593    10.801656   -487.64449   -476.84283   -4714.9893    23222.534    29482.618    -66850.12      15.2149      13.1765      28.7324    5760.2466 
  130000      129.987     243.2698    10.156764   -486.98382   -476.82706   -2172.1954    26216.345    26132.787   -58865.718      15.2149      13.1765      28.7324    5760.2466 
  130500      130.487    256.73479    10.718941   -487.53087   -476.81193   -2274.6692    23702.512    27808.264   -58334.784      15.2149      13.1765      28.7324    5760.2466 
  131000      130.987    248.09776    10.358336   -487.15479   -476.79646   -2872.8526    21443.413    28177.603   -58239.574      15.2149      13.1765      28.7324    5760.2466 
  131500      131.487    261.89779    10.934502   -487.71574   -476.78124   -3315.3124    23417.562    30967.403   -64330.902      15.2149      13.1765      28.7324    5760.2466 
  132000      131.987    259.47995    10.833554   -487.59908   -476.76552   -2595.7939    23103.674    29411.128   -60302.184      15.2149      13.1765      28.7324    5760.2466 
  132500      132.487    243.28025      10.1572   -486.90671   -476.74951   -3092.4734    23981.735    28341.685    -61600.84      15.2149      13.1765      28.7324    5760.2466 
  133000      132.987    233.79214    9.7610619   -486.49474   -476.73368   -1483.9844    29956.149    30759.668   -65167.771      15.2149      13.1765      28.7324    5760.2466 
  133500      133.487    256.74568    10.719396   -487.43806   -476.71867    -3719.286    24330.678    27525.221   -63013.756      15.2149      13.1765      28.7324    5760.2466 
  134000      133.987    252.44464    10.539823   -487.24268   -476.70286   -2739.7443    23781.939    30066.007   -62067.179      15.2149      13.1765      28.7324    5760.2466 
  134500      134.487    261.44439    10.915572    -487.6026   -476.68703   -3293.3611    22403.947    29786.471   -62070.502      15.2149      13.1765      28.7324    5760.2466 
  135000      134.987    271.46192    11.333814   -488.00615   -476.67234   -3398.1494    21197.604     28844.01   -60236.061      15.2149      13.1765      28.7324    5760.2466 
  135500      135.487    266.49001    11.126232   -487.78318   -476.65695   -3261.6908    25872.004    26440.734   -62097.811      15.2149      13.1765      28.7324    5760.2466 
  136000      135.987    254.68156    10.633216   -487.27427   -476.64106   -3166.3888    24691.756    29867.346   -64058.268      15.2149      13.1765      28.7324    5760.2466 
  136500      136.487    257.29981    10.742531   -487.36759   -476.62506   -2599.8067    24906.263    31583.865   -64289.549      15.2149      13.1765      28.7324    5760.2466 
  137000      136.987    249.72642    10.426335   -487.03615   -476.60981   -3685.5376    23320.762    29336.814   -63714.189      15.2149      13.1765      28.7324    5760.2466 
  137500      137.487    263.22976    10.990113   -487.58331    -476.5932   -2335.1568    23958.992    29119.827    -60084.29      15.2149      13.1765      28.7324    5760.2466 
  138000      137.987    260.93044    10.894114   -487.47209   -476.57798   -3765.0436    25664.482    28765.383   -65724.996      15.2149      13.1765      28.7324    5760.2466 
  138500      138.487     245.5501    10.251969   -486.81299   -476.56102   -2863.7046    23986.012    28832.683   -61409.808      15.2149      13.1765      28.7324    5760.2466 
  139000      138.987    256.81837     10.72243   -487.26868   -476.54625   -2812.3565    25819.773     28199.24   -62456.083      15.2149      13.1765      28.7324    5760.2466 
  139500      139.487    254.03188    10.606092    -487.1359   -476.52981    -3739.083    23295.236    28885.004   -63397.488      15.2149      13.1765      28.7324    5760.2466 
  140000      139.987    259.91346    10.851654   -487.36623   -476.51458   -3269.8584    21802.681    28500.225   -60112.481      15.2149      13.1765      28.7324    5760.2466 
  140500      140.487    256.79112    10.721293   -487.21953   -476.49824   -2808.9895    25322.456    27082.864   -60832.289      15.2149      13.1765      28.7324    5760.2466 
  141000      140.987    252.71577    10.551143   -487.03457   -476.48343   -3928.2517    21832.446     27482.89   -61100.092      15.2149      13.1765      28.7324    5760.2466 
  141500      141.487    256.11114    10.692903   -487.15935   -476.46644   -3250.8756    22873.522    28372.653   -60998.801      15.2149      13.1765      28.7324    5760.2466 
  142000      141.987    254.48693    10.625091   -487.07628   -476.45119   -1946.6401    25636.265    26548.493   -58024.679      15.2149      13.1765      28.7324    5760.2466 
  142500      142.487    256.11132    10.692911   -487.12881    -476.4359    -2501.561     23961.64    29481.613   -60947.936      15.2149      13.1765      28.7324    5760.2466 
  143000      142.987     257.8282    10.764592   -487.18411   -476.41952   -4308.1007    20584.497    32466.918   -65975.716      15.2149      13.1765      28.7324    5760.2466 
  143500      143.487    252.16799    10.528273   -486.93148   -476.40321   -2223.7296    23786.662    29777.698   -60235.549      15.2149      13.1765      28.7324    5760.2466 
  144000      143.987     272.3322    11.370149   -487.75823   -476.38808   -3642.2559    22997.499    27867.434     -61791.7      15.2149      13.1765      28.7324    5760.2466 
  144500      144.487    273.72103    11.428134   -487.80023   -476.37209   -4275.7125    22811.263     28473.34   -64111.741      15.2149      13.1765      28.7324    5760.2466 
  145000      144.987    246.19013    10.278691    -486.6347   -476.35601   -3555.1024    24697.511    28896.673   -64259.492      15.2149      13.1765      28.7324    5760.2466 
  145500      145.487    264.25194     11.03279   -487.37361   -476.34082   -2120.2202    22067.304    30829.599   -59257.564      15.2149      13.1765      28.7324    5760.2466 
  146000      145.987    268.46304    11.208608   -487.53238   -476.32377   -2561.0679    23095.948    28998.156   -59777.307      15.2149      13.1765      28.7324    5760.2466 
  146500      146.487    238.28915    9.9488165   -486.25647   -476.30766   -3163.4194    27236.074    30668.051   -67394.383      15.2149      13.1765      28.7324    5760.2466 
  147000      146.987     242.3941    10.120202   -486.41196   -476.29175   -2499.5106    27704.408    31413.762   -66616.701      15.2149      13.1765      28.7324    5760.2466 
  147500      147.487    264.16302    11.029077   -487.30587    -476.2768   -2441.3817    25339.782    29895.914   -62559.842      15.2149      13.1765      28.7324    5760.2466 
  148000      147.987    270.00199     11.27286   -487.53289   -476.26003   -2162.2096      24139.5    30623.911   -61250.039      15.2149      13.1765      28.7324    5760.2466 
  148500      148.487    259.74357    10.844561   -487.08765   -476.24309   -2926.5147    23757.653    26512.259   -59049.455      15.2149      13.1765      28.7324    5760.2466 
  149000      148.987    258.57804    10.795899   -487.02305   -476.22715   -3317.8186    22405.121    31468.263    -63826.84      15.2149      13.1765      28.7324    5760.2466 
  149500      149.487    238.35276    9.9514724   -486.16187    -476.2104   -4197.5011    22077.927    30552.303   -65222.732      15.2149      13.1765      28.7324    5760.2466 
  150000      149.987    268.74051    11.220192   -487.41588   -476.19568   -3526.0987    24621.033    28350.102   -63549.431      15.2149      13.1765      28.7324    5760.2466 
  150500      150.487    249.41204    10.413209   -486.59201    -476.1788   -3380.4152    24197.001     27640.35   -61978.597      15.2149      13.1765      28.7324    5760.2466 
  151000      150.987    265.06349    11.066673   -487.23024   -476.16357   -4445.0628     23701.04    28947.944   -65984.172      15.2149      13.1765      28.7324    5760.2466 
  151500      151.487    255.25611    10.657205    -486.8044   -476.14719   -1926.9943    21966.544    35366.949   -63114.476      15.2149      13.1765      28.7324    5760.2466 
  152000      151.987    251.55268    10.502583   -486.63377   -476.13119   -3327.8206    24730.532    29058.703   -63772.697      15.2149      13.1765      28.7324    5760.2466 
  152500      152.487    257.04244    10.731786    -486.8468   -476.11502   -3494.5218    27321.136    27346.217   -65150.919      15.2149      13.1765      28.7324    5760.2466 
  153000      152.987    265.84637    11.099359   -487.19824   -476.09888   -2528.8263    26046.988     28461.39   -62094.857      15.2149      13.1765      28.7324    5760.2466 
  153500      153.487     263.8688    11.016793   -487.09945   -476.08266   -1569.7779    24540.657    32722.339    -61972.33      15.2149      13.1765      28.7324    5760.2466 
  154000      153.987     268.9995    11.231005   -487.29764   -476.06664   -2814.8398    26965.022    28184.875   -63594.416      15.2149      13.1765      28.7324    5760.2466 
  154500      154.487    260.67079    10.883273   -486.93387    -476.0506   -3507.4076    24912.541    30166.437   -65601.201      15.2149      13.1765      28.7324    5760.2466 
  155000      154.987    271.03763    11.316099   -487.35053   -476.03443   -2532.0877    26776.767    26424.515   -60797.545      15.2149      13.1765      28.7324    5760.2466 
  155500      155.487    263.73534    11.011221   -487.02956   -476.01834      -4430.8    24279.267    26576.516   -64148.183      15.2149      13.1765      28.7324    5760.2466 
  156000      155.987    261.47369    10.916795   -486.91878   -476.00198   -1990.2172    26179.998     30769.69   -62920.339      15.2149      13.1765      28.7324    5760.2466 
  156500      156.487    249.58576    10.420462   -486.40591   -475.98545   -2226.0199    26332.421    31636.767   -64647.247      15.2149      13.1765      28.7324    5760.2466 
  157000      156.987    260.06964    10.858175   -486.82731   -475.96913   -2257.4844    25096.336    28600.615   -60469.404      15.2149      13.1765      28.7324    5760.2466 
  157500      157.487     261.6408    10.923772   -486.87594   -475.95217   -2165.8567    25758.524    29818.314   -62074.408      15.2149      13.1765      28.7324    5760.2466 
  158000      157.987    266.45366    11.124714    -487.0613   -475.93658   -4633.3647     22000.57    29874.067   -65774.731      15.2149      13.1765      28.7324    5760.2466 
  158500      158.487    264.34165    11.036535   -486.95664    -475.9201   -2473.5143     28884.91    30606.247     -66911.7      15.2149      13.1765      28.7324    5760.2466 
  159000      158.987    248.83597    10.389157    -486.2924   -475.90325   -2071.7503    23564.207    34469.189   -64248.646      15.2149      13.1765      28.7324    5760.2466 
  159500      159.487    267.00288    11.147644    -487.0344   -475.88676   -2372.6565    25539.169    25670.142    -58327.28      15.2149      13.1765      28.7324    5760.2466 
  160000      159.987    267.79388     11.18067    -487.0506   -475.86993   -2925.7046    23759.514     31843.12   -64379.748      15.2149      13.1765      28.7324    5760.2466 
  160500      160.487    254.49641    10.625487   -486.47853   -475.85304   -3156.6233    23460.079    30002.549   -62932.498      15.2149      13.1765      28.7324    5760.2466 
  161000      160.987    259.74377    10.844569   -486.68167    -475.8371    -3520.607    20343.607    31977.616   -62883.043      15.2149      13.1765      28.7324    5760.2466 
  161500      161.487    261.67833    10.925339     -486.746   -475.82066   -2344.1719    25174.014    29969.635   -62176.164      15.2149      13.1765      28.7324    5760.2466 
  162000      161.987    255.11396     10.65127   -486.45504   -475.80377   -2878.8985     28007.69    29581.292   -66225.678      15.2149      13.1765      28.7324    5760.2466 
  162500      162.487    277.57642      11.5891    -487.3778    -475.7887   -3726.5277    21706.998     31079.06   -63965.641      15.2149      13.1765      28.7324    5760.2466 
  163000      162.987    271.23741    11.324441   -487.09574    -475.7713   -1810.2773    22577.777    29854.685   -57863.294      15.2149      13.1765      28.7324    5760.2466 
  163500      163.487    255.12288    10.651642   -486.40647   -475.75483   -2282.0299    22131.143      31917.2   -60894.432      15.2149      13.1765      28.7324    5760.2466 
  164000      163.987    262.76947    10.970895   -486.70935   -475.73846    -2266.081    24747.921    31403.518   -62949.682      15.2149      13.1765      28.7324    5760.2466 
  164500      164.487    258.66392    10.799484   -486.52115   -475.72167   -2913.2469    23934.673    26892.813   -59567.227      15.2149      13.1765      28.7324    5760.2466 
  165000      164.987    256.10828    10.692784   -486.39791   -475.70512     -3823.89    22168.604     30387.81   -64028.084      15.2149      13.1765      28.7324    5760.2466 
  165500      165.487    267.57265    11.171433   -486.86099   -475.68956   -2864.5301    23977.359    28752.607   -61323.557      15.2149      13.1765      28.7324    5760.2466 
  166000      165.987     264.3405    11.036488    -486.7084   -475.67191   -2918.8058     26030.15    31192.416   -65978.983      15.2149      13.1765      28.7324    5760.2466 
  166500      166.487    252.39179    10.537616   -486.19333   -475.65572   -3003.6079    23395.606    27184.863   -59591.294      15.2149      13.1765      28.7324    5760.2466 
  167000      166.987    260.03339    10.856661   -486.49602   -475.63936    -1599.053      25219.6    31955.236   -61971.996      15.2149      13.1765      28.7324    5760.2466 
  167500      167.487    264.37681    11.038003   -486.65981    -475.6218   -3250.9863    27039.262    29342.397   -66134.618      15.2149      13.1765      28.7324    5760.2466 
  168000      167.987    252.12589    10.526515   -486.13237   -475.60586   -2564.5545    24304.471    28127.211   -60125.345      15.2149      13.1765      28.7324    5760.2466 
  168500      168.487    264.96943    11.062746   -486.65202   -475.58927   -3789.9827     24444.59    26949.373    -62763.91      15.2149      13.1765      28.7324    5760.2466 
  169000      168.987    267.58301    11.171865   -486.74513   -475.57326   -1924.6841    23824.748    30437.869    -60036.67      15.2149      13.1765      28.7324    5760.2466 
  169500      169.487     261.3942    10.913476   -486.46842   -475.55495   -4525.4615    21554.458    28355.595   -63486.437      15.2149      13.1765      28.7324    5760.2466 
  170000      169.987    275.82814    11.516108   -487.05534   -475.53924   -3320.6321    22656.967    29037.209   -61656.072      15.2149      13.1765      28.7324    5760.2466 
  170500      170.487    283.09564    11.819534   -487.34271   -475.52318   -2783.1941     23408.53    28362.458    -60120.57      15.2149      13.1765      28.7324    5760.2466 
  171000      170.987    266.30422    11.118475   -486.62442   -475.50594   -2594.4435     26041.42    29182.123   -63006.873      15.2149      13.1765      28.7324    5760.2466 
  171500      171.487    260.63774    10.881893   -486.37027   -475.48837   -3316.5478    24205.299     28951.09   -63106.033      15.2149      13.1765      28.7324    5760.2466 
  172000      171.987    262.36568    10.954036    -486.4247   -475.47066   -3221.1491    24639.364    28190.262   -62493.074      15.2149      13.1765      28.7324    5760.2466 
  172500      172.487    265.91737    11.102323   -486.55683   -475.45451   -3166.0111    25267.855    29095.679   -63861.567      15.2149      13.1765      28.7324    5760.2466 
  173000      172.987    269.12346    11.236181   -486.67278    -475.4366   -3294.2704    22767.081    30513.046   -63162.938      15.2149      13.1765      28.7324    5760.2466 
  173500      173.487    273.33992    11.412222   -486.83312    -475.4209   -3084.1971    26761.533     26383.85   -62397.975      15.2149      13.1765      28.7324    5760.2466 
  174000      173.987    269.28821    11.243059   -486.64681   -475.40375   -3300.2559    22416.916    30709.791   -63027.475      15.2149      13.1765      28.7324    5760.2466 
  174500      174.487    259.68111    10.841953   -486.22813   -475.38618   -3389.4412    24785.503    31920.754   -66874.581      15.2149      13.1765      28.7324    5760.2466 
  175000      174.987    281.85081    11.767561   -487.13746    -475.3699   -3897.4827    21119.637    28407.694    -61219.78      15.2149      13.1765      28.7324    5760.2466 
  175500      175.487    276.53879    11.545779   -486.89922   -475.35344   -1140.8236     24195.41    30901.723   -58519.605      15.2149      13.1765      28.7324    5760.2466 
  176000      175.987    260.05877    10.857721   -486.19335   -475.33563   -3014.7467     25347.48    30798.137   -65189.858      15.2149      13.1765      28.7324    5760.2466 
  176500      176.487    267.41779    11.164967   -486.48364   -475.31868   -2369.6458    23658.544    32443.007   -63210.488      15.2149      13.1765      28.7324    5760.2466 
  177000      176.987    276.19632     11.53148   -486.83379   -475.30231   -2799.9245    23031.296    30821.378   -62252.448      15.2149      13.1765      28.7324    5760.2466 
  177500      177.487    273.68076    11.426453   -486.71206    -475.2856   -2506.2716    22965.682    34013.802   -64498.299      15.2149      13.1765      28.7324    5760.2466 
  178000      177.987    271.08778    11.318193   -486.58624   -475.26804   -1504.2843    23711.682    30148.981   -58373.517      15.2149      13.1765      28.7324    5760.2466 
  178500      178.487    264.19598    11.030453   -486.28146   -475.25101   -2982.8461    24103.669    32033.752   -65085.959      15.2149      13.1765      28.7324    5760.2466 
  179000      178.987     263.3587    10.995496   -486.22978   -475.23429    -2077.853    22602.096    29870.767   -58706.422      15.2149      13.1765      28.7324    5760.2466 
  179500      179.487    268.16711    11.196252   -486.41349   -475.21724   -2345.3954    27466.679    27718.904    -62221.77      15.2149      13.1765      28.7324    5760.2466 
  180000      179.987    261.47693     10.91693   -486.11703    -475.2001   -2669.0437    25306.815    29145.291   -62459.237      15.2149      13.1765      28.7324    5760.2466 
  180500      180.487    265.37222    11.079563   -486.26301   -475.18345   -1099.2784    27286.531    29091.115   -59675.482      15.2149      13.1765      28.7324    5760.2466 
  181000      180.987    261.51375    10.918467   -486.08489   -475.16643    -3679.465    25054.772    29005.529   -65098.696      15.2149      13.1765      28.7324    5760.2466 
  181500      181.487     273.1529    11.404414   -486.55405   -475.14963    -2356.267    30559.578    27524.251    -65152.63      15.2149      13.1765      28.7324    5760.2466 
  182000      181.987    266.59015    11.130413   -486.26207   -475.13165   -2420.7251    23919.287    30005.805   -61187.267      15.2149      13.1765      28.7324    5760.2466 
  182500      182.487    270.29022    11.284894   -486.39978   -475.11488     -3120.63    25573.963    32303.542   -67239.395      15.2149      13.1765      28.7324    5760.2466 
  183000      182.987    272.94051    11.395546   -486.49239   -475.09685   -2669.7185     24416.94    30814.775    -63240.87      15.2149      13.1765      28.7324    5760.2466 
  183500      183.487    268.87578     11.22584   -486.30587   -475.08003   -2419.9179    21446.026    30987.827   -59693.606      15.2149      13.1765      28.7324    5760.2466 
  184000      183.987    282.06685    11.776581   -486.84007   -475.06349   -2669.1849    26729.035    27241.986   -61978.575      15.2149      13.1765      28.7324    5760.2466 
  184500      184.487    256.66317    10.715951   -485.76127   -475.04532    -1794.611    24311.245    30039.657   -59734.735      15.2149      13.1765      28.7324    5760.2466 
  185000      184.987    267.00039     11.14754   -486.17627   -475.02872   -2323.0393     24735.27    26409.199   -58113.588      15.2149      13.1765      28.7324    5760.2466 
  185500      185.487    283.00103    11.815584   -486.82891   -475.01332    -2072.829    26229.654    29840.091   -62288.232      15.2149      13.1765      28.7324    5760.2466 
  186000      185.987    277.18755    11.572865   -486.56759   -474.99473   -2044.6644    25004.436    29161.729   -60300.158      15.2149      13.1765      28.7324    5760.2466 
  186500      186.487     266.7707    11.137951   -486.11568   -474.97773   -1975.9514    23555.373    31712.542   -61195.769      15.2149      13.1765      28.7324    5760.2466 
  187000      186.987    261.52462    10.918922   -485.87929   -474.96037   -2191.9899    20102.097     35323.55   -62001.616      15.2149      13.1765      28.7324    5760.2466 
  187500      187.487    279.63036    11.674855   -486.61805   -474.94319   -3024.2016    23401.335     31898.62    -64372.56      15.2149      13.1765      28.7324    5760.2466 
  188000      187.987    267.43915    11.165859   -486.09157   -474.92571   -2377.3926    27206.355     30810.36   -65148.893      15.2149      13.1765      28.7324    5760.2466 
  188500      188.487     269.5708    11.254858    -486.1639   -474.90905     -2566.07    26330.242    28804.825   -62833.277      15.2149      13.1765      28.7324    5760.2466 
  189000      188.987    280.50466    11.711357   -486.60289   -474.89153   -3807.4173    20827.188    30599.272   -62848.712      15.2149      13.1765      28.7324    5760.2466 
  189500      189.487    261.40741    10.914028   -485.78811   -474.87409    -2733.481    26454.394    27528.354   -62183.191      15.2149      13.1765      28.7324    5760.2466 
  190000      189.987    276.94982     11.56294   -486.42032   -474.85738   -2900.0133    22871.379    30208.239   -61779.658      15.2149      13.1765      28.7324    5760.2466 
  190500      190.487    267.84046    11.182614   -486.02202   -474.83941     -3074.86    26191.421    29690.294   -65106.294      15.2149      13.1765      28.7324    5760.2466 
  191000      190.987    275.82059    11.515793   -486.33751   -474.82172   -2361.0841    26651.186     28246.62   -61981.059      15.2149      13.1765      28.7324    5760.2466 
  191500      191.487    296.40331    12.375142   -487.17942   -474.80428   -3055.3925    24227.009    31352.545   -64745.731      15.2149      13.1765      28.7324    5760.2466 
  192000      191.987    275.31275     11.49459   -486.28173   -474.78714   -2458.8236    24315.581    30642.024   -62334.075      15.2149      13.1765      28.7324    5760.2466 
  192500      192.487    272.43585    11.374476   -486.14493   -474.77045   -2646.6752    24851.198    31068.551   -63859.774      15.2149      13.1765      28.7324    5760.2466 
  193000      192.987    269.00526    11.231246   -485.98371   -474.75246   -3724.0575    24645.787    33275.545   -69093.505      15.2149      13.1765      28.7324    5760.2466 
  193500      193.487     283.0155    11.816188   -486.55165   -474.73546    -2483.907    22772.141    33437.038     -63660.9      15.2149      13.1765      28.7324    5760.2466 
  194000      193.987    278.73525    11.637483   -486.35561   -474.71812   -2001.1777    26634.533    32693.011   -65331.077      15.2149      13.1765      28.7324    5760.2466 
  194500      194.487    268.72622    11.219595   -485.92086   -474.70127   -2163.5322    25397.082    35006.846   -66894.524      15.2149      13.1765      28.7324    5760.2466 
  195000      194.987    270.76322    11.304642   -485.98763   -474.68299   -3432.6795    24239.739    30291.108   -64828.885      15.2149      13.1765      28.7324    5760.2466 
  195500      195.487    267.18664    11.155317   -485.82054   -474.66522   -2746.9318    22540.415     32191.11    -62972.32      15.2149      13.1765      28.7324    5760.2466 
  196000      195.987    290.17495    12.115102    -486.7644    -474.6493    -2539.071    25184.601     31855.78   -64657.594      15.2149      13.1765      28.7324    5760.2466 
  196500      196.487    291.76429    12.181459   -486.81254   -474.63108   -1303.0156    28836.744     32147.74   -64893.531      15.2149      13.1765      28.7324    5760.2466 
  197000      196.987    276.62717    11.549468   -486.16198   -474.61252   -2579.5295    22113.129    30756.174   -60607.892      15.2149      13.1765      28.7324    5760.2466 
  197500      197.487      277.291    11.577184   -486.17183   -474.59464   -1804.8367    24437.934    30545.807    -60398.25      15.2149      13.1765      28.7324    5760.2466 
  198000      197.987    276.56488    11.546868   -486.12497    -474.5781   -2271.2442    26127.753    30195.891   -63137.377      15.2149      13.1765      28.7324    5760.2466 
  198500      198.487    281.06499    11.734752   -486.29474   -474.55999   -1680.6625    25712.029    31594.305   -62348.322      15.2149      13.1765      28.7324    5760.2466 
  199000      198.987    280.83508    11.725153   -486.26744   -474.54229   -1867.6081    26422.842    30988.261   -63013.928      15.2149      13.1765      28.7324    5760.2466 
  199500      199.487    281.03826    11.733636    -486.2582   -474.52456   -1652.3817    25020.917    32461.226   -62439.288      15.2149      13.1765      28.7324    5760.2466 
  200000      199.987    279.64023    11.675267   -486.18204   -474.50677   -2100.6772    27078.733    28899.715    -62280.48      15.2149      13.1765      28.7324    5760.2466 
  200500      200.487    290.12803    12.113143   -486.60236   -474.48922   -2222.5136     24758.55    27672.582   -59098.673      15.2149      13.1765      28.7324    5760.2466 
  201000      200.987    273.21198    11.406881   -485.87693   -474.47005   -2905.1196    26667.817    25622.592   -61005.768      15.2149      13.1765      28.7324    5760.2466 
  201500      201.487    274.38885    11.456016   -485.90919   -474.45317   -2167.8546    26669.354    29005.631   -62178.549      15.2149      13.1765      28.7324    5760.2466 
  202000      201.987    273.36414    11.413233    -485.8484   -474.43517   -2365.1466    23283.453    32898.726   -63277.619      15.2149      13.1765      28.7324    5760.2466 
  202500      202.487    291.89114    12.186755   -486.60497   -474.41821   -1418.2623    25893.278    28936.587   -59084.652      15.2149      13.1765      28.7324    5760.2466 
  203000      202.987    272.53213    11.378496   -485.77916   -474.40066   -2798.5038    25616.351    27300.002   -61311.864      15.2149      13.1765      28.7324    5760.2466 
  203500      203.487    285.34777    11.913562    -486.2969   -474.38334   -2139.9223    25614.625    29891.639   -61926.031      15.2149      13.1765      28.7324    5760.2466 
  204000      203.987    273.32491    11.411596   -485.77632   -474.36472   -2208.9371    23306.045    31776.185   -61709.041      15.2149      13.1765      28.7324    5760.2466 
  204500      204.487    287.76515    12.014491   -486.36177   -474.34728   -3176.7186    23789.136    35695.475   -69014.766      15.2149      13.1765      28.7324    5760.2466 
  205000      204.987    275.86653    11.517711   -485.84743   -474.32972   -1646.1655    25815.798    31373.529   -62127.823      15.2149      13.1765      28.7324    5760.2466 
  205500      205.487    269.84981    11.266507   -485.57766   -474.31115   -2596.3999    27032.835    30190.003   -65012.038      15.2149      13.1765      28.7324    5760.2466 
  206000      205.987    277.51345    11.586471   -485.88064   -474.29417    -2825.393     24239.26    26807.529   -59522.968      15.2149      13.1765      28.7324    5760.2466 
  206500      206.487    281.89711    11.769494   -486.04536   -474.27587   -1786.2621    26552.266    30837.752   -62748.804      15.2149      13.1765      28.7324    5760.2466 
  207000      206.987    263.41288    10.997758   -485.25564   -474.25788    -2305.768    26009.528    27902.102   -60828.934      15.2149      13.1765      28.7324    5760.2466 
  207500      207.487    276.54641    11.546096   -485.78616   -474.24006   -3619.7794    22680.213    29275.082   -62814.634      15.2149      13.1765      28.7324    5760.2466 
  208000      207.987    293.18695    12.240856   -486.46449   -474.22364   -1885.0774    22187.708    30682.958   -58525.898      15.2149      13.1765      28.7324    5760.2466 
  208500      208.487    299.95658    12.523495     -486.729    -474.2055   -2835.7727    25526.925    30352.478   -64386.721      15.2149      13.1765      28.7324    5760.2466 
  209000      208.987    275.41015    11.498657   -485.68616   -474.18751   -2372.0412    24634.253    31957.634    -63708.01      15.2149      13.1765      28.7324    5760.2466 
  209500      209.487    265.04919    11.066076   -485.23499   -474.16892   -1278.6108     27576.15    28873.017       -60285      15.2149      13.1765      28.7324    5760.2466 
  210000      209.987    277.34873    11.579594   -485.73032   -474.15073   -2948.6715    24019.618    26552.572   -59418.204      15.2149      13.1765      28.7324    5760.2466 
  210500      210.487    272.46787    11.375813   -485.50877   -474.13296   -2274.4512    22526.769    32326.987    -61677.11      15.2149      13.1765      28.7324    5760.2466 
  211000      210.987    284.70424    11.886694   -486.00315   -474.11646   -3478.9444    23548.804    29244.524   -63230.161      15.2149      13.1765      28.7324    5760.2466 
  211500      211.487    288.69846    12.053457    -486.1508   -474.09734   -2914.1787    28724.547    31588.527    -69055.61      15.2149      13.1765      28.7324    5760.2466 
  212000      211.987    272.93018    11.395115   -485.47425   -474.07913   -1896.8352    22823.753    33289.325   -61803.583      15.2149      13.1765      28.7324    5760.2466 
[...]
  948500      948.487    368.56588    15.388004   -481.97277   -466.58477    -472.5056    29931.754    34192.096   -65541.367      15.2149      13.1765      28.7324    5760.2466 
  949000      948.987    367.37319    15.338208   -481.92274   -466.58454     329.0754    28602.381    35813.817   -63428.972      15.2149      13.1765      28.7324    5760.2466 
  949500      949.487    358.29868    14.959338   -481.54252   -466.58318   -492.46958    24969.707    31672.652   -58119.768      15.2149      13.1765      28.7324    5760.2466 
  950000      949.987    373.27679    15.584689   -482.16602   -466.58133    135.72337    27454.197    31771.091   -58818.118      15.2149      13.1765      28.7324    5760.2466 
  950500      950.487    350.01482    14.613478   -481.19347   -466.57999   -262.55662    27607.611    32064.849   -60460.129      15.2149      13.1765      28.7324    5760.2466 
  951000      950.987    371.94007     15.52888   -482.10815   -466.57927   -324.05788    28390.373    30075.245   -59437.792      15.2149      13.1765      28.7324    5760.2466 
  951500      951.487    391.00145    16.324712   -482.90271     -466.578    615.35275    25776.489     35476.37   -59406.801      15.2149      13.1765      28.7324    5760.2466 
  952000      951.987    376.63152    15.724753   -482.30026    -466.5755   -162.15471     25729.67      32724.4   -58940.534      15.2149      13.1765      28.7324    5760.2466 
  952500      952.487    364.01741    15.198101   -481.77274   -466.57464    -1682.074    23882.192    36456.381   -65384.795      15.2149      13.1765      28.7324    5760.2466 
  953000      952.987    396.68751    16.562111   -483.13362   -466.57151   -784.89316    27540.326    33828.542   -63723.547      15.2149      13.1765      28.7324    5760.2466 
  953500      953.487    354.75345    14.811321   -481.38076   -466.56944    157.61395    28138.033    31542.644   -59207.834      15.2149      13.1765      28.7324    5760.2466 
  954000      953.987    364.35202    15.212071   -481.78042   -466.56835   -1070.9477     26826.91    33139.869   -63179.622      15.2149      13.1765      28.7324    5760.2466 
  954500      954.487    365.14018    15.244977   -481.81079   -466.56581   -312.41825    30730.722    35228.167   -66896.144      15.2149      13.1765      28.7324    5760.2466 
  955000      954.987    347.07477    14.490728   -481.05337   -466.56264    786.97321    30820.756    30633.537   -59093.374      15.2149      13.1765      28.7324    5760.2466 
  955500      955.487    382.36439    15.964106   -482.52807   -466.56396    1417.8454    26342.163    33473.484   -55562.111      15.2149      13.1765      28.7324    5760.2466 
  956000      955.987    386.01955    16.116712   -482.67819   -466.56148   -488.85646     25683.09    36990.482   -64140.142      15.2149      13.1765      28.7324    5760.2466 
  956500      956.487     379.2933    15.835885   -482.39429    -466.5584    111.84376    28006.208    34150.002   -61820.679      15.2149      13.1765      28.7324    5760.2466 
  957000      956.987    397.12729    16.580472   -483.13775   -466.55728    794.21233    24876.137    36381.165   -58874.665      15.2149      13.1765      28.7324    5760.2466 
  957500      957.487    364.10412    15.201721   -481.75667   -466.55495    843.92086    29191.463    33551.025   -60210.726      15.2149      13.1765      28.7324    5760.2466 
  958000      957.987    390.94069    16.322175   -482.87436   -466.55218    1883.7099    28310.448    34901.852   -57561.171      15.2149      13.1765      28.7324    5760.2466 
  958500      958.487    382.67856    15.977223   -482.52795   -466.55072    947.65971    26807.838    35213.139   -59177.998      15.2149      13.1765      28.7324    5760.2466 
  959000      958.987    379.14705    15.829779   -482.37802   -466.54824   -614.45773    25579.595    33837.764   -61260.733      15.2149      13.1765      28.7324    5760.2466 
  959500      959.487     372.7421    15.562366   -482.10859   -466.54622   -1337.8534    27083.887    34589.407   -65686.854      15.2149      13.1765      28.7324    5760.2466 
  960000      959.987     382.2087    15.957606   -482.50147   -466.54386   -64.344013    26959.422    29387.289   -56539.743      15.2149      13.1765      28.7324    5760.2466 
  960500      960.487    396.39821    16.550032   -483.09194   -466.54191   -190.77907    23555.403    35712.691   -59840.432      15.2149      13.1765      28.7324    5760.2466 
  961000      960.987    366.32821    15.294579   -481.83199   -466.53742    706.05312    30984.908    33150.774   -62017.523      15.2149      13.1765      28.7324    5760.2466 
  961500      961.487    358.03091    14.948158   -481.48463   -466.53647   -201.10029    27192.622    38354.431   -66150.354      15.2149      13.1765      28.7324    5760.2466 
  962000      961.987    388.25875    16.210201   -482.74497   -466.53477    -180.7377    25166.229     36003.86   -61712.301      15.2149      13.1765      28.7324    5760.2466 
  962500      962.487    350.97651     14.65363   -481.18574   -466.53211    1160.0112    26856.501    33510.651   -56887.118      15.2149      13.1765      28.7324    5760.2466 
  963000      962.987    389.46824    16.260699   -482.79214   -466.53144   -86.842723    27625.819    34015.445   -61901.792      15.2149      13.1765      28.7324    5760.2466 
  963500      963.487    370.19954    15.456211   -481.98557   -466.52936    176.83563     27598.93    34024.911   -61093.334      15.2149      13.1765      28.7324    5760.2466 
  964000      963.987    384.90848    16.070324   -482.59676   -466.52643   -520.31787    25197.711    32672.581   -59431.246      15.2149      13.1765      28.7324    5760.2466 
  964500      964.487    389.21776    16.250241   -482.77357   -466.52332    1234.4512    27208.687    34494.939   -58000.272      15.2149      13.1765      28.7324    5760.2466 
  965000      964.987     374.9719    15.655462   -482.17673   -466.52126    1421.7344    29597.997    34965.868   -60298.662      15.2149      13.1765      28.7324    5760.2466 
  965500      965.487      375.758    15.688282   -482.20581   -466.51752    838.63076     26564.57    32841.673    -56890.35      15.2149      13.1765      28.7324    5760.2466 
  966000      965.987    375.36966    15.672069   -482.18711   -466.51504   -231.59866     26198.41    31330.126   -58223.333      15.2149      13.1765      28.7324    5760.2466 
  966500      966.487    360.09096    15.034167   -481.54722   -466.51306    1633.2645    30627.526    38775.014   -64502.747      15.2149      13.1765      28.7324    5760.2466 
  967000      966.987    368.92405    15.402958   -481.91404   -466.51108   -399.26723    29776.553    32029.059   -63003.414      15.2149      13.1765      28.7324    5760.2466 
  967500      967.487    385.89513    16.111518   -482.62004   -466.50852   -86.120488    25635.141    35560.242   -61453.745      15.2149      13.1765      28.7324    5760.2466 
  968000      967.987    370.62776     15.47409   -481.97907   -466.50498    484.37934    28155.377    33222.024   -59924.263      15.2149      13.1765      28.7324    5760.2466 
  968500      968.487    376.59312    15.723149   -482.22509   -466.50194    1494.2614    28544.997    32759.595   -56821.807      15.2149      13.1765      28.7324    5760.2466 
  969000      968.987     378.9902     15.82323   -482.32286   -466.49963   -225.94148    26194.803    34550.319   -61422.946      15.2149      13.1765      28.7324    5760.2466 
  969500      969.487    389.10611     16.24558   -482.74307   -466.49749     761.0197    27613.752    36546.111   -61876.804      15.2149      13.1765      28.7324    5760.2466 
  970000      969.987     371.3544    15.504428   -481.99867   -466.49424   -801.36155    21332.035    33701.473   -57437.592      15.2149      13.1765      28.7324    5760.2466 
  970500      970.487    393.92529    16.446785   -482.93742   -466.49064   -237.25513    26466.152    32637.622   -59815.539      15.2149      13.1765      28.7324    5760.2466 
  971000      970.987    386.23803    16.125834   -482.61373    -466.4879    300.73711    28758.035    35932.373   -63788.197      15.2149      13.1765      28.7324    5760.2466 
  971500      971.487    370.49669    15.468617   -481.95373   -466.48512    24.886935     27372.22    34615.339   -61912.898      15.2149      13.1765      28.7324    5760.2466 
  972000      971.987    380.11735     15.87029   -482.35282   -466.48253    278.78832    26958.306    33813.982   -59935.923      15.2149      13.1765      28.7324    5760.2466 
  972500      972.487    372.57216     15.55527   -482.03434   -466.47907    1068.6508    27361.287    35708.458   -59863.793      15.2149      13.1765      28.7324    5760.2466 
  973000      972.987    366.81766    15.315014   -481.79293   -466.47791   -430.73899    28283.468    31290.692   -60866.376      15.2149      13.1765      28.7324    5760.2466 
  973500      973.487    354.57935    14.804052   -481.27714   -466.47309    775.49273    27961.847    32824.825   -58460.193      15.2149      13.1765      28.7324    5760.2466 
  974000      973.987    379.59943    15.848666   -482.31957   -466.47091   -915.69383    27356.503    30980.773   -61084.357      15.2149      13.1765      28.7324    5760.2466 
  974500      974.487     367.4519    15.341494   -481.80944   -466.46795   -298.01068    27574.209    34023.933   -62492.174      15.2149      13.1765      28.7324    5760.2466 
  975000      974.987    378.21859    15.791015   -482.25476   -466.46374    801.33415    30255.493    33156.174   -61007.665      15.2149      13.1765      28.7324    5760.2466 
  975500      975.487    388.21765    16.208485   -482.66788    -466.4594   -1028.3593    24221.145    34257.358   -61563.582      15.2149      13.1765      28.7324    5760.2466 
  976000      975.987    367.63089    15.348967   -481.80554   -466.45658    213.89022    26179.818    36882.529   -62420.676      15.2149      13.1765      28.7324    5760.2466 
  976500      976.487     352.7715    14.728572   -481.17992   -466.45134    331.62213    27332.983    37615.095   -63953.211      15.2149      13.1765      28.7324    5760.2466 
  977000      976.987    370.09293     15.45176   -481.90083   -466.44907     1132.196    24937.175    38025.387   -59565.974      15.2149      13.1765      28.7324    5760.2466 
  977500      977.487     354.8685    14.816124   -481.26069   -466.44457   -1212.2695    25793.172    34489.103   -63919.084      15.2149      13.1765      28.7324    5760.2466 
  978000      977.987    388.82099    16.233676   -482.67501   -466.44134   -800.03213    27274.082    31888.419   -61562.597      15.2149      13.1765      28.7324    5760.2466 
  978500      978.487    381.15018    15.913411   -482.35062    -466.4372   -600.10481    31174.469    32971.206    -65945.99      15.2149      13.1765      28.7324    5760.2466 
  979000      978.987    373.05788     15.57555   -482.00991   -466.43436    752.16449    28842.748    35720.259   -62306.513      15.2149      13.1765      28.7324    5760.2466 
  979500      979.487    363.58071    15.179868   -481.60941   -466.42954   -2369.7891    25870.137    32637.637   -65617.141      15.2149      13.1765      28.7324    5760.2466 
  980000      979.987     396.1204    16.538433   -482.96552   -466.42708    1086.4041    26089.574    34115.957   -56946.319      15.2149      13.1765      28.7324    5760.2466 
  980500      980.487    395.77564    16.524039   -482.94617   -466.42213    1056.8396    26232.987    31277.422    -54339.89      15.2149      13.1765      28.7324    5760.2466 
  981000      980.987    374.14366    15.620882   -482.03987   -466.41899   -1844.8363    23650.552    34530.768   -63715.829      15.2149      13.1765      28.7324    5760.2466 
  981500      981.487    397.43457    16.593302   -483.01017   -466.41687    308.39345     25522.36    32727.085   -57324.264      15.2149      13.1765      28.7324    5760.2466 
  982000      981.987     384.3488    16.046957   -482.45706    -466.4101    443.26164    27540.049    29244.528   -55454.792      15.2149      13.1765      28.7324    5760.2466 
  982500      982.487    369.62835    15.432363   -481.83654   -466.40418    326.85098    30799.726    30121.562   -59940.735      15.2149      13.1765      28.7324    5760.2466 
  983000      982.987    374.80028    15.648297   -482.04955   -466.40125    128.33576    28162.702    31130.827   -58908.522      15.2149      13.1765      28.7324    5760.2466 
  983500      983.487    379.51012    15.844937    -482.2426   -466.39767   -309.85598    27851.955    34057.772   -62839.295      15.2149      13.1765      28.7324    5760.2466 
  984000      983.987    381.59045    15.931793   -482.32559    -466.3938    -1168.586    24621.044    33789.965   -61916.766      15.2149      13.1765      28.7324    5760.2466 
  984500      984.487    362.61759    15.139657   -481.52659   -466.38693    1203.7203    31991.091    33927.198   -62307.128      15.2149      13.1765      28.7324    5760.2466 
  985000      984.987    365.70754    15.268665   -481.65279   -466.38412    250.81294    26362.078    31188.157   -56797.796      15.2149      13.1765      28.7324    5760.2466 
  985500      985.487    356.76505    14.895307   -481.27699   -466.38168    816.79204    25837.099    37210.849   -60597.572      15.2149      13.1765      28.7324    5760.2466 
  986000      985.987    381.40262    15.923951   -482.30204   -466.37809    1080.8621    24389.117    36949.435   -58095.965      15.2149      13.1765      28.7324    5760.2466 
  986500      986.487    388.83855    16.234409   -482.60838   -466.37397    631.72439    27699.672    33327.939   -59132.438      15.2149      13.1765      28.7324    5760.2466 
  987000      986.987    380.20903    15.874118   -482.24308   -466.36896   -264.56477    26559.436    33530.461   -60883.591      15.2149      13.1765      28.7324    5760.2466 
  987500      987.487    393.68525    16.436764   -482.80165   -466.36488     304.5335    24474.058    33467.708   -57028.165      15.2149      13.1765      28.7324    5760.2466 
  988000      987.987    360.18854    15.038242   -481.39827   -466.36002    438.38683      26076.1    37047.643   -61808.582      15.2149      13.1765      28.7324    5760.2466 
  988500      988.487    363.64492    15.182549   -481.53782   -466.35527   -49.489881    24745.027    36088.636   -60982.132      15.2149      13.1765      28.7324    5760.2466 
  989000      988.987    346.35878    14.460835   -480.81242   -466.35159    960.72132    26613.118    34913.191   -58644.145      15.2149      13.1765      28.7324    5760.2466 
  989500      989.487    370.76638    15.479877   -481.82679   -466.34691    273.90958    29297.891    30348.346   -58824.508      15.2149      13.1765      28.7324    5760.2466 
  990000      989.987    393.76574    16.440124   -482.78364   -466.34352   -1177.4563    23956.944    35166.592   -62655.905      15.2149      13.1765      28.7324    5760.2466 
  990500      990.487    383.14657    15.996763   -482.33487   -466.33811    1026.4532    29731.028    33340.644   -59992.312      15.2149      13.1765      28.7324    5760.2466 
  991000      990.987    369.86125    15.442087   -481.77582   -466.33373   -356.92413    31597.028     33837.77   -66505.571      15.2149      13.1765      28.7324    5760.2466 
  991500      991.487    372.07001    15.534305   -481.86324   -466.32893   -408.35298    27676.632    36674.019   -65575.709      15.2149      13.1765      28.7324    5760.2466 
  992000      991.987     374.7431    15.645909   -481.97023   -466.32432    647.34899    28096.502    34535.409   -60689.864      15.2149      13.1765      28.7324    5760.2466 
  992500      992.487    381.01526    15.907778    -482.2286   -466.32082    249.50605    26696.481    32606.718    -58554.68      15.2149      13.1765      28.7324    5760.2466 
  993000      992.987    358.63772    14.973493   -481.28787   -466.31438    163.73982    28923.428    33429.096   -61861.305      15.2149      13.1765      28.7324    5760.2466 
  993500      993.487    352.44827    14.715077   -481.02557    -466.3105    820.06877    29707.766    34866.393   -62113.952      15.2149      13.1765      28.7324    5760.2466 
  994000      993.987    367.57551    15.346655   -481.65169   -466.30503   -1368.7261    28307.275    31240.813   -63654.266      15.2149      13.1765      28.7324    5760.2466 
  994500      994.487    381.50669    15.928296   -482.22897   -466.30067    90.058107    28090.799    33680.929   -61501.554      15.2149      13.1765      28.7324    5760.2466 
  995000      994.987    350.61759    14.638645   -480.93332   -466.29468   -33.140975    25730.328    34243.176   -60072.927      15.2149      13.1765      28.7324    5760.2466 
  995500      995.487     355.4652    14.841037   -481.13122   -466.29019    1001.3019    27518.426    30611.275   -55125.795      15.2149      13.1765      28.7324    5760.2466 
  996000      995.987     365.2848    15.251015   -481.53609   -466.28507    345.14166    24783.453    31914.727   -55662.755      15.2149      13.1765      28.7324    5760.2466 
  996500      996.487    391.83373    16.359461   -482.64118   -466.28172   -395.50857    24334.597    35735.641   -61256.763      15.2149      13.1765      28.7324    5760.2466 
  997000      996.987    377.28077    15.751859   -482.02631   -466.27445    921.84315    24946.266    37971.892   -60152.628      15.2149      13.1765      28.7324    5760.2466 
  997500      997.487    377.80866      15.7739   -482.04414   -466.27024    910.28771    26805.698    33900.503   -57975.338      15.2149      13.1765      28.7324    5760.2466 
  998000      997.987    383.30831    16.003515   -482.26827   -466.26475    84.775081    25757.902    32888.721   -58392.297      15.2149      13.1765      28.7324    5760.2466 
  998500      998.487     377.4788    15.760128   -482.01921   -466.25908   -606.34408    25667.845    35268.512   -62755.389      15.2149      13.1765      28.7324    5760.2466 
  999000      998.987     372.3726    15.546938   -481.80015   -466.25321    873.59347    32170.581    31468.245   -61018.046      15.2149      13.1765      28.7324    5760.2466 
  999500      999.487    378.43171    15.799912   -482.04933   -466.24942    56.515941    22357.204     36940.91   -59128.566      15.2149      13.1765      28.7324    5760.2466 
 1000000      999.987    357.79413    14.938272   -481.18125   -466.24297    783.98676    29777.332    36409.748   -63835.119      15.2149      13.1765      28.7324    5760.2466 
 1000013         1000    368.56052     15.38778   -481.63106   -466.24328    1027.4341    27320.142    35901.917   -60139.757      15.2149      13.1765      28.7324    5760.2466 
Loop time of 903.104 on 28 procs for 1000000 steps with 324 atoms

Performance: 95.670 ns/day, 0.251 hours/ns, 1107.292 timesteps/s
88.2% CPU use with 28 MPI tasks x no OpenMP threads

MPI task timing breakdown:
Section |  min time  |  avg time  |  max time  |%varavg| %total
---------------------------------------------------------------
Pair    | 737.15     | 780.19     | 828.89     |  92.1 | 86.39
Neigh   | 0          | 0          | 0          |   0.0 |  0.00
Comm    | 58.676     | 109.6      | 153.01     | 254.8 | 12.14
Output  | 0.12834    | 0.13084    | 0.1502     |   1.1 |  0.01
Modify  | 4.0929     | 8.04       | 17.65      | 139.8 |  0.89
Other   |            | 5.14       |            |       |  0.57

Nlocal:    11.5714 ave 15 max 9 min
Histogram: 5 4 0 6 0 5 3 0 1 4
Nghost:    660.214 ave 713 max 622 min
Histogram: 6 6 0 1 7 0 0 1 3 4
Neighs:    724.286 ave 970 max 525 min
Histogram: 2 4 3 6 2 3 2 2 1 3
FullNghs:  1448.57 ave 1884 max 1105 min
Histogram: 5 2 2 6 1 4 3 0 1 4

Total # of neighbors = 40560
Ave neighs/atom = 125.185
Neighbor list builds = 0
Dangerous builds = 0

write_restart   POSCAR_1x1x1.rest

#unfix    1
#undump   1
Total wall time: 0:15:03
