LAMMPS (7 Dec 2015)
#----------- Initialize Simulation ------------ restart01
#processors	2 2 2
units		metal
boundary	p p p     ## periodic boundary condition  on x y z axis ##
atom_style atomic
#atom_modify map array sort 0 0.0

read_data	POSCAR_1x1x1.lammps
  triclinic box = (0 0 0) to (14.88 12.8865 28.7324) with tilt (-7.44 0 0)
  1 by 2 by 4 MPI processor grid
  reading atoms ...
  324 atoms

#----------- Define Potential -----------------
pair_style meam
pair_coeff * * MgAlZn.library.meam Mg Al Zn MgAlZn.parameter.meam Mg Al Zn 	#1=Mg 2=Al 3=Zn	#atoms/mass

#----------- Neighbor List --------------------
neighbor 2.0 bin
neigh_modify delay 10 check yes

#--------------  Run a simulation (minimization) ---------------------------------------
minimize       1.0e-4   1.0e-6   100   1000          #結構優化的條件
WARNING: Resetting reneighboring criteria during minimization (../min.cpp:168)
Neighbor list info ...
  2 neighbor list requests
  update every 1 steps, delay 0 steps, check yes
  max neighbors/atom: 2000, page size: 100000
  master list distance cutoff = 8
  ghost atom cutoff = 8
  binsize = 4 -> bins = 6 4 8
Memory usage per processor = 8.90029 Mbytes
Step Temp E_pair E_mol TotEng Press 
       0            0   -448.81624            0   -448.81624    36783.023 
       4            0   -453.20874            0   -453.20874    29674.353 
Loop time of 0.0376347 on 8 procs for 4 steps with 324 atoms

100.3% CPU use with 8 MPI tasks x no OpenMP threads

Minimization stats:
  Stopping criterion = energy tolerance
  Energy initial, next-to-last, final = 
        -448.816236748     -453.167419554     -453.208737504
  Force two-norm initial, final = 21.6076 0.485187
  Force max component initial, final = 1.66699 0.0432631
  Final line search alpha, max atom move = 0.611649 0.0264618
  Iterations, force evaluations = 4 8

MPI task timing breakdown:
Section |  min time  |  avg time  |  max time  |%varavg| %total
---------------------------------------------------------------
Pair    | 0.033262   | 0.034638   | 0.036077   |   0.6 | 92.04
Neigh   | 0          | 0          | 0          |   0.0 |  0.00
Comm    | 0.0011244  | 0.0025383  | 0.003854   |   2.1 |  6.74
Output  | 0          | 0          | 0          |   0.0 |  0.00
Modify  | 0          | 0          | 0          |   0.0 |  0.00
Other   |            | 0.0004586  |            |       |  1.22

Nlocal:    40.5 ave 51 max 30 min
Histogram: 1 2 0 0 1 1 0 0 2 1
Nghost:    1072 ave 1083 max 1061 min
Histogram: 2 1 0 0 1 1 0 0 1 2
Neighs:    2571.75 ave 3192 max 1935 min
Histogram: 1 2 0 0 1 0 1 0 2 1
FullNghs:  5143.5 ave 6438 max 3843 min
Histogram: 1 2 0 0 1 1 0 0 2 1

Total # of neighbors = 41148
Ave neighs/atom = 127
Neighbor list builds = 0
Dangerous builds = 0
velocity all  create 393.0 4928459 #rot yes dist gaussian

#--------------  Run a simulation (Relaxation)  ----------------------------------------
fix  1  all  nvt   temp  393.0  393.0  100				#damping constant
#fix  2  all  npt   temp  393.0  393.0  50 iso 0.0 0.0 1000.0
fix  2  all deform 1 x final 0 15.6906 y final 0 13.5884 z final 0 25.2339 xy final -7.8452 units lattice
#fix  3  all  npt   temp  393.0  393.0  50 z 0.0 0.0 1000.0

#variable b equal 1
#fix 2 all efield  0.0  0.0  v_b
#compute pot all pe/atom


#----------- Output --------------------------
thermo	 500
timestep  0.001		#1.0 fs
thermo_style	custom step time temp ke pe etotal press pxx pyy pzz lx ly lz vol

dump 1 all custom 10000 dump.eq id type x y z
dump_modify 1 sort  id

run        10000000	#10000 ps
Neighbor list info ...
  2 neighbor list requests
  update every 1 steps, delay 10 steps, check yes
  max neighbors/atom: 2000, page size: 100000
  master list distance cutoff = 8
  ghost atom cutoff = 8
  binsize = 4 -> bins = 6 4 8
Memory usage per processor = 7.80593 Mbytes
Step Time Temp KinEng PotEng TotEng Press Pxx Pyy Pzz Lx Ly Lz Volume 
       4            0          393    16.408154   -453.20874   -436.80058    32855.405    97908.867    98189.719   -97532.372        14.88    12.886458     28.73238    5509.4482 
     500        0.496     205.5773    8.5830632    -445.3831   -436.80004    37250.661    102955.46    103711.62   -94915.097     14.88004    12.886493    28.732206    5509.4447 
    1000        0.996    199.03473    8.3099045   -445.11352   -436.80362    37605.616    109642.98     109258.9   -106085.03    14.880081    12.886528    28.732031    5509.4411 
    1500        1.496    198.44675    8.2853554   -445.09281   -436.80745    37478.492    105686.32    105356.72   -98607.562    14.880121    12.886563    28.731857    5509.4376 
    2000        1.996    202.86139    8.4696713   -445.28047    -436.8108    37330.667    106736.95    106768.49   -101513.44    14.880162    12.886598    28.731682    5509.4341 
    2500        2.496    200.92851    8.3889715   -445.20286   -436.81389    37774.689    104724.87     105473.2   -96874.006    14.880202    12.886633    28.731507    5509.4305 
    3000        2.996    199.97014    8.3489585   -445.16583   -436.81687    37312.216    107807.47    106056.08   -101926.89    14.880243    12.886668    28.731332     5509.427 
    3500        3.496    192.50945    8.0374674   -444.85684   -436.81937     37448.19    104817.76    105791.23   -98264.418    14.880284    12.886704    28.731157    5509.4235 
    4000        3.996    203.62001    8.5013445   -445.32382   -436.82247     37783.33     105756.2    104450.27   -96856.483    14.880324    12.886739    28.730982    5509.4199 
    4500        4.496    200.25924     8.361029   -445.18573    -436.8247    37357.902    106310.55    105398.26   -99635.107    14.880365    12.886774    28.730807    5509.4164 
    5000        4.996    192.50002    8.0370736   -444.86354   -436.82647    37990.878    103869.62    105868.56   -95765.549    14.880405    12.886809    28.730632    5509.4129 
    5500        5.496    200.92281    8.3887335   -445.21741   -436.82868    37334.512    110039.86    105739.84   -103776.17    14.880446    12.886844    28.730457    5509.4093 
    6000        5.996    189.85391    7.9265957   -444.75687   -436.83028    37801.644    105007.22    105578.51   -97180.795    14.880486    12.886879    28.730282    5509.4058 
    6500        6.496    204.22703    8.5266884    -445.3585   -436.83182    37326.626    110026.06    108294.26   -106340.44    14.880527    12.886914    28.730107    5509.4023 
    7000        6.996    200.44601    8.3688269    -445.2021   -436.83328    37444.806    105435.69     105386.1   -98487.375    14.880567    12.886949    28.729932    5509.3987 
    7500        7.496    192.03127    8.0175027   -444.85178   -436.83428    37609.979    106456.45    107270.16   -100896.68    14.880608    12.886984    28.729757    5509.3952 
    8000        7.996    198.60014    8.2917599   -445.12701   -436.83525    37173.873    106171.66    105677.58   -100327.62    14.880648    12.887019    28.729583    5509.3917 
    8500        8.496    197.96912    8.2654142    -445.1008   -436.83539      37588.6    105152.79    104441.66   -96828.656    14.880689    12.887054    28.729408    5509.3881 
    9000        8.996    217.73488    9.0906547   -445.92736    -436.8367    37069.676    105397.92    108592.61    -102781.5    14.880729     12.88709    28.729233    5509.3846 
    9500        9.496    205.43953    8.5773113   -445.41411    -436.8368    37265.612     102983.1    103182.46   -94368.725     14.88077    12.887125    28.729058    5509.3811 
   10000        9.996     196.6727     8.211287   -445.04775   -436.83646    37665.008    107181.86    108222.35   -102409.18     14.88081     12.88716    28.728883    5509.3775 
   10500       10.496    192.33712    8.0302725   -444.86654   -436.83627    37781.595    106328.18    106361.17    -99344.57    14.880851    12.887195    28.728708     5509.374 
   11000       10.996    204.78969      8.55018   -445.38637   -436.83619    37466.314    105756.63    105469.44   -98827.133    14.880891     12.88723    28.728533    5509.3705 
   11500       11.496    189.76028    7.9226865   -444.75791   -436.83523    38004.844    104854.67    107819.34   -98659.479    14.880932    12.887265    28.728358    5509.3669 
   12000       11.996    188.08311    7.8526628   -444.68713   -436.83447    38145.617    106464.85    106188.66   -98216.653    14.880973      12.8873    28.728183    5509.3634 
   12500       12.496    194.85975    8.1355948   -444.96936   -436.83376    37624.986    105245.87    106505.15    -98876.06    14.881013    12.887335    28.728008    5509.3599 
   13000       12.996    199.11715    8.3133454    -445.1462   -436.83286    37796.103    106090.18    105088.42   -97790.296    14.881054     12.88737    28.727833    5509.3563 
   13500       13.496    197.26959     8.236208   -445.06767   -436.83146    37812.566    106361.41    107799.37   -100723.09    14.881094    12.887405    28.727658    5509.3528 
   14000       13.996     191.1345    7.9800614   -444.80932   -436.82926    37630.253    108005.76    106260.42   -101375.43    14.881135    12.887441    28.727483    5509.3492 
   14500       14.496    195.72287    8.1716306   -444.99945   -436.82782    37729.594    106345.33    104203.79   -97360.343    14.881175    12.887476    28.727309    5509.3457 
   15000       14.996     200.2924    8.3624133   -445.18846   -436.82604     37633.65    106131.52    106759.35   -99989.921    14.881216    12.887511    28.727134    5509.3422 
   15500       15.496    197.62187    8.2509161   -445.07427   -436.82335    37766.413    106698.17    105983.35   -99382.272    14.881256    12.887546    28.726959    5509.3386 
   16000       15.996    184.91444    7.7203677   -444.54143   -436.82106    37748.102    107089.95     107787.6   -101633.25    14.881297    12.887581    28.726784    5509.3351 
   16500       16.496    187.55349    7.8305509   -444.64914   -436.81859    37719.884    106422.16    105423.15   -98685.655    14.881337    12.887616    28.726609    5509.3315 
   17000       16.996    191.37317    7.9900264   -444.80575   -436.81572    37941.692    104888.39    109025.19    -100088.5    14.881378    12.887651    28.726434     5509.328 
   17500       17.496    190.05936    7.9351735     -444.748   -436.81283    37990.806    108103.66    106105.59   -100236.83    14.881418    12.887686    28.726259    5509.3245 
   18000       17.996     209.7916    8.7590148   -445.56896   -436.80995    37321.398    107878.59    103806.15   -99720.551    14.881459    12.887721    28.726084    5509.3209 
   18500       18.496    198.59987    8.2917485   -445.09779   -436.80604    37606.517    106425.69    107702.57    -101308.7    14.881499    12.887756    28.725909    5509.3174 
   19000       18.996    203.15838    8.4820711   -445.28481   -436.80274    37545.158    105784.27    105296.39    -98445.18     14.88154    12.887792    28.725734    5509.3138 
   19500       19.496    198.84396    8.3019396    -445.1008   -436.79886    37597.967     104944.4    106073.87   -98224.367     14.88158    12.887827    28.725559    5509.3103 
   20000       19.996    196.02294    8.1841588   -444.97895   -436.79479    38070.738    108193.83    108843.54   -102825.16    14.881621    12.887862    28.725384    5509.3068 
   20500       20.496    201.10825    8.3964758   -445.18744   -436.79096    37539.519    105328.68       104079   -96789.127    14.881662    12.887897    28.725209    5509.3032 
   21000       20.996    201.92525    8.4305866   -445.21729   -436.78671    37482.559    105229.46    106477.11   -99258.895    14.881702    12.887932    28.725035    5509.2997 
   21500       21.496    201.40621    8.4089161   -445.19072    -436.7818    37683.328    105825.08    105010.85   -97785.951    14.881743    12.887967     28.72486    5509.2961 
   22000       21.996    198.12177    8.2717874   -445.04872   -436.77693    37322.812    106343.65    105176.08   -99551.295    14.881783    12.888002    28.724685    5509.2926 
   22500       22.496    194.41496    8.1170244   -444.88887   -436.77185    37520.141    106475.59    106425.46   -100340.62    14.881824    12.888037     28.72451    5509.2891 
   23000       22.996    201.30903    8.4048588    -445.1719   -436.76704    37638.303    107248.31    107776.09   -102109.49    14.881864    12.888072    28.724335    5509.2855 
   23500       23.496    203.71143    8.5051615   -445.26697   -436.76181    37383.312    106167.15    106362.21   -100379.43    14.881905    12.888107     28.72416     5509.282 
   24000       23.996    191.17141    7.9816028   -444.73761     -436.756    37641.819    107187.46    106696.13   -100958.14    14.881945    12.888142    28.723985    5509.2784 
   24500       24.496    194.27617    8.1112295   -444.86153    -436.7503    37721.232    105757.38    106442.28   -99035.961    14.881986    12.888178     28.72381    5509.2749 
   25000       24.996    196.76804    8.2152679      -444.96   -436.74473    37443.286    104784.71    104862.74   -97317.597    14.882026    12.888213    28.723635    5509.2713 
   25500       25.496    209.45754    8.7450673   -445.48448   -436.73942    37408.181    105800.98    106626.85   -100203.28    14.882067    12.888248     28.72346    5509.2678 
   26000       25.996     195.5131    8.1628727   -444.89573   -436.73286    37834.396    102009.96    106961.08   -95467.854    14.882107    12.888283    28.723285    5509.2643 
   26500       26.496    211.03188    8.8107977   -445.53788   -436.72709    37149.482    106726.58    104277.33   -99555.463    14.882148    12.888318     28.72311    5509.2607 
   27000       26.996    208.14217    8.6901493   -445.41085    -436.7207    37160.445    104491.26    107154.41   -100164.34    14.882188    12.888353    28.722935    5509.2572 
   27500       27.496     199.9434    8.3478422    -445.0615   -436.71366    37664.139    105581.86    104059.28   -96648.727    14.882229    12.888388     28.72276    5509.2536 
   28000       27.996    202.76637    8.4657042   -445.17285   -436.70715    37393.461    105169.49    105723.73   -98712.844    14.882269    12.888423    28.722586    5509.2501 
   28500       28.496    188.93185    7.8880989   -444.58775   -436.69965    37875.492    106665.03    107286.82   -100325.38     14.88231    12.888458    28.722411    5509.2465 
   29000       28.996    206.18256    8.6083337     -445.302   -436.69367    37517.375    105033.32     106754.3   -99235.491    14.882351    12.888493    28.722236     5509.243 
   29500       29.496    192.38187    8.0321408    -444.7179   -436.68576    38112.184     104186.9       107069   -96919.356    14.882391    12.888529    28.722061    5509.2394 
   30000       29.996    194.57239    8.1235969   -444.80211   -436.67851    37612.397    107626.27    105078.04   -99867.116    14.882432    12.888564    28.721886    5509.2359 
   30500       30.496    204.81018    8.5510354   -445.22244    -436.6714    37558.315    104453.03    107976.35   -99754.431    14.882472    12.888599    28.721711    5509.2323 
   31000       30.996     208.1916     8.692213   -445.35644   -436.66423    37232.459    105089.27    103031.44   -96423.332    14.882513    12.888634    28.721536    5509.2288 
   31500       31.496    211.42118    8.8270514   -445.48402   -436.65697    37316.343    105581.14     105604.9   -99237.013    14.882553    12.888669    28.721361    5509.2252 
   32000       31.996    196.59402    8.2080022   -444.85701   -436.64901    37518.401    103283.36    104012.11   -94740.271    14.882594    12.888704    28.721186    5509.2217 
   32500       32.496    204.08525    8.5207689   -445.16203   -436.64126    37246.577    104780.18     106551.1   -99591.557    14.882634    12.888739    28.721011    5509.2181 
   33000       32.996    206.78612    8.6335329   -445.26712   -436.63359    37408.236    106424.24     105641.6   -99841.134    14.882675    12.888774    28.720836    5509.2146 
   33500       33.496    205.35064    8.5736001   -445.19905   -436.62545    37537.992    105942.73    108699.96   -102028.71    14.882715    12.888809    28.720661    5509.2111 
   34000       33.996    197.50141    8.2458865    -444.8632   -436.61731    37826.955    108465.74    105281.98   -100266.85    14.882756    12.888844    28.720486    5509.2075 
   34500       34.496      200.283    8.3620209   -444.97131   -436.60929    37475.389    103145.29    107196.48   -97915.607    14.882796     12.88888    28.720312     5509.204 
   35000       34.996    200.68706    8.3788907   -444.98036   -436.60147    37303.642    105452.28    105716.88   -99258.235    14.882837    12.888915    28.720137    5509.2004 
   35500       35.496    202.62182    8.4596691   -445.05335   -436.59368    37726.028    107231.06    107217.88   -101270.85    14.882877     12.88895    28.719962    5509.1969 
   36000       35.996    209.35385    8.7407381   -445.32629   -436.58555    37276.844    105428.03    105458.53   -99056.031    14.882918    12.888985    28.719787    5509.1933 
   36500       36.496    204.72117    8.5473189   -445.12428   -436.57696    37542.731    106577.76    108224.55   -102174.12    14.882958     12.88902    28.719612    5509.1898 
   37000       36.996    205.43873    8.5772779   -445.14588   -436.56861    37749.756     104616.6    106482.72   -97850.053    14.882999    12.889055    28.719437    5509.1862 
   37500       37.496    215.13275    8.9820134   -445.54287   -436.56086    37574.183    105304.63    107665.37   -100247.46     14.88304     12.88909    28.719262    5509.1827 
   38000       37.996    204.06828    8.5200604   -445.07205   -436.55198    37569.146    105657.51    103717.77   -96667.851     14.88308    12.889125    28.719087    5509.1791 
   38500       38.496    201.92438      8.43055   -444.97422   -436.54367    38141.092    108334.46    105638.99   -99550.175    14.883121     12.88916    28.718912    5509.1755 
   39000       38.996    206.69738     8.629828   -445.16545   -436.53562    37540.107    105355.06    105599.16   -98333.901    14.883161    12.889195    28.718737     5509.172 
   39500       39.496    219.69936    9.1726739   -445.70059   -436.52792     37391.95    105178.95    105660.86   -98663.953    14.883202     12.88923    28.718562    5509.1684 
   40000       39.996    205.50204     8.579921   -445.09889   -436.51897    37894.253    106354.34    104158.32   -96829.904    14.883242    12.889266    28.718387    5509.1649 
   40500       40.496    204.47031    8.5368455   -445.04755    -436.5107    38072.048    105820.94    107611.33   -99216.133    14.883283    12.889301    28.718212    5509.1613 
   41000       40.996    201.86431    8.4280424   -444.93056   -436.50251     37681.19    105416.87    104943.47   -97316.765    14.883323    12.889336    28.718038    5509.1578 
   41500       41.496    201.51177    8.4133235   -444.90728   -436.49395    37787.034    106354.71    107425.33   -100418.95    14.883364    12.889371    28.717863    5509.1542 
   42000       41.996    196.68243    8.2116933   -444.69755   -436.48586    37874.667    106079.22    107128.47    -99583.69    14.883404    12.889406    28.717688    5509.1507 
   42500       42.496    204.66428    8.5449436   -445.02274    -436.4778    37645.477    105369.02    107378.45   -99811.043    14.883445    12.889441    28.717513    5509.1471 
   43000       42.996    211.10077    8.8136741   -445.28336   -436.46969    37235.065    105528.55     104076.4    -97899.75    14.883485    12.889476    28.717338    5509.1436 
   43500       43.496    197.19467    8.2330801   -444.69449   -436.46141    37425.043    105409.93    106886.95   -100021.75    14.883526    12.889511    28.717163      5509.14 
   44000       43.996    201.67671    8.4202097   -444.87351    -436.4533    37495.398    106925.23    106011.39   -100450.42    14.883566    12.889546    28.716988    5509.1365 
   44500       44.496    205.54817    8.5818473   -445.02724   -436.44539    37750.405    106892.33    106554.03   -100195.14    14.883607    12.889581    28.716813    5509.1329 
   45000       44.996    209.79508    8.7591598   -445.19645   -436.43729    37433.686    105474.23    104575.61   -97748.775    14.883647    12.889617    28.716638    5509.1294 
   45500       45.496    203.49449    8.4961039   -444.92494   -436.42884    37937.092    107962.18     107347.4   -101498.31    14.883688    12.889652    28.716463    5509.1258 
   46000       45.996     214.2823    8.9465062   -445.36795   -436.42145     37446.77    104613.12    104005.66   -96278.464    14.883729    12.889687    28.716288    5509.1222 
   46500       46.496    213.89456    8.9303175   -445.34402   -436.41371    37495.566    105718.72    106075.69   -99307.717    14.883769    12.889722    28.716113    5509.1187 
   47000       46.996    200.66882    8.3781294   -444.78355   -436.40542     37594.12    107808.23    106851.87   -101877.74     14.88381    12.889757    28.715938    5509.1151 
   47500       47.496     216.9429    9.0575887   -445.45582   -436.39823     37492.52    104717.69    106038.45   -98278.582     14.88385    12.889792    28.715764    5509.1116 
   48000       47.996    206.36593    8.6159895   -445.00635   -436.39036    37695.791    106436.03    105170.38   -98519.033    14.883891    12.889827    28.715589     5509.108 
   48500       48.496     195.8181    8.1756068    -444.5582    -436.3826    37730.035    104268.45    108397.06   -99475.413    14.883931    12.889862    28.715414    5509.1045 
   49000       48.996    217.86769    9.0961997   -445.47153   -436.37533    37391.754    105693.62    105703.01   -99221.367    14.883972    12.889897    28.715239    5509.1009 
   49500       49.496    199.55071    8.3314471   -444.69877   -436.36732    38071.549    107509.47    108233.41   -101528.24    14.884012    12.889932    28.715064    5509.0973 
   50000       49.996    207.95991    8.6825397   -445.04269   -436.36015    37439.615    104304.56    106188.54   -98174.262    14.884053    12.889968    28.714889    5509.0938 
   50500       50.496    213.81144     8.926847   -445.27991   -436.35306     37345.77     106501.9    106184.48   -100649.07    14.884093    12.890003    28.714714    5509.0902 
   51000       50.996    198.45546    8.2857193   -444.63107   -436.34535    38287.392    107868.43    106787.79   -99794.049    14.884134    12.890038    28.714539    5509.0867 
   51500       51.496     208.7353    8.7149132   -445.05343   -436.33851    37360.181    106319.01    107682.48   -101920.94    14.884174    12.890073    28.714364    5509.0831 
   52000       51.996    206.90612     8.638543   -444.97001   -436.33147    37431.089    105666.57    105019.66   -98392.955    14.884215    12.890108    28.714189    5509.0796 
   52500       52.496    200.76197    8.3820183   -444.70602     -436.324    37725.746    106725.93    106172.04   -99720.737    14.884255    12.890143    28.714014     5509.076 
   53000       52.996    213.93959    8.9321975   -445.24962   -436.31742    37337.346    105957.32    105055.78   -99001.067    14.884296    12.890178    28.713839    5509.0724 
   53500       53.496    213.98722    8.9341861   -445.24484   -436.31066    37445.619    105161.13    105645.68   -98469.959    14.884336    12.890213    28.713664    5509.0689 
   54000       53.996    207.97411    8.6831327   -444.98623   -436.30309     37422.63     107393.6       106543   -101668.71    14.884377    12.890248     28.71349    5509.0653 
   54500       54.496    207.40365    8.6593154   -444.95583   -436.29652    37612.815    105162.72    103774.26   -96098.531    14.884418    12.890283    28.713315    5509.0617 
   55000       54.996     218.1734    9.1089634   -445.39899   -436.29003    37304.414    106307.61    106169.92   -100564.29    14.884458    12.890319     28.71314    5509.0582 
   55500       55.496    205.36262    8.5741003   -444.85709   -436.28299     37737.02    104197.57    103566.38   -94552.896    14.884499    12.890354    28.712965    5509.0546 
   56000       55.996     217.0001    9.0599769   -445.33668    -436.2767    37746.619    106318.05    105705.55   -98783.752    14.884539    12.890389     28.71279    5509.0511 
   56500       56.496    206.97351    8.6413567   -444.91113   -436.26977    37825.087    107533.45    107408.79   -101466.99     14.88458    12.890424    28.712615    5509.0475 
   57000       56.996    202.56849    8.4574423    -444.7203   -436.26286      37841.2    107007.04    107089.42   -100572.86     14.88462    12.890459     28.71244    5509.0439 
   57500       57.496    209.06828    8.7288152   -444.98512    -436.2563    37635.839     104727.7    103912.61   -95732.792    14.884661    12.890494    28.712265    5509.0404 
   58000       57.996    197.16427    8.2318106   -444.48155   -436.24974    37946.364       106511    106273.39   -98945.302    14.884701    12.890529     28.71209    5509.0368 
   58500       58.496    206.69628    8.6297819   -444.87318   -436.24339    37649.715    105525.83    105055.77   -97632.456    14.884742    12.890564    28.711915    5509.0333 
   59000       58.996    212.30641    8.8640107   -445.10117   -436.23716    38001.333     106104.9    107504.07   -99604.976    14.884782    12.890599     28.71174    5509.0297 
   59500       59.496    224.22439    9.3615984   -445.59287   -436.23127    37316.961    105223.14    104784.18    -98056.44    14.884823    12.890634    28.711565    5509.0261 
   60000       59.996    211.04427    8.8113149   -445.03578   -436.22447    37591.189    106300.99    105605.14   -99132.568    14.884863    12.890669     28.71139    5509.0226 
   60500       60.496    213.24694    8.9032787   -445.12097   -436.21769    37617.804    103481.59    105271.94   -95900.123    14.884904    12.890705    28.711216     5509.019 
   61000       60.996    220.88609    9.2222209   -445.43417   -436.21195    37616.683    106670.24    105235.77   -99055.963    14.884944     12.89074    28.711041    5509.0154 
   61500       61.496    203.99532    8.5170142   -444.72226   -436.20525    37692.078    105295.72     106145.6   -98365.092    14.884985    12.890775    28.710866    5509.0119 
   62000       61.996    207.23724    8.6523677   -444.85148   -436.19912     37760.17    106454.72    104315.49   -97489.704    14.885026     12.89081    28.710691    5509.0083 
   62500       62.496    216.39672    9.0347851   -445.22787   -436.19308      37394.4    106521.34    104895.95   -99234.096    14.885066    12.890845    28.710516    5509.0047 
   63000       62.996    207.59716    8.6673944    -444.8542    -436.1868    37758.946    107893.47    105853.98    -100470.6    14.885107     12.89088    28.710341    5509.0012 
   63500       63.496    206.61257    8.6262868   -444.80672   -436.18043    38137.843    105672.03    105525.13   -96783.622    14.885147    12.890915    28.710166    5508.9976 
   64000       63.996    214.35484    8.9495347   -445.12413    -436.1746    37741.177    106280.06    104057.81   -97114.336    14.885188     12.89095    28.709991     5508.994 
   64500       64.496    204.58309    8.5415542   -444.70973   -436.16817    38042.898    105277.93    105714.19    -96863.42    14.885228    12.890985    28.709816    5508.9905 
   65000       64.996    205.15002    8.5652241   -444.72711   -436.16188    37872.874    105390.36     105630.3   -97402.042    14.885269     12.89102    28.709641    5508.9869 
   65500       65.496    208.81204    8.7181172   -444.87407   -436.15595    37652.265    104883.37    104254.93   -96181.504    14.885309    12.891056    28.709466    5508.9833 
   66000       65.996    206.34051    8.6149283    -444.7647   -436.14978    37991.583    106675.42    106959.26   -99659.939     14.88535    12.891091    28.709291    5508.9798 
   66500       66.496    205.45591    8.5779951   -444.72119   -436.14319    37643.032     108674.6    106116.29   -101861.79     14.88539    12.891126    28.709116    5508.9762 
   67000       66.996    213.62677    8.9191369   -445.05628   -436.13714    37539.937    107676.42    107483.35   -102539.95    14.885431    12.891161    28.708941    5508.9726 
   67500       67.496    209.32956    8.7397241   -444.87065   -436.13093    37872.742    105247.18    105001.65   -96630.605    14.885471    12.891196    28.708767    5508.9691 
   68000       67.996    212.74816    8.8824543   -445.00755   -436.12509    37787.314    108044.86    107189.49   -101872.42    14.885512    12.891231    28.708592    5508.9655 
   68500       68.496    212.74455    8.8823036   -445.00094   -436.11863    37705.129    105081.45    105447.38   -97413.446    14.885552    12.891266    28.708417    5508.9619 
   69000       68.996    217.72905    9.0904115   -445.20279   -436.11238    37444.424     106713.4    105458.62   -99838.741    14.885593    12.891301    28.708242    5508.9584 
   69500       69.496    200.32716    8.3638645   -444.46954   -436.10567    38444.897    106749.87    103674.86    -95090.04    14.885633    12.891336    28.708067    5508.9548 
   70000       69.996    208.44345    8.7027281   -444.80259   -436.09986    37745.211    107356.03    107450.01   -101570.41    14.885674    12.891371    28.707892    5508.9512 
   70500       70.496     206.8024    8.6342127   -444.72761    -436.0934    37864.126    106257.96    105884.13   -98549.718    14.885715    12.891407    28.707717    5508.9477 
   71000       70.996    208.11033    8.6888198   -444.77575   -436.08693    37894.303    106221.78    105118.93   -97657.796    14.885755    12.891442    28.707542    5508.9441 
   71500       71.496    209.52769    8.7479964   -444.82849    -436.0805    37795.042    106958.03    107096.84   -100669.75    14.885796    12.891477    28.707367    5508.9405 
   72000       71.996    213.74747    8.9241764   -444.99895   -436.07478    37882.614    108245.82    106719.63   -101317.61    14.885836    12.891512    28.707192    5508.9369 
   72500       72.496    206.00034    8.6007257   -444.66894   -436.06821    38217.438    107131.32     105968.4   -98447.404    14.885877    12.891547    28.707017    5508.9334 
   73000       72.996     212.6774    8.8794997   -444.94137   -436.06187    37624.007    107445.25    105978.16   -100551.38    14.885917    12.891582    28.706842    5508.9298 
   73500       73.496    203.64145    8.5022394   -444.55749   -436.05525    37926.802    106682.09    106434.79    -99336.47    14.885958    12.891617    28.706667    5508.9262 
   74000       73.996    206.60395    8.6259269   -444.67447   -436.04854    38053.619    106619.95    107192.99   -99652.084    14.885998    12.891652    28.706493    5508.9227 
   74500       74.496      213.378    8.9087504   -444.95144   -436.04269    37332.746    107173.54    107065.65   -102240.95    14.886039    12.891687    28.706318    5508.9191 
   75000       74.996    219.36609    9.1587594   -445.19509   -436.03633     37279.18    106332.51    104430.45   -98925.413    14.886079    12.891722    28.706143    5508.9155 
   75500       75.496    210.77776    8.8001878   -444.82905   -436.02886    38294.771    106017.92     108280.3   -99413.904     14.88612    12.891757    28.705968    5508.9119 
   76000       75.996    208.19978    8.6925546   -444.71492   -436.02237    37753.271     107463.2     106008.1   -100211.49     14.88616    12.891793    28.705793    5508.9084 
   76500       76.496    225.59024    9.4186241    -445.4347   -436.01608    37492.254    103316.83    106958.77    -97798.84    14.886201    12.891828    28.705618    5508.9048 
   77000       76.996    216.86788    9.0544567   -445.06392   -436.00946    37361.042    104330.01     103195.7   -95442.591    14.886241    12.891863    28.705443    5508.9012 
   77500       77.496    206.86107     8.636662   -444.63902   -436.00236    37720.824    105877.39    104451.63   -97166.549    14.886282    12.891898    28.705268    5508.8977 
   78000       77.996    197.58394    8.2493325   -444.24435   -435.99501    37818.887     110108.6    110141.26   -106793.21    14.886322    12.891933    28.705093    5508.8941 
   78500       78.496     213.0357     8.894459    -444.8831   -435.98864    37908.896    107069.96    106331.03   -99674.307    14.886363    12.891968    28.704918    5508.8905 
   79000       78.996    220.73518    9.2159204   -445.19796   -435.98204     37560.45     107307.8    106260.84   -100887.28    14.886404    12.892003    28.704743    5508.8869 
   79500       79.496    219.83699    9.1784199   -445.15328   -435.97486    37431.275    105603.93    105067.92   -98378.028    14.886444    12.892038    28.704568    5508.8834 
   80000       79.996    211.68382    8.8380169   -444.80559   -435.96757    37808.075    103902.18    102921.99   -93399.948    14.886485    12.892073    28.704393    5508.8798 
   80500       80.496    226.16837    9.4427618   -445.40357   -435.96081     37627.03    105529.55    107112.89   -99761.352    14.886525    12.892108    28.704219    5508.8762 
   81000       80.996    208.16184    8.6909706   -444.64428   -435.95331    37757.333    105420.03    103720.37   -95868.393    14.886566    12.892144    28.704044    5508.8726 
   81500       81.496    215.76172    9.0082733   -444.95432   -435.94605    37963.505    104179.03    106445.31   -96733.825    14.886606    12.892179    28.703869    5508.8691 
   82000       81.996    228.12606    9.5244974   -445.46388   -435.93938    37763.812    105947.39    104863.93   -97519.874    14.886647    12.892214    28.703694    5508.8655 
   82500       82.496     218.5361    9.1241067   -445.05576   -435.93165    37697.267    107746.13    106361.01   -101015.34    14.886687    12.892249    28.703519    5508.8619 
   83000       82.996     211.4183    8.8269309   -444.75075   -435.92382    37576.177    106575.92    106634.55   -100481.94    14.886728    12.892284    28.703344    5508.8583 
   83500       83.496    213.57568     8.917004   -444.83371    -435.9167    37751.041    103720.03    105057.08   -95523.997    14.886768    12.892319    28.703169    5508.8547 
   84000       83.996     224.5704     9.376045   -445.28548   -435.90944    37565.253    105320.93     103879.2   -96504.375    14.886809    12.892354    28.702994    5508.8512 
   84500       84.496    233.74463    9.7590782   -445.66106   -435.90198    37302.421    106244.54    102955.72   -97292.992    14.886849    12.892389    28.702819    5508.8476 
   85000       84.996     223.4876    9.3308369   -445.22517   -435.89433    37453.053    102730.08     103440.2   -93811.119     14.88689    12.892424    28.702644     5508.844 
   85500       85.496    213.40833    8.9100169   -444.79621    -435.8862    37818.854    108484.89    102838.77   -97867.096     14.88693    12.892459    28.702469    5508.8404 
   86000       85.996    216.46242    9.0375281   -444.91628   -435.87875    37593.532    104084.01    104939.34    -96242.75    14.886971    12.892495    28.702294    5508.8369 
   86500       86.496    214.77597    8.9671172   -444.83807   -435.87095    37900.604    107247.52    106151.52   -99697.229    14.887011     12.89253    28.702119    5508.8333 
   87000       86.996    220.71778    9.2151942   -445.07806   -435.86287    37509.509    106062.63    107551.27   -101085.37    14.887052    12.892565    28.701945    5508.8297 
   87500       87.496    214.85438     8.970391    -444.8253   -435.85491    37765.765    107192.04    105716.83   -99611.571    14.887093      12.8926     28.70177    5508.8261 
   88000       87.996    205.66452     8.586705   -444.43343   -435.84673    38225.059    106347.14     106760.7   -98432.666    14.887133    12.892635    28.701595    5508.8225 
   88500       88.496    217.77102    9.0921636   -444.93123   -435.83906    37806.685    106964.11    105326.25   -98870.309    14.887174     12.89267     28.70142     5508.819 
   89000       88.996    220.99316    9.2266914   -445.05784   -435.83115     37730.94    106074.53    103502.25   -96383.965    14.887214    12.892705    28.701245    5508.8154 
   89500       89.496    225.21583     9.402992   -445.22591   -435.82292    38035.888    104247.48    104785.62   -94925.439    14.887255     12.89274     28.70107    5508.8118 
   90000       89.996     210.1596    8.7743789   -444.58903   -435.81465    38331.571    108685.13    107683.94   -101374.35    14.887295    12.892775    28.700895    5508.8082 
   90500       90.496    208.94522    8.7236775   -444.52975   -435.80607    37791.599     106299.2    105994.16    -98918.56    14.887336     12.89281     28.70072    5508.8046 
   91000       90.996    209.83527    8.7608378   -444.55876   -435.79792    38123.726    105804.91    105925.16   -97358.889    14.887376    12.892845    28.700545    5508.8011 
   91500       91.496    222.03668    9.2702593   -445.06051   -435.79025      37766.7    105294.61    105645.08   -97639.589    14.887417    12.892881     28.70037    5508.7975 
   92000       91.996    220.90572    9.2230406   -445.00419   -435.78115    37590.315    106045.94    106843.33   -100118.32    14.887457    12.892916    28.700195    5508.7939 
   92500       92.496    219.60373    9.1686813    -444.9413   -435.77262    37501.325    107294.15    105859.39   -100649.57    14.887498    12.892951     28.70002    5508.7903 
   93000       92.996    228.26938    9.5304811   -445.29506   -435.76458    37809.129    105826.89    105365.58   -97765.085    14.887538    12.892986    28.699845    5508.7867 
   93500       93.496    216.81625     9.052301   -444.80794   -435.75564    38066.275    106721.38    106747.72   -99270.277    14.887579    12.893021    28.699671    5508.7831 
   94000       93.996    210.67276     8.795804   -444.54214   -435.74633    38143.868    107607.37    106055.54   -99231.307    14.887619    12.893056    28.699496    5508.7796 
   94500       94.496    206.98767    8.6419477   -444.37993   -435.73798    38131.819    105920.47    107754.62   -99279.639     14.88766    12.893091    28.699321     5508.776 
   95000       94.996    216.04194    9.0199729   -444.74922   -435.72924    37616.641     105883.1       106571   -99604.182      14.8877    12.893126    28.699146    5508.7724 
   95500       95.496    214.46863    8.9542856   -444.67465   -435.72037    37883.597    104430.79     106749.9    -97529.89    14.887741    12.893161    28.698971    5508.7688 
   96000       95.996    224.82162    9.3865334   -445.09832   -435.71179    37722.625    104294.45     105783.7   -96910.272    14.887782    12.893196    28.698796    5508.7652 
   96500       96.496    224.70496    9.3816628   -445.08437   -435.70271    37596.967    105531.09     105582.8   -98322.995    14.887822    12.893232    28.698621    5508.7616 
   97000       96.996    222.95107    9.3084361   -445.00187   -435.69344    37755.448    104585.69    103790.78   -95110.122    14.887863    12.893267    28.698446    5508.7581 
   97500       97.496    214.59023    8.9593625   -444.64382   -435.68445    38075.731    107037.21    107298.56   -100108.58    14.887903    12.893302    28.698271    5508.7545 
   98000       97.996     224.3385    9.3663629   -445.04183   -435.67546    37537.954    105733.66    104738.09    -97857.89    14.887944    12.893337    28.698096    5508.7509 
   98500       98.496    233.28341    9.7398218   -445.40603   -435.66621     37646.38    105170.67    106227.38   -98458.903    14.887984    12.893372    28.697921    5508.7473 
   99000       98.996    212.61407    8.8768557   -444.53357   -435.65671    37940.994    106853.62    105087.13   -98117.765    14.888025    12.893407    28.697746    5508.7437 
   99500       99.496    214.97523    8.9754368   -444.62266   -435.64722    38505.778     106807.9     105784.5   -97075.065    14.888065    12.893442    28.697571    5508.7401 
  100000       99.996    221.81204    9.2608804   -444.89899   -435.63811    37564.934    106131.74    104755.62   -98192.562    14.888106    12.893477    28.697397    5508.7365 
  100500      100.496    223.46682    9.3299691   -444.95888   -435.62891    37673.659    104882.89    103315.59   -95177.504    14.888146    12.893512    28.697222     5508.733 
  101000      100.996    228.19693    9.5274563   -445.14696   -435.61951    37509.392    105364.91    106451.31   -99288.043    14.888187    12.893547    28.697047    5508.7294 
  101500      101.496    218.06904    9.1046064   -444.71407   -435.60947    38074.587    105101.84    104840.01    -95718.09    14.888227    12.893583    28.696872    5508.7258 
  102000      101.996    225.92154    9.4324564   -445.03291   -435.60046    37860.121    106103.61    108097.48   -100620.73    14.888268    12.893618    28.696697    5508.7222 
  102500      102.496    229.64156    9.5877708   -445.17839   -435.59062     37725.59    107022.78    103799.97   -97645.979    14.888308    12.893653    28.696522    5508.7186 
  103000      102.996    229.60566    9.5862722    -445.1675   -435.58123    37669.369       104807    106955.61   -98754.504    14.888349    12.893688    28.696347     5508.715 
  103500      103.496    230.35661    9.6176249   -445.18913   -435.57151    37557.584    104783.06    103429.91   -95540.218    14.888389    12.893723    28.696172    5508.7114 
  104000      103.996    222.18034    9.2762575   -444.83778   -435.56152     37995.15    105708.63    107281.34   -99004.516     14.88843    12.893758    28.695997    5508.7078 
  104500      104.496    218.53245    9.1239542   -444.67552   -435.55156     38137.32    107183.82    107397.71   -100169.57    14.888471    12.893793    28.695822    5508.7043 
  105000      104.996    223.17208    9.3176637   -444.85951   -435.54185    37748.695    106692.19     107076.1   -100522.21    14.888511    12.893828    28.695647    5508.7007 
  105500      105.496    210.79656    8.8009729   -444.33256   -435.53159      38572.7     105410.8    105529.93   -95222.623    14.888552    12.893863    28.695472    5508.6971 
  106000      105.996    236.38694    9.8693976   -445.39148   -435.52208    37477.958    105403.38    105325.16   -98294.672    14.888592    12.893898    28.695297    5508.6935 
  106500      106.496    227.90751    9.5153725   -445.02772   -435.51234    38001.233    107822.87    106820.58   -100639.75    14.888633    12.893934    28.695123    5508.6899 
  107000      106.996    225.09674      9.39802   -444.90031   -435.50229    37517.973    105616.43       106483   -99545.508    14.888673    12.893969    28.694948    5508.6863 
  107500      107.496    224.65447    9.3795546   -444.87133   -435.49178    37765.204    104930.02     105701.1   -97335.502    14.888714    12.894004    28.694773    5508.6827 
  108000      107.996    223.33778    9.3245818   -444.80687   -435.48229    37907.035    106930.24    105397.83   -98606.963    14.888754    12.894039    28.694598    5508.6791 
  108500      108.496    234.43709    9.7879894   -445.25984   -435.47185    37768.599     104134.6    102799.03   -93627.839    14.888795    12.894074    28.694423    5508.6755 
  109000      108.996    219.16433    9.1503359   -444.61163   -435.46129    38032.714    106567.92    107783.49   -100253.26    14.888835    12.894109    28.694248    5508.6719 
  109500      109.496    220.30152    9.1978145   -444.64911   -435.45129    37905.456    108664.07    105962.78   -100910.48    14.888876    12.894144    28.694073    5508.6683 
  110000      109.996    219.48203    9.1635999   -444.60448   -435.44088    38287.671    107047.47    109263.39   -101447.85    14.888916    12.894179    28.693898    5508.6648 
  110500      110.496    225.35628    9.4088559   -444.83984   -435.43098     37678.28    104847.63    106608.62   -98421.407    14.888957    12.894214    28.693723    5508.6612 
  111000      110.996    228.44486    9.5378073   -444.95833   -435.42053    37664.481    106287.33    104562.87   -97856.755    14.888997    12.894249    28.693548    5508.6576 
  111500      111.496     226.5698    9.4595217   -444.86951   -435.40998    37912.831    103859.29    105207.54   -95328.336    14.889038    12.894284    28.693373     5508.654 
  112000      111.996     218.2155    9.1107211   -444.51023   -435.39951    37774.412     107451.4    105887.03    -100015.2    14.889079     12.89432    28.693198    5508.6504 
  112500      112.496    222.76644    9.3007276   -444.69033    -435.3896    37834.968    105945.43    106958.54   -99399.068    14.889119    12.894355    28.693023    5508.6468 
  113000      112.996    225.82643    9.4284854   -444.80754   -435.37905    37920.223    104743.19    104939.21   -95921.731     14.88916     12.89439    28.692848    5508.6432 
  113500      113.496    213.15132    8.8992866   -444.26753   -435.36824    38076.465    107159.58    107520.37   -100450.55      14.8892    12.894425    28.692674    5508.6396 
  114000      113.996    217.32681    9.0736174   -444.43141    -435.3578    38424.939    104865.73    105561.15   -95152.066    14.889241     12.89446    28.692499     5508.636 
  114500      114.496    232.95552    9.7261321   -445.07377   -435.34764    38152.867    107488.07    107187.97   -100217.44    14.889281    12.894495    28.692324    5508.6324 
  115000      114.996    225.03441    9.3954178   -444.73203   -435.33661    38176.674    105684.02    104128.69   -95282.688    14.889322     12.89453    28.692149    5508.6288 
  115500      115.496    239.96467    10.018772   -445.34544   -435.32667    37285.032    104207.15    104453.77   -96805.829    14.889362    12.894565    28.691974    5508.6252 
  116000      115.996    228.56223     9.542708   -444.85838   -435.31567    38067.032    107051.04    109444.19   -102294.14    14.889403      12.8946    28.691799    5508.6216 
  116500      116.496      227.892     9.514725   -444.81972   -435.30499    38073.855    104048.66    105710.83   -95537.919    14.889443    12.894635    28.691624     5508.618 
  117000      116.996    215.85924    9.0123448   -444.30644    -435.2941    38447.734    107059.88    106711.15   -98427.833    14.889484    12.894671    28.691449    5508.6144 
  117500      117.496    222.07585    9.2718949   -444.55505   -435.28315    38208.208    105971.18    107747.19    -99093.75    14.889524    12.894706    28.691274    5508.6108 
  118000      117.996    222.24096    9.2787882   -444.55131   -435.27252    38078.438    106366.78    106140.04   -98271.505    14.889565    12.894741    28.691099    5508.6072 
  118500      118.496    226.59669    9.4606443    -444.7225   -435.26186    38046.265    106353.49    107310.53   -99525.224    14.889605    12.894776    28.690924    5508.6036 
  119000      118.996    213.99584    8.9345459   -444.18506   -435.25051    38246.307    107113.69    107009.15   -99383.925    14.889646    12.894811    28.690749       5508.6 
  119500      119.496    221.47698    9.2468913    -444.4871   -435.24021    38027.613    105151.44    104300.84   -95369.442    14.889686    12.894846    28.690574    5508.5964 
  120000      119.996    238.68625     9.965396   -445.19547   -435.23007    37427.565    104203.22    103561.54   -95482.065    14.889727    12.894881      28.6904    5508.5929 
  120500      120.496    220.01812    9.1859824   -444.40445   -435.21847    38005.674    108977.71    109396.36   -104357.04    14.889768    12.894916    28.690225    5508.5893 
  121000      120.996    223.28066    9.3221969   -444.52949    -435.2073    38392.567    106663.56     105543.3   -97029.158    14.889808    12.894951     28.69005    5508.5857 
  121500      121.496    221.97705    9.2677697   -444.46438   -435.19661    38201.773    106593.64    105153.45   -97141.776    14.889849    12.894986    28.689875    5508.5821 
  122000      121.996    225.14318    9.3999591   -444.58572   -435.18576    38244.815    106026.42    105521.29   -96813.266    14.889889    12.895022      28.6897    5508.5785 
  122500      122.496    236.15174    9.8595777   -445.03437    -435.1748    38183.108    103339.87    106097.17   -94887.719     14.88993    12.895057    28.689525    5508.5749 
  123000      122.996    225.01189    9.3944774   -444.55834   -435.16386    38134.136    109083.63    105615.41   -100296.63     14.88997    12.895092     28.68935    5508.5713 
  123500      123.496    234.27473    9.7812104    -444.9343   -435.15309    37872.215    104574.79    107035.53   -97993.676    14.890011    12.895127    28.689175    5508.5677 
  124000      123.996    220.39895    9.2018826   -444.34354   -435.14166    38069.371    105543.78    105882.13   -97217.794    14.890051    12.895162       28.689    5508.5641 
  124500      124.496     236.4463    9.8718758   -445.00265   -435.13077    38132.172    107642.73     107501.1   -100747.31    14.890092    12.895197    28.688825    5508.5605 
  125000      124.996    218.10184     9.105976   -444.22528   -435.11931    38272.676    104245.86    106391.75   -95819.585    14.890132    12.895232     28.68865    5508.5569 
  125500      125.496    246.72853     10.30117   -445.41055   -435.10938    37701.944    107299.76    106638.45   -100832.37    14.890173    12.895267    28.688475    5508.5533 
  126000      125.996    231.23576    9.6543305   -444.75194   -435.09761    37847.123    103912.16    105659.68   -96030.467    14.890213    12.895302      28.6883    5508.5497 
  126500      126.496    231.74565    9.6756187   -444.76214   -435.08652    38318.777    107406.37    107138.36   -99588.394    14.890254    12.895337    28.688126    5508.5461 
  127000      126.996    228.95254    9.5590035    -444.6341   -435.07509    38047.341     106039.7    104794.12   -96691.795    14.890294    12.895372    28.687951    5508.5425 
  127500      127.496    226.15052    9.4420165   -444.50549   -435.06347    38162.625    106023.49    108722.11   -100257.72    14.890335    12.895408    28.687776    5508.5389 
  128000      127.996    219.40016    9.1601821   -444.21251   -435.05233    38575.589    107478.57    107105.02    -98856.83    14.890375    12.895443    28.687601    5508.5352 
  128500      128.496    220.21005    9.1939956   -444.23559   -435.04159    38522.264    105984.58    107011.19   -97428.973    14.890416    12.895478    28.687426    5508.5316 
  129000      128.996    236.92682     9.891938    -444.9224   -435.03047    38072.358    106188.35     106857.4   -98828.681    14.890457    12.895513    28.687251     5508.528 
  129500      129.496    222.11646    9.2735902   -444.29256   -435.01897    38184.239    106660.81    105754.32   -97862.414    14.890497    12.895548    28.687076    5508.5244 
  130000      129.996    217.77635    9.0923864   -444.09945   -435.00706    38273.496    105598.57    106570.96    -97349.04    14.890538    12.895583    28.686901    5508.5208 
  130500      130.496    217.51546    9.0814939   -444.07729   -434.99579    38563.746    109311.92    105786.37    -99407.05    14.890578    12.895618    28.686726    5508.5172 
  131000      130.996    241.82199    10.096316   -445.08163   -434.98532    37796.657    106132.31    106814.76   -99557.093    14.890619    12.895653    28.686551    5508.5136 
  131500      131.496    228.47257    9.5389644    -444.5124   -434.97343    38154.244    106620.52    104891.83    -97049.62    14.890659    12.895688    28.686376      5508.51 
  132000      131.996    223.29576    9.3228274   -444.28487   -434.96204    37579.124    104558.34    104393.05   -96214.025      14.8907    12.895723    28.686201    5508.5064 
  132500      132.496    224.94807    9.3918129   -444.34284   -434.95103    38323.886    105074.14    106643.18   -96745.664     14.89074    12.895759    28.686026    5508.5028 
  133000      132.996    228.94275     9.558595   -444.49805   -434.93945    37965.032     107109.6    106862.99    -100077.5    14.890781    12.895794    28.685852    5508.4992 
  133500      133.496    223.15569    9.3169793   -444.24493   -434.92795    38005.079    106754.53    106537.52    -99276.81    14.890821    12.895829    28.685677    5508.4956 
  134000      133.996     229.3379    9.5750928   -444.49139   -434.91629    37816.516    105814.09    108021.82   -100386.37    14.890862    12.895864    28.685502     5508.492 
  134500      134.496    229.23925    9.5709743   -444.47616   -434.90518    38056.676    105760.85    105049.69   -96640.519    14.890902    12.895899    28.685327    5508.4884 
  135000      134.996    226.42864    9.4536283   -444.34709   -434.89347    38195.514    104656.92    104938.27   -95008.646    14.890943    12.895934    28.685152    5508.4848 
  135500      135.496    243.26663    10.156632   -445.03871   -434.88208    37604.174    104265.71    106100.59   -97553.784    14.890983    12.895969    28.684977    5508.4812 
  136000      135.996    231.13288    9.6500353    -444.5204   -434.87036    38191.571    107757.06    105834.08   -99016.429    14.891024    12.896004    28.684802    5508.4776 
  136500      136.496    231.36542    9.6597437   -444.51887   -434.85912    37654.903    104304.01    107451.98   -98791.287    14.891064    12.896039    28.684627     5508.474 
  137000      136.996     240.7276    10.050625   -444.89822   -434.84759    37920.098    104708.05    104577.06   -95524.822    14.891105    12.896074    28.684452    5508.4704 
  137500      137.496    227.29176    9.4896642   -444.32501   -434.83534    38452.575    107681.07    107897.87   -100221.21    14.891146     12.89611    28.684277    5508.4667 
  138000      137.996     237.8886    9.9320934   -444.75629   -434.82419    38338.891    105175.09    103633.22   -93791.639    14.891186    12.896145    28.684102    5508.4631 
  138500      138.496    224.35324    9.3669781   -444.17903   -434.81205    38230.109     104927.6    108090.02   -98327.299    14.891227     12.89618    28.683927    5508.4595 
  139000      138.996     239.0037    9.9786501   -444.77966   -434.80101    38110.939    107688.49    108421.47   -101777.14    14.891267    12.896215    28.683752    5508.4559 
  139500      139.496    229.69035     9.589808   -444.37909   -434.78928    38201.674    106995.05    106989.33   -99379.355    14.891308     12.89625    28.683578    5508.4523 
  140000      139.996    229.35986    9.5760099   -444.35376   -434.77775    38212.904     107033.1    104794.66    -97189.05    14.891348    12.896285    28.683403    5508.4487 
  140500      140.496    242.94456    10.143185   -444.90943   -434.76624    37787.145    109457.42    107080.89   -103176.87    14.891389     12.89632    28.683228    5508.4451 
  141000      140.996    223.14131    9.3163788   -444.07025   -434.75387    38400.115    106399.91     108687.3   -99886.862    14.891429    12.896355    28.683053    5508.4415 
  141500      141.496    236.96933    9.8937128   -444.63599   -434.74228     38327.66    109214.81    106248.63   -100480.46     14.89147     12.89639    28.682878    5508.4379 
  142000      141.996    248.40459    10.371147   -445.10233   -434.73118     37897.18    106528.78    104077.32   -96914.565     14.89151    12.896425    28.682703    5508.4343 
  142500      142.496    232.67496    9.7144185   -444.43344   -434.71902    38224.724    107854.22    108566.28   -101746.33    14.891551     12.89646    28.682528    5508.4307 
  143000      142.996    224.28591     9.364167   -444.07082   -434.70665     38385.99    106809.53    104092.46   -95744.028    14.891591    12.896496    28.682353     5508.427 
  143500      143.496    242.11053    10.108363   -444.80378   -434.69542    37837.039    106384.13    105708.54   -98581.556    14.891632    12.896531    28.682178    5508.4234 
  144000      143.996    240.25124    10.030736   -444.71424    -434.6835    38249.513    104843.44    104894.69   -94989.593    14.891672    12.896566    28.682003    5508.4198 
  144500      144.496     238.2339    9.9465102   -444.61822   -434.67171    38142.438    105203.96    103885.66   -94662.305    14.891713    12.896601    28.681828    5508.4162 
  145000      144.996    228.63254    9.5456433   -444.20529   -434.65965    38217.497    107232.05    106827.68    -99407.24    14.891753    12.896636    28.681653    5508.4126 
  145500      145.496    220.25372    9.1958191   -443.84318   -434.64736    38733.068    106659.65    106755.88   -97216.335    14.891794    12.896671    28.681478     5508.409 
  146000      145.996    226.69892    9.4649125   -444.10064   -434.63572    37955.574    106402.84    107166.13   -99702.254    14.891835    12.896706    28.681304    5508.4054 
  146500      146.496    231.59754    9.6694353   -444.29348   -434.62405    38155.127    106688.44    105800.71   -98023.769    14.891875    12.896741    28.681129    5508.4018 
  147000      146.996    240.22886    10.029802   -444.64193   -434.61212    38332.661    105509.36    105254.66   -95766.038    14.891916    12.896776    28.680954    5508.3981 
  147500      147.496    233.57885    9.7521568   -444.35211   -434.59996    38230.363    104962.73    107380.13   -97651.776    14.891956    12.896811    28.680779    5508.3945 
  148000      147.996    238.47636    9.9566329   -444.54498   -434.58834    38359.732    104661.17    105987.17   -95569.141    14.891997    12.896847    28.680604    5508.3909 
  148500      148.496    236.54158     9.875854   -444.45208   -434.57623     38353.27    106893.75    106604.93   -98438.871    14.892037    12.896882    28.680429    5508.3873 
  149000      148.996    228.78069    9.5518286   -444.11623    -434.5644    38355.805    106488.61    105812.34   -97233.538    14.892078    12.896917    28.680254    5508.3837 
  149500      149.496    245.01456    10.229609   -444.78248   -434.55287    38343.497    108480.54    107002.11   -100452.16    14.892118    12.896952    28.680079    5508.3801 
  150000      149.996    241.06276    10.064618   -444.60499   -434.54037    38301.274    106178.56    104274.53   -95549.265    14.892159    12.896987    28.679904    5508.3765 
  150500      150.496    240.45277     10.03915   -444.56745    -434.5283    38417.882    106785.85    107595.72   -99127.923    14.892199    12.897022    28.679729    5508.3728 
  151000      150.996    240.31369    10.033343   -444.54931   -434.51597    38148.439    104508.65    109716.92   -99780.256     14.89224    12.897057    28.679554    5508.3692 
  151500      151.496    236.39141    9.8695839   -444.37368   -434.50409    38148.041    105864.85    105833.66   -97254.383     14.89228    12.897092    28.679379    5508.3656 
  152000      151.996    236.11212    9.8579234    -444.3498   -434.49188    38078.602    104931.62    108292.88   -98988.695    14.892321    12.897127    28.679204     5508.362 
  152500      152.496     225.9497    9.4336321   -443.91325   -434.47962    38582.081    107246.23    105506.32   -97006.312    14.892361    12.897162    28.679029    5508.3584 
  153000      152.996    245.58035    10.253232   -444.72127   -434.46804    37659.681    106225.86     106433.8   -99680.618    14.892402    12.897198    28.678855    5508.3548 
  153500      153.496    246.76799    10.302817   -444.75847   -434.45566    37961.087    104523.83    106438.76   -97079.322    14.892442    12.897233     28.67868    5508.3511 
  154000      153.996    245.69595    10.258058   -444.70184   -434.44378    38308.521    106382.25    104390.53    -95847.22    14.892483    12.897268    28.678505    5508.3475 
  154500      154.496    257.14862    10.736219   -445.16757   -434.43135    37755.621    103738.73    106155.51   -96627.384    14.892524    12.897303     28.67833    5508.3439 
  155000      154.996    252.10566     10.52567   -444.94459   -434.41892    38164.296    109632.81    105687.47   -100827.39    14.892564    12.897338    28.678155    5508.3403 
  155500      155.496    247.76147    10.344296   -444.75093   -434.40664    38328.613    104320.73    105722.47   -95057.353    14.892605    12.897373     28.67798    5508.3367 
  156000      155.996    246.35204    10.285451   -444.67975    -434.3943    37981.175    107504.63    105144.45   -98705.562    14.892645    12.897408    28.677805    5508.3331 
  156500      156.496    243.45954    10.164686   -444.54647   -434.38178    38180.312    106234.83    104851.61    -96545.51    14.892686    12.897443     28.67763    5508.3294 
  157000      156.996    246.01891    10.271542   -444.64112   -434.36957    38360.879    106424.86    106446.04   -97788.266    14.892726    12.897478    28.677455    5508.3258 
  157500      157.496    259.96591    10.853844   -445.21131   -434.35746    37901.112    104631.88    106555.01   -97483.561    14.892767    12.897513     28.67728    5508.3222 
  158000      157.996    240.16836    10.027276   -444.37217    -434.3449    38251.329    107184.24       107131   -99561.254    14.892807    12.897549    28.677105    5508.3186 
  158500      158.496    247.36909    10.327914   -444.66065   -434.33273     38061.85    106126.28    105574.71   -97515.436    14.892848    12.897584     28.67693     5508.315 
  159000      158.996    243.54992    10.168459   -444.48822   -434.31976      38192.9    104044.67    108394.16   -97860.127    14.892888    12.897619    28.676755    5508.3113 
  159500      159.496    245.67363    10.257126    -444.5651   -434.30798    38344.743     107432.8    104833.43   -97231.999    14.892929    12.897654    28.676581    5508.3077 
  160000      159.996    246.23719    10.280655   -444.57632   -434.29566    37973.456    104913.06    106194.02   -97186.711    14.892969    12.897689    28.676406    5508.3041 
  160500      160.496    239.04068    9.9801938   -444.26341   -434.28322    38300.783    105107.31     106706.8    -96911.76     14.89301    12.897724    28.676231    5508.3005 
  161000      160.996     233.1826     9.735613   -444.00604   -434.27042    38702.127    104701.05    105688.12   -94282.788     14.89305    12.897759    28.676056    5508.2969 
  161500      161.496    245.02011    10.229841   -444.48809   -434.25825    38627.034    109599.36    106826.46   -100544.71    14.893091    12.897794    28.675881    5508.2932 
  162000      161.996     243.1785    10.152952   -444.39797   -434.24502    38961.789    109261.63     109926.3   -102302.57    14.893132    12.897829    28.675706    5508.2896 
  162500      162.496    231.31311    9.6575599   -443.89041   -434.23285    38254.863    105949.77    107922.24   -99107.425    14.893172    12.897864    28.675531     5508.286 
  163000      162.996    240.25633    10.030949   -444.25149   -434.22054    38465.688    108951.05    107968.97   -101522.96    14.893213    12.897899    28.675356    5508.2824 
  163500      163.496     240.0995    10.024401   -444.23248   -434.20808    38549.475    106415.02    106389.44   -97156.033    14.893253    12.897935    28.675181    5508.2788 
  164000      163.996     239.3063    9.9912838   -444.18684   -434.19555    38615.608    108438.03       107802    -100393.2    14.893294     12.89797    28.675006    5508.2751 
  164500      164.496     243.8371    10.180449   -444.36333   -434.18288    38475.889    107757.16    105766.18   -98095.669    14.893334    12.898005    28.674831    5508.2715 
  165000      164.996    241.12156    10.067073   -444.23753   -434.17046    38545.225    107848.09    108210.41   -100422.83    14.893375     12.89804    28.674656    5508.2679 
  165500      165.496      239.672    10.006552   -444.16449   -434.15794    38745.734    105723.25    104088.71   -93574.758    14.893415    12.898075    28.674481    5508.2643 
  166000      165.996    244.95535    10.227137   -444.37262   -434.14549    38402.802    108651.78    109189.32   -102632.69    14.893456     12.89811    28.674307    5508.2606 
  166500      166.496    245.88603    10.265994   -444.39856   -434.13257     38058.19    107157.19    104095.65   -97078.268    14.893496    12.898145    28.674132     5508.257 
  167000      166.996    239.22343     9.987824    -444.1076   -434.11978    38346.555    105628.67    107215.63   -97804.633    14.893537     12.89818    28.673957    5508.2534 
  167500      167.496     244.1488    10.193463   -444.30077   -434.10731    38339.102    107021.34    106820.78    -98824.81    14.893577    12.898215    28.673782    5508.2498 
  168000      167.996     238.3062    9.9495286    -444.0438   -434.09427    38593.079    108058.85    108944.04   -101223.66    14.893618     12.89825    28.673607    5508.2461 
  168500      168.496    231.38501    9.6605616   -443.74238   -434.08181    38809.576    106883.52    105531.44   -95986.229    14.893658    12.898286    28.673432    5508.2425 
  169000      168.996     234.5276     9.791768   -443.86052   -434.06875    38711.586    105840.77     105189.2   -94895.205    14.893699    12.898321    28.673257    5508.2389 
  169500      169.496     252.3102     10.53421   -444.59069   -434.05648    38332.587    108472.68    105512.12   -98987.035    14.893739    12.898356    28.673082    5508.2353 
  170000      169.996    240.53594    10.042622   -444.08595   -434.04333    38466.808    105344.79    106123.53   -96067.887     14.89378    12.898391    28.672907    5508.2316 
  170500      170.496     236.2554    9.8639054   -443.89448   -434.03058    38379.015    108067.86    106045.25    -98976.06    14.893821    12.898426    28.672732     5508.228 
  171000      170.996    237.26773    9.9061715   -443.92408    -434.0179    39027.938    105487.21    106607.64   -95011.045    14.893861    12.898461    28.672557    5508.2244 
  171500      171.496     246.7963    10.303999   -444.30897   -434.00497     38280.77    107452.31    107662.77   -100272.77    14.893902    12.898496    28.672382    5508.2208 
  172000      171.996    248.96211    10.394424   -444.38688   -433.99246    38412.656    107020.38    104591.65   -96374.067    14.893942    12.898531    28.672207    5508.2171 
  172500      172.496     239.1389    9.9842948   -443.96375   -433.97946    38415.719     106973.6    106351.05   -98077.495    14.893983    12.898566    28.672033    5508.2135 
  173000      172.996    248.54183    10.376877   -444.34311   -433.96624    38381.293    106379.51    105906.02   -97141.652    14.894023    12.898601    28.671858    5508.2099 
  173500      173.496    254.09433    10.608699   -444.56205   -433.95335    38507.794    104053.34    110267.04   -98796.997    14.894064    12.898637    28.671683    5508.2062 
  174000      173.996    259.51081    10.834843   -444.77548   -433.94064    38430.387    107282.45    104520.77   -96512.057    14.894104    12.898672    28.671508    5508.2026 
  174500      174.496    242.98247    10.144768   -444.07218   -433.92742    38435.696    107790.56    108258.06   -100741.53    14.894145    12.898707    28.671333     5508.199 
  175000      174.996    242.77214    10.135986   -444.05064   -433.91465    38429.513    105689.16    105878.39   -96279.013    14.894185    12.898742    28.671158    5508.1954 
  175500      175.496     242.9931    10.145211   -444.04703   -433.90182    38813.636    106923.79    107250.08   -97732.969    14.894226    12.898777    28.670983    5508.1917 
  176000      175.996    256.59541    10.713122   -444.60214   -433.88902    38258.387    108033.91     102988.9   -96247.644    14.894266    12.898812    28.670808    5508.1881 
  176500      176.496     246.4534    10.289683   -444.16533   -433.87565    38525.923    106392.24    108251.41   -99065.886    14.894307    12.898847    28.670633    5508.1845 
  177000      176.996    255.73186    10.677068      -444.54   -433.86293    38542.116    106383.98    105203.23   -95960.866    14.894347    12.898882    28.670458    5508.1808 
  177500      177.496    248.83706    10.389203   -444.23906   -433.84985    38596.282    104302.04    106105.47   -94618.663    14.894388    12.898917    28.670283    5508.1772 
  178000      177.996    246.91983    10.309156   -444.14567   -433.83651    38691.911    109398.17    106015.92   -99338.348    14.894428    12.898952    28.670108    5508.1736 
  178500      178.496    234.58308    9.7940847   -443.61718    -433.8231     38818.74    106570.82    106503.44   -96618.035    14.894469    12.898987    28.669933    5508.1699 
  179000      178.996    247.03855    10.314113   -444.12442    -433.8103    38545.339    105538.71    106597.53    -96500.22     14.89451    12.899023    28.669759    5508.1663 
  179500      179.496    233.65804     9.755463   -443.55208   -433.79662    38741.694    107938.94    106315.37   -98029.234     14.89455    12.899058    28.669584    5508.1627 
  180000      179.996    257.85969    10.765907   -444.55058   -433.78467     38581.88    105907.82    106129.14   -96291.325    14.894591    12.899093    28.669409     5508.159 
  180500      180.496    242.24985     10.11418   -443.88498    -433.7708    38635.217    107359.76    108755.88   -100209.99    14.894631    12.899128    28.669234    5508.1554 
  181000      180.996     255.4723    10.666231   -444.42435   -433.75812    38291.443    104018.55    105323.95   -94468.168    14.894672    12.899163    28.669059    5508.1518 
  181500      181.496    258.02394    10.772764   -444.51797   -433.74521    38307.285    106399.25    106708.98   -98186.383    14.894712    12.899198    28.668884    5508.1482 
  182000      181.996       240.37    10.035694   -443.76704   -433.73135    38993.041    108731.84    106762.49    -98515.21    14.894753    12.899233    28.668709    5508.1445 
  182500      182.496    247.73968    10.343386   -444.06137   -433.71798    38648.574    105593.48     106188.6   -95836.358    14.894793    12.899268    28.668534    5508.1409 
  183000      182.996    249.58029    10.420233   -444.12526   -433.70503     38625.02    108732.16    106240.64   -99097.739    14.894834    12.899303    28.668359    5508.1373 
  183500      183.496     246.7357    10.301469   -443.99336   -433.69189    38566.932    105871.72     107716.7   -97887.618    14.894874    12.899338    28.668184    5508.1336 
  184000      183.996    230.87409    9.6392301   -443.31688   -433.67765    38852.752    107920.59     106491.7   -97854.035    14.894915    12.899374    28.668009      5508.13 
  184500      184.496    249.47228    10.415724   -444.08089   -433.66517    38818.627    106858.64    107594.42   -97997.183    14.894955    12.899409    28.667834    5508.1263 
  185000      184.996    268.36223    11.204399    -444.8568   -433.65241    37668.477    105306.66    106273.77   -98574.998    14.894996    12.899444    28.667659    5508.1227 
  185500      185.496    243.96664    10.185858   -443.82442   -433.63856    39016.928    106557.75    105479.02   -94985.991    14.895036    12.899479    28.667485    5508.1191 
  186000      185.996    250.26362    10.448763   -444.07377   -433.62501    39004.358    105706.58    109946.07    -98639.58    14.895077    12.899514     28.66731    5508.1154 
  186500      186.496    244.08886     10.19096   -443.80264   -433.61168    39327.645     106295.5     107845.9   -96158.465    14.895117    12.899549    28.667135    5508.1118 
  187000      186.996    247.39526    10.329006   -443.92725   -433.59824    38415.371    105044.24    105470.17   -95268.303    14.895158    12.899584     28.66696    5508.1082 
  187500      187.496    252.53761    10.543705   -444.12882   -433.58512    38502.631    106630.28    106039.75   -97162.141    14.895199    12.899619    28.666785    5508.1045 
  188000      187.996    252.61129    10.546781   -444.11839   -433.57161    38649.397    106208.26    108769.65   -99029.719    14.895239    12.899654     28.66661    5508.1009 
  188500      188.496    260.03072     10.85655   -444.41508   -433.55853    38424.627    106957.86    104256.19   -95940.168     14.89528    12.899689    28.666435    5508.0973 
  189000      188.996    246.61961    10.296622   -443.84145   -433.54482    38576.204    105683.84    108499.54   -98454.761     14.89532    12.899725     28.66626    5508.0936 
  189500      189.496    262.55166    10.961801   -444.49297   -433.53117    38812.746    106310.88    106526.58    -96399.22    14.895361     12.89976    28.666085      5508.09 
  190000      189.996    239.68935    10.007277   -443.52489   -433.51762    39022.496    109526.19     107587.3      -100046    14.895401    12.899795     28.66591    5508.0864 
  190500      190.496    244.71921    10.217278   -443.72131   -433.50403    38679.251    106983.23    106170.38   -97115.859    14.895442     12.89983    28.665735    5508.0827 
  191000      190.996    263.49118    11.001027   -444.49205   -433.49102     38539.55     108377.8    108505.61   -101264.77    14.895482    12.899865     28.66556    5508.0791 
  191500      191.496    259.10045     10.81771   -444.29485   -433.47714    38595.173    108217.18    105804.52   -98236.179    14.895523      12.8999    28.665385    5508.0754 
  192000      191.996      261.865    10.933133   -444.39669   -433.46356    38547.808    105183.25    107755.26   -97295.089    14.895563    12.899935     28.66521    5508.0718 
  192500      192.496    257.24438    10.740217   -444.19048   -433.45026     38506.07     105847.8    106922.38   -97251.972    14.895604     12.89997    28.665036    5508.0682 
  193000      192.996    261.98758     10.93825    -444.3752   -433.43695    38502.423    107264.49    107398.44   -99155.658    14.895644    12.900005    28.664861    5508.0645 
  193500      193.496    254.89528     10.64214   -444.06499   -433.42285    38796.399    107827.71    106002.63   -97441.141    14.895685     12.90004    28.664686    5508.0609 
  194000      193.996     245.1462    10.235105   -443.64417   -433.40907    38674.907    107573.06    108516.94   -100065.29    14.895725    12.900075    28.664511    5508.0572 
  194500      194.496     263.3751    10.996181   -444.39235   -433.39617    38575.154    105558.45    106602.13   -96435.119    14.895766    12.900111    28.664336    5508.0536 
  195000      194.996    248.63889    10.380929   -443.76259   -433.38166    39666.543    108397.64    106856.29   -96254.301    14.895806    12.900146    28.664161      5508.05 
  195500      195.496    268.75039    11.220605   -444.58969   -433.36908    38355.014    105974.83    106454.86   -97364.652    14.895847    12.900181    28.663986    5508.0463 
  196000      195.996    259.63699    10.840111   -444.19494   -433.35482    38393.779    106378.59    104501.27   -95698.523    14.895888    12.900216    28.663811    5508.0427 
  196500      196.496    259.45119    10.832354   -444.17375    -433.3414    38704.406    106217.35    108522.92    -98627.05    14.895928    12.900251    28.663636     5508.039 
  197000      196.996    260.85784    10.891083   -444.21858    -433.3275     38539.44    106936.93    103990.23   -95308.842    14.895969    12.900286    28.663461    5508.0354 
  197500      197.496    266.64929    11.132881   -444.44698    -433.3141    38373.933    105578.05     110620.2   -101076.45    14.896009    12.900321    28.663286    5508.0318 
  198000      197.996    247.41963    10.330024   -443.62953   -433.29951    39464.908    107193.36    105126.11   -93924.751     14.89605    12.900356    28.663111    5508.0281 
  198500      198.496    255.18011    10.654032   -443.94023    -433.2862    38848.297    106888.33    107969.84   -98313.289     14.89609    12.900391    28.662936    5508.0245 
  199000      198.996     251.6299    10.505807   -443.77816   -433.27235    38914.876    108196.87    105996.69   -97448.929    14.896131    12.900426    28.662762    5508.0208 
  199500      199.496    254.06179     10.60734   -443.86541   -433.25807    38535.838    105653.47    107319.99   -97365.943    14.896171    12.900462    28.662587    5508.0172 
  200000      199.996    256.02577    10.689339   -443.93443   -433.24509    38746.761    107985.98    108810.82   -100556.51    14.896212    12.900497    28.662412    5508.0135 
  200500      200.496    259.55322    10.836613   -444.06814   -433.23153    38855.369    105284.72    106499.99   -95218.603    14.896252    12.900532    28.662237    5508.0099 
  201000      200.996    274.35584    11.454638   -444.67254    -433.2179    38878.917    109070.26    105392.69   -97826.194    14.896293    12.900567    28.662062    5508.0063 
  201500      201.496    258.77249    10.804017   -444.00755   -433.20353     38834.27    104703.81    106326.56   -94527.556    14.896333    12.900602    28.661887    5508.0026 
  202000      201.996    268.13813    11.195042   -444.38457   -433.18953    38102.772    105170.99    107461.28    -98323.96    14.896374    12.900637    28.661712     5507.999 
  202500      202.496    264.25842     11.03306   -444.20902   -433.17596    38851.099    108886.98    106676.13   -99009.818    14.896414    12.900672    28.661537    5507.9953 
  203000      202.996    256.90239    10.725939    -443.8876   -433.16166    38801.916    107348.64    109862.69   -100805.57    14.896455    12.900707    28.661362    5507.9917 
  203500      203.496    256.68869    10.717017   -443.86462    -433.1476    38524.424     105418.8    105598.35    -95443.88    14.896495    12.900742    28.661187     5507.988 
  204000      203.996    246.38665    10.286895   -443.42026   -433.13337    39151.047    107481.76    107530.44   -97559.056    14.896536    12.900777    28.661012    5507.9844 
  204500      204.496    260.19927    10.863587   -443.98371   -433.12013    38600.819    108344.26    107049.37   -99591.168    14.896577    12.900813    28.660837    5507.9807 
  205000      204.996    264.13708    11.027994   -444.13403   -433.10603    38993.572    105743.35    105344.37   -94107.007    14.896617    12.900848    28.660662    5507.9771 
  205500      205.496    280.95833    11.730299     -444.823    -433.0927    38399.586    107919.13    106253.28   -98973.653    14.896658    12.900883    28.660488    5507.9734 
  206000      205.996    252.17383    10.528517   -443.60629   -433.07777    38794.474    105860.33    105746.78   -95223.689    14.896698    12.900918    28.660313    5507.9698 
  206500      206.496    256.93316    10.727223   -443.79102    -433.0638    38509.825    106858.92     106914.9   -98244.343    14.896739    12.900953    28.660138    5507.9662 
  207000      206.996    260.75153    10.886644   -443.93678   -433.05014    38683.912    107791.48    109215.08   -100954.83    14.896779    12.900988    28.659963    5507.9625 
  207500      207.496    255.64878    10.673599   -443.70965   -433.03605    38447.025    106973.34    107487.36   -99119.629     14.89682    12.901023    28.659788    5507.9589 
  208000      207.996    257.45542    10.749028   -443.77103   -433.02201    39019.201    109932.31    106211.08   -99085.787     14.89686    12.901058    28.659613    5507.9552 
  208500      208.496    274.64069    11.466531   -444.47495   -433.00842    38384.827    106120.15    105995.71   -96961.375    14.896901    12.901093    28.659438    5507.9516 
  209000      208.996    251.68151    10.507962   -443.50196   -432.99399    39256.115    104368.37    106467.12   -93067.142    14.896941    12.901128    28.659263    5507.9479 
  209500      209.496    253.66325    10.590701   -443.57037   -432.97967    38709.112    105804.75    106075.27   -95752.684    14.896982    12.901164    28.659088    5507.9443 
  210000      209.996    270.92086    11.311224   -444.27682    -432.9656    38430.661    110586.09    107299.46   -102593.56    14.897022    12.901199    28.658913    5507.9406 
  210500      210.496    268.37307    11.204851    -444.1569   -432.95205    38495.326     104140.2    104701.74   -93355.968    14.897063    12.901234    28.658738     5507.937 
  211000      210.996    263.12818    10.985872   -443.92307   -432.93719    38448.216    107359.05    107219.97   -99234.371    14.897103    12.901269    28.658563    5507.9333 
  211500      211.496    263.03616     10.98203    -443.9054   -432.92337    39058.699    108028.65    108889.67   -99742.222    14.897144    12.901304    28.658388    5507.9297 
  212000      211.996    260.10572    10.859681   -443.76887   -432.90919    39201.017     108569.1    105853.62   -96819.671    14.897185    12.901339    28.658214     5507.926 
[...]
 9948500     9948.496    377.16332    15.746956    -471.7368   -455.98985    27205.915    21273.377    21092.215    39252.154    15.686425    13.584785    25.251919    5381.1007 
 9949000     9948.996    374.12495    15.620101   -471.61058   -455.99048    27930.588    22351.182    23060.534    38380.049    15.686466     13.58482    25.251744    5381.0912 
 9949500     9949.496    397.57019    16.598964   -472.59085   -455.99189    27459.389      23923.2    20312.451    38142.518    15.686506    13.584855    25.251569    5381.0818 
 9950000     9949.996    381.31637     15.92035   -471.91301   -455.99266      27851.3    22076.983    21106.388    40370.531    15.686547     13.58489    25.251394    5381.0723 
 9950500     9950.496    392.44677    16.385056   -472.37905   -455.99399    27584.972    21749.314    22243.443    38762.158    15.686587    13.584925    25.251219    5381.0628 
 9951000     9950.996    372.08397    15.534888   -471.52964   -455.99475    28478.974    22968.616    21891.883    40576.421    15.686628     13.58496    25.251044    5381.0534 
 9951500     9951.496    386.61637    16.141631   -472.13789   -455.99626     27670.95    21920.105    21417.941    39674.804    15.686668    13.584995    25.250869    5381.0439 
 9952000     9951.996    367.91069    15.360649   -471.35738   -455.99673    27988.759    23009.189    22702.972    38254.116    15.686709     13.58503    25.250694    5381.0344 
 9952500     9952.496    380.99452    15.906912   -471.90505   -455.99814    27841.623    23781.188    21837.344    37906.337    15.686749    13.585065    25.250519    5381.0249 
 9953000     9952.996    353.57263     14.76202   -470.76016   -455.99814    28346.075    21367.001    23987.987    39683.236     15.68679    13.585101    25.250344    5381.0155 
 9953500     9953.496    372.24803    15.541737   -471.54181   -456.00008    27789.608    22192.116    21668.246    39508.462     15.68683    13.585136    25.250169     5381.006 
 9954000     9953.996    376.99932    15.740109   -471.74083   -456.00072      28031.4    23974.852    21505.312    38614.036    15.686871    13.585171    25.249994    5380.9965 
 9954500     9954.496    379.31942    15.836975   -471.83874   -456.00177    27539.676    21791.227    22123.774    38704.026    15.686911    13.585206    25.249819    5380.9871 
 9955000     9954.996    374.60795    15.640266   -471.64301   -456.00274    28130.982    20583.589    22295.994    41513.362    15.686952    13.585241    25.249645    5380.9776 
 9955500     9955.496    381.58322    15.931491   -471.93508   -456.00359    27545.909    22413.458    21725.867    38498.401    15.686993    13.585276     25.24947    5380.9681 
 9956000     9955.996    410.14445    17.123952   -473.12919   -456.00524    27236.122    21210.864    23438.471    37059.031    15.687033    13.585311    25.249295    5380.9586 
 9956500     9956.496    389.07861    16.244432   -472.24994   -456.00551    27331.281    22375.296     20289.53    39329.017    15.687074    13.585346     25.24912    5380.9492 
 9957000     9956.996    367.28707    15.334612   -471.34095   -456.00634    28239.788    22902.471    22178.837    39638.058    15.687114    13.585381    25.248945    5380.9397 
 9957500     9957.496    365.86411    15.275202   -471.28259   -456.00739    27480.065    18523.442    26356.417    37560.336    15.687155    13.585416     25.24877    5380.9302 
 9958000     9957.996     401.0553     16.74447   -472.75278   -456.00831    27005.837    19241.607    22206.657    39569.245    15.687195    13.585452    25.248595    5380.9207 
 9958500     9958.496    380.81109    15.899254   -471.90834   -456.00909    27943.167    23457.858    19949.922    40421.721    15.687236    13.585487     25.24842    5380.9113 
 9959000     9958.996    384.14605    16.038492   -472.04874   -456.01025    27594.095     22534.34    23529.999    36717.946    15.687276    13.585522    25.248245    5380.9018 
 9959500     9959.496    386.26284     16.12687   -472.13785   -456.01098    27092.459    20005.208    22293.373    38978.796    15.687317    13.585557     25.24807    5380.8923 
 9960000     9959.996    366.36546    15.296134    -471.3075   -456.01137    28176.963    22837.253    21022.851    40670.785    15.687357    13.585592    25.247895    5380.8828 
 9960500     9960.496    367.47535    15.342473   -471.35478   -456.01231    28130.641    21451.828    21241.949    41698.147    15.687398    13.585627     25.24772    5380.8733 
 9961000     9960.996    373.52649    15.595115   -471.60825   -456.01314    28362.624    23265.615     23669.27    38152.986    15.687438    13.585662    25.247545    5380.8639 
 9961500     9961.496    389.55922    16.264498   -472.27829    -456.0138    27657.852    23216.632    22451.878    37305.045    15.687479    13.585697    25.247371    5380.8544 
 9962000     9961.996     376.1607    15.705095   -471.71972   -456.01462    28525.348    23750.778    21316.752    40508.514    15.687519    13.585732    25.247196    5380.8449 
 9962500     9962.496    385.65321    16.101418   -472.11679   -456.01537    27871.143    21626.051    22378.105    39609.275     15.68756    13.585767    25.247021    5380.8354 
 9963000     9962.996    389.76102    16.272923   -472.28905   -456.01613    27498.981    20098.874    23097.624    39300.446      15.6876    13.585803    25.246846     5380.826 
 9963500     9963.496    375.04107     15.65835   -471.67489   -456.01654    28074.544    20708.609    21692.355    41822.668    15.687641    13.585838    25.246671    5380.8165 
 9964000     9963.996     371.0545    15.491906    -471.5093    -456.0174    27626.782    21956.579    20815.187    40108.579    15.687682    13.585873    25.246496     5380.807 
 9964500     9964.496    374.41578    15.632243   -471.65027   -456.01802     28377.79    20831.641    25840.529    38461.201    15.687722    13.585908    25.246321    5380.7975 
 9965000     9964.996    370.47666    15.467781   -471.48629   -456.01851    28520.175      22725.1    24162.327    38673.097    15.687763    13.585943    25.246146     5380.788 
 9965500     9965.496    381.21157    15.915974   -471.93537   -456.01939    28481.372    22508.071    22803.615     40132.43    15.687803    13.585978    25.245971    5380.7786 
 9966000     9965.996    389.68484    16.269742   -472.29008   -456.02034    27497.275    21020.824    20530.695    40940.305    15.687844    13.586013    25.245796    5380.7691 
 9966500     9966.496    372.27057    15.542679   -471.56334   -456.02066    27922.882    21138.374    23684.934    38945.339    15.687884    13.586048    25.245621    5380.7596 
 9967000     9966.996    392.62043    16.392306   -472.41393   -456.02163    27569.236    20879.363    21933.535    39894.811    15.687925    13.586083    25.245446    5380.7501 
 9967500     9967.496    404.16151    16.874158   -472.89691   -456.02275    27065.848    22911.036    19144.178    39142.332    15.687965    13.586118    25.245271    5380.7406 
 9968000     9967.996    384.18612    16.040165   -472.06296    -456.0228    27743.464     21576.66     23278.51    38375.221    15.688006    13.586154    25.245097    5380.7312 
 9968500     9968.496    356.35816    14.878319   -470.90114   -456.02282    28911.684    24527.016    21692.742    40515.293    15.688046    13.586189    25.244922    5380.7217 
 9969000     9968.996    380.11126    15.870035   -471.89377   -456.02373    28049.327    23645.344    21385.254    39117.384    15.688087    13.586224    25.244747    5380.7122 
 9969500     9969.496    369.35161    15.420809   -471.44475   -456.02394    28014.934    22593.457    20482.351    40968.994    15.688127    13.586259    25.244572    5380.7027 
 9970000     9969.996    369.20825    15.414824   -471.43983   -456.02501    28201.904    23191.004    22860.661    38554.048    15.688168    13.586294    25.244397    5380.6932 
 9970500     9970.496    398.61373    16.642533   -472.66823    -456.0257    27056.297    22254.038    20484.318    38430.536    15.688208    13.586329    25.244222    5380.6837 
 9971000     9970.996    386.88705    16.152932   -472.17916   -456.02623    27524.176    22120.446    19656.002     40796.08    15.688249    13.586364    25.244047    5380.6743 
 9971500     9971.496    378.80158    15.815355   -471.84154   -456.02618    27906.727    21867.425    24140.057    37712.698    15.688289    13.586399    25.243872    5380.6648 
 9972000     9971.996    380.24027    15.875422   -471.90202   -456.02659    28275.011    22130.797    22275.727    40418.509     15.68833    13.586434    25.243697    5380.6553 
 9972500     9972.496    382.01495    15.949516    -471.9767   -456.02719    27915.933    20143.463    22203.786    41400.548    15.688371    13.586469    25.243522    5380.6458 
 9973000     9972.996    393.78013    16.440725   -472.46884   -456.02812    27235.159    22272.668    20493.708      38939.1    15.688411    13.586504    25.243347    5380.6363 
 9973500     9973.496    371.57211    15.513517    -471.5415   -456.02798    28175.735    20776.144    25026.438    38724.623    15.688452     13.58654    25.243172    5380.6268 
 9974000     9973.996    353.92814    14.776863    -470.8048   -456.02794    28977.115    25467.601    21146.075    40317.668    15.688492    13.586575    25.242997    5380.6173 
 9974500     9974.496    381.83965    15.942197   -471.97121   -456.02901    27720.252    22342.664    21469.923    39348.169    15.688533     13.58661    25.242823    5380.6079 
 9975000     9974.996    367.45139    15.341473   -471.37074   -456.02926    27811.391    20399.551    23182.792     39851.83    15.688573    13.586645    25.242648    5380.5984 
 9975500     9975.496    401.84223    16.777326   -472.80783    -456.0305     27186.95    21729.653    22423.402    37407.796    15.688614     13.58668    25.242473    5380.5889 
 9976000     9975.996    381.75303    15.938581   -471.96899   -456.03041    27707.233    21032.314    20259.061    41830.324    15.688654    13.586715    25.242298    5380.5794 
 9976500     9976.496    390.43117    16.300902   -472.33152   -456.03061    28004.471    23554.419    19923.902     40535.09    15.688695     13.58675    25.242123    5380.5699 
 9977000     9976.996    379.57029    15.847449   -471.87829   -456.03084    27904.279    23545.363    21676.682    38490.793    15.688735    13.586785    25.241948    5380.5604 
 9977500     9977.496    387.83886    16.192671   -472.22416   -456.03149     27668.65    21389.404    22214.039    39402.508    15.688776     13.58682    25.241773    5380.5509 
 9978000     9977.996     370.1119    15.452552   -471.48363   -456.03108    27923.999    21069.524    20964.057    41738.416    15.688816    13.586855    25.241598    5380.5414 
 9978500     9978.496     369.3685    15.421514    -471.4529   -456.03138    28276.257    22142.417    22803.386    39882.969    15.688857    13.586891    25.241423     5380.532 
 9979000     9978.996    384.73018     16.06288   -472.09454   -456.03166    28532.197    22688.496    22200.347    40707.747    15.688897    13.586926    25.241248    5380.5225 
 9979500     9979.496    382.59272    15.973639   -472.00611   -456.03247    28372.368    22510.775    22297.482    40308.849    15.688938    13.586961    25.241073     5380.513 
 9980000     9979.996    393.34651    16.422621   -472.45536   -456.03274     28239.08     21472.92    22299.776    40944.543    15.688978    13.586996    25.240898    5380.5035 
 9980500     9980.496    413.61814    17.268982   -473.30258    -456.0336    27229.021     21878.16     20605.05    39203.852    15.689019    13.587031    25.240723     5380.494 
 9981000     9980.996      404.764    16.899313   -472.93292   -456.03361    27173.075    22043.176    22781.631    36694.417     15.68906    13.587066    25.240549    5380.4845 
 9981500     9981.496    364.23538    15.207201    -471.2403    -456.0331    28154.133    23575.102    21246.605    39640.692      15.6891    13.587101    25.240374     5380.475 
 9982000     9981.996    380.11017     15.86999   -471.90341   -456.03342     27809.74    22646.729    22197.991    38584.499    15.689141    13.587136    25.240199    5380.4655 
 9982500     9982.496    380.30411    15.878087    -471.9117   -456.03361    27957.196    22648.139     21291.42    39932.028    15.689181    13.587171    25.240024     5380.456 
 9983000     9982.996    374.62073      15.6408   -471.67464   -456.03384     27984.97    19659.996    23492.225    40802.689    15.689222    13.587206    25.239849    5380.4465 
 9983500     9983.496    368.50087     15.38529   -471.41896   -456.03367     28116.72    20854.169    19329.591    44166.401    15.689262    13.587242    25.239674    5380.4371 
 9984000     9983.996    379.92458    15.862241    -471.8963   -456.03405    28028.809    23318.843    21059.545    39708.039    15.689303    13.587277    25.239499    5380.4276 
 9984500     9984.496    370.77679    15.480312   -471.51458   -456.03427    28266.205    22833.116     23006.06    38959.439    15.689343    13.587312    25.239324    5380.4181 
 9985000     9984.996    378.64627     15.80887    -471.8432   -456.03433    28574.738    21836.118    23389.322    40498.774    15.689384    13.587347    25.239149    5380.4086 
 9985500     9985.496    382.61762    15.974679   -472.00911   -456.03444    28287.178     24114.79    22695.735     38051.01    15.689424    13.587382    25.238974    5380.3991 
 9986000     9985.996     385.4387    16.092461   -472.12729   -456.03482    27643.442     22266.94    22448.209    38215.178    15.689465    13.587417    25.238799    5380.3896 
 9986500     9986.496    392.33375    16.380337   -472.41552   -456.03518    27054.505    19843.509    22310.506    39009.501    15.689505    13.587452    25.238624    5380.3801 
 9987000     9986.996    378.45268    15.800788   -471.83561   -456.03483    27310.027    21215.343    22625.433    38089.305    15.689546    13.587487    25.238449    5380.3706 
 9987500     9987.496    408.08069    17.037788   -473.07309   -456.03531    27144.197    22818.009    21055.559    37559.023    15.689586    13.587522    25.238274    5380.3611 
 9988000     9987.996     395.3372    16.505734   -472.54086   -456.03512    27601.402    22287.186    22165.761    38351.258    15.689627    13.587557      25.2381    5380.3516 
 9988500     9988.496    394.37555    16.465584    -472.5006   -456.03502    27543.061     22171.09    22405.182    38052.912    15.689667    13.587592    25.237925    5380.3421 
 9989000     9988.996    383.52781     16.01268   -472.04754   -456.03486    27603.066    23075.201    21177.787    38556.211    15.689708    13.587628     25.23775    5380.3326 
 9989500     9989.496    361.44614    15.090748   -471.12529   -456.03455    28432.964     20564.15     23625.02    41109.722    15.689749    13.587663    25.237575    5380.3231 
 9990000     9989.996    372.43528    15.549555   -471.58388   -456.03432    28620.477    21110.513    24060.259     40690.66    15.689789    13.587698      25.2374    5380.3136 
 9990500     9990.496     392.8845    16.403331   -472.43797   -456.03464    28170.846    23006.069    22538.231    38968.239     15.68983    13.587733    25.237225    5380.3041 
 9991000     9990.996      396.925    16.572026   -472.60693    -456.0349    27628.934    20867.369    22467.297    39552.137     15.68987    13.587768     25.23705    5380.2946 
 9991500     9991.496    361.40768    15.089142   -471.12298   -456.03383    28801.921    20551.099    23791.568    42063.095    15.689911    13.587803    25.236875    5380.2851 
 9992000     9991.996    394.02269    16.450852   -472.48537   -456.03452    27510.284     20766.24    20249.186    41515.426    15.689951    13.587838      25.2367    5380.2756 
 9992500     9992.496    369.50442    15.427189   -471.46074   -456.03356    28486.823    23511.648    22145.676    39803.146    15.689992    13.587873    25.236525    5380.2662 
 9993000     9992.996    370.92477     15.48649    -471.5199   -456.03341     28043.71    22382.022    23718.945    38030.163    15.690032    13.587908     25.23635    5380.2567 
 9993500     9993.496    392.68192    16.394873   -472.42863   -456.03376    27621.169    21744.017    21663.046    39456.443    15.690073    13.587943    25.236175    5380.2472 
 9994000     9993.996    386.54117    16.138491   -472.17191   -456.03342    28010.179    21600.814    21891.596    40538.128    15.690113    13.587979       25.236    5380.2377 
 9994500     9994.496    396.57297    16.557329   -472.59065   -456.03332    27674.707    22583.762    21482.075    38958.283    15.690154    13.588014    25.235826    5380.2282 
 9995000     9994.996    390.35032    16.297527   -472.33023   -456.03271    27954.238    19794.338    23772.175    40296.201    15.690194    13.588049    25.235651    5380.2187 
 9995500     9995.496    349.23263    14.580821   -470.61238   -456.03156      28859.7    21660.179    21982.901     42936.02    15.690235    13.588084    25.235476    5380.2092 
 9996000     9995.996    389.02119    16.242034   -472.27397   -456.03194    27820.445    19273.822    22417.424    41770.089    15.690275    13.588119    25.235301    5380.1997 
 9996500     9996.496    375.06384    15.659301    -471.6909    -456.0316    27700.971    22465.492    22840.725    37796.697    15.690316    13.588154    25.235126    5380.1902 
 9997000     9996.996    374.18861    15.622759   -471.65379   -456.03103    28211.685     22639.66    21075.156    40920.238    15.690356    13.588189    25.234951    5380.1807 
 9997500     9997.496    364.49711    15.218128   -471.24837   -456.03024     28897.88    23474.112    23811.368    39408.161    15.690397    13.588224    25.234776    5380.1712 
 9998000     9997.996    373.87802    15.609791   -471.64007   -456.03028    28531.015    23638.635    22845.234    39109.175    15.690438    13.588259    25.234601    5380.1617 
 9998500     9998.496    393.17234    16.415349   -472.44562   -456.03027    27681.947    20748.129    21107.107    41190.604    15.690478    13.588294    25.234426    5380.1522 
 9999000     9998.996     389.0171    16.241864   -472.27136    -456.0295    27864.582    19568.978    23072.786    40951.983    15.690519     13.58833    25.234251    5380.1427 
 9999500     9999.496      394.711    16.479589   -472.50909    -456.0295    27690.424    21227.287    23155.802    38688.183    15.690559    13.588365    25.234076    5380.1332 
10000000     9999.996    391.78552    16.357448   -472.38588   -456.02844    27124.046    20484.819     21026.27    39861.048      15.6906      13.5884    25.233901    5380.1237 
10000004        10000     390.1096    16.287476   -472.31603   -456.02855    27227.567    20691.595    21496.635     39494.47      15.6906      13.5884      25.2339    5380.1236 
Loop time of 38270.5 on 8 procs for 10000000 steps with 324 atoms

Performance: 22.576 ns/day, 1.063 hours/ns, 261.298 timesteps/s
99.9% CPU use with 8 MPI tasks x no OpenMP threads

MPI task timing breakdown:
Section |  min time  |  avg time  |  max time  |%varavg| %total
---------------------------------------------------------------
Pair    | 35412      | 36007      | 36595      | 231.2 | 94.08
Neigh   | 0.0075533  | 0.0078473  | 0.0081265  |   0.2 |  0.00
Comm    | 1393.8     | 1989.1     | 2595.5     | 996.4 |  5.20
Output  | 1.1765     | 1.2293     | 1.3314     |   3.9 |  0.00
Modify  | 132.16     | 157.31     | 201.36     | 196.1 |  0.41
Other   |            | 116.1      |            |       |  0.30

Nlocal:    40.5 ave 43 max 36 min
Histogram: 1 0 1 0 0 0 0 3 2 1
Nghost:    960.875 ave 970 max 955 min
Histogram: 1 0 3 1 1 0 0 1 0 1
Neighs:    2660.62 ave 2844 max 2382 min
Histogram: 1 1 0 0 0 1 2 0 2 1
FullNghs:  5321.25 ave 5671 max 4708 min
Histogram: 1 0 1 0 0 0 0 3 2 1

Total # of neighbors = 42570
Ave neighs/atom = 131.389
Neighbor list builds = 23
Dangerous builds = 0

write_restart   POSCAR_1x1x1.rest

#unfix    1
#undump   1
Total wall time: 10:37:50
