LAMMPS (7 Dec 2015)
#----------- Initialize Simulation ------------ restart01
#processors	2 2 2
units		metal
boundary	p p p     ## periodic boundary condition  on x y z axis ##
atom_style atomic
#atom_modify map array sort 0 0.0

read_data	POSCAR_1x1x1.lammps
  triclinic box = (0 0 0) to (15.2149 13.1765 28.7324) with tilt (-7.60743 0 0)
  2 by 2 by 7 MPI processor grid
  reading atoms ...
  324 atoms

#----------- Define Potential -----------------
pair_style meam
pair_coeff * * MgAlZn.library.meam Mg Al Zn MgAlZn.parameter.meam Mg Al Zn 	#1=Mg 2=Al 3=Zn	#atoms/mass

#----------- Neighbor List --------------------
neighbor 2.0 bin
neigh_modify delay 10 check yes

#--------------  Run a simulation (minimization) ---------------------------------------
minimize       1.0e-4   1.0e-6   100   1000          #結構優化的條件
WARNING: Resetting reneighboring criteria during minimization (../min.cpp:168)
Neighbor list info ...
  2 neighbor list requests
  update every 1 steps, delay 0 steps, check yes
  max neighbors/atom: 2000, page size: 100000
  master list distance cutoff = 8
  ghost atom cutoff = 8
  binsize = 4 -> bins = 6 4 8
Memory usage per processor = 8.65233 Mbytes
Step Temp E_pair E_mol TotEng Press 
       0            0   -536.76479            0   -536.76479    6658.0072 
      13            0   -551.07065            0   -551.07065    2346.7655 
Loop time of 0.0234077 on 28 procs for 13 steps with 324 atoms

90.4% CPU use with 28 MPI tasks x no OpenMP threads

Minimization stats:
  Stopping criterion = energy tolerance
  Energy initial, next-to-last, final = 
        -536.764785777      -551.03127903     -551.070653873
  Force two-norm initial, final = 22.6577 1.24643
  Force max component initial, final = 3.67125 0.447947
  Final line search alpha, max atom move = 0.293268 0.131369
  Iterations, force evaluations = 13 24

MPI task timing breakdown:
Section |  min time  |  avg time  |  max time  |%varavg| %total
---------------------------------------------------------------
Pair    | 0.018182   | 0.019252   | 0.021339   |   0.5 | 82.25
Neigh   | 0          | 0          | 0          |   0.0 |  0.00
Comm    | 0.001221   | 0.0031114  | 0.0042957  |   1.6 | 13.29
Output  | 0          | 0          | 0          |   0.0 |  0.00
Modify  | 0          | 0          | 0          |   0.0 |  0.00
Other   |            | 0.001044   |            |       |  4.46

Nlocal:    11.5714 ave 16 max 7 min
Histogram: 1 2 5 1 4 5 4 1 4 1
Nghost:    657.893 ave 706 max 620 min
Histogram: 7 5 0 0 4 4 0 0 3 5
Neighs:    721.893 ave 1047 max 426 min
Histogram: 1 4 4 1 4 5 3 3 2 1
FullNghs:  1443.79 ave 2018 max 888 min
Histogram: 2 1 5 1 4 5 4 1 4 1

Total # of neighbors = 40426
Ave neighs/atom = 124.772
Neighbor list builds = 0
Dangerous builds = 0
velocity all  create 393.0 4928459 #rot yes dist gaussian

#--------------  Run a simulation (Relaxation)  ----------------------------------------
fix  1  all  nvt   temp  393.0  393.0  100				#damping constant
#fix  2  all  npt   temp  393.0  393.0  50 iso 0.0 0.0 1000.0
#fix  2  all deform 1 x final 0 15.6906 y final 0 13.5884 z final 0 25.2339 xy final -7.8452 units lattice
#fix  3  all  npt   temp  393.0  393.0  50 z 0.0 0.0 1000.0

#variable b equal 1
#fix 2 all efield  0.0  0.0  v_b
#compute pot all pe/atom


#----------- Output --------------------------
thermo	 500
timestep  0.001		#1.0 fs
thermo_style	custom step time temp ke pe etotal press pxx pyy pzz lx ly lz vol

dump 1 all custom 10000 dump.eq id type x y z
dump_modify 1 sort  id

run        1000000	#10000	 ps
Neighbor list info ...
  2 neighbor list requests
  update every 1 steps, delay 10 steps, check yes
  max neighbors/atom: 2000, page size: 100000
  master list distance cutoff = 8
  ghost atom cutoff = 8
  binsize = 4 -> bins = 6 4 8
Memory usage per processor = 7.5428 Mbytes
Step Time Temp KinEng PotEng TotEng Press Pxx Pyy Pzz Lx Ly Lz Volume 
      13            0          393    16.408154   -551.07065    -534.6625    5389.3156    26755.882    35262.237   -45850.172      15.2149      13.1765      28.7324    5760.2466 
     500        0.487    201.66712    8.4198095   -543.07603   -534.65622    6515.4991    30994.035    40590.982    -52038.52      15.2149      13.1765      28.7324    5760.2466 
    1000        0.987     208.6755    8.7124165   -543.36885   -534.65644    6483.0031    30180.031    41517.572   -52248.594      15.2149      13.1765      28.7324    5760.2466 
    1500        1.487     209.7076    8.7555076   -543.41076   -534.65526    6484.7698    32810.301    38336.422   -51692.414      15.2149      13.1765      28.7324    5760.2466 
    2000        1.987    209.69629    8.7550356   -543.40973    -534.6547    5217.9104    26624.151    40148.922   -51119.341      15.2149      13.1765      28.7324    5760.2466 
    2500        2.487    215.01493    8.9770943   -543.63119    -534.6541    6651.1532     31422.41    39055.058   -50524.008      15.2149      13.1765      28.7324    5760.2466 
    3000        2.987    221.80287    9.2604977   -543.91326   -534.65277    6368.3272    28416.611    39901.315   -49212.945      15.2149      13.1765      28.7324    5760.2466 
    3500        3.487    211.51233    8.8308569   -543.48229   -534.65143    6681.8662    32173.325    42146.855   -54274.581      15.2149      13.1765      28.7324    5760.2466 
    4000        3.987    210.93057    8.8065681   -543.45602   -534.64945    7022.3289     31619.61    37555.036    -48107.66      15.2149      13.1765      28.7324    5760.2466 
    4500        4.487    208.09569    8.6882088   -543.33536   -534.64715    6913.4441    27304.007    41839.441   -48403.115      15.2149      13.1765      28.7324    5760.2466 
    5000        4.987    201.98747    8.4331843   -543.07846   -534.64527     7573.909    28700.882    40755.972   -46735.127      15.2149      13.1765      28.7324    5760.2466 
    5500        5.487    203.08402    8.4789663   -543.12249   -534.64352    5556.1255    27742.944    41537.006   -52611.574      15.2149      13.1765      28.7324    5760.2466 
    6000        5.987    204.47734    8.5371387   -543.17871   -534.64157    6264.6405    29858.686    39792.293   -50857.057      15.2149      13.1765      28.7324    5760.2466 
    6500        6.487    220.89707    9.2226793   -543.86191   -534.63923    6544.9359    28317.981    42915.659   -51598.833      15.2149      13.1765      28.7324    5760.2466 
    7000        6.987    212.32132     8.864633   -543.50002   -534.63538    5865.2024     32520.37    40761.738   -55686.501      15.2149      13.1765      28.7324    5760.2466 
    7500        7.487    212.39867    8.8678624   -543.50044   -534.63258    7084.0848    30419.811    42862.791   -52030.347      15.2149      13.1765      28.7324    5760.2466 
    8000        7.987    214.28463    8.9466035   -543.57565   -534.62905    6852.6764    31503.949    42266.747   -53212.667      15.2149      13.1765      28.7324    5760.2466 
    8500        8.487    211.61546    8.8351629   -543.46071   -534.62555    6905.1952    30283.733    42197.308   -51765.455      15.2149      13.1765      28.7324    5760.2466 
    9000        8.987    206.07458    8.6038253   -543.22639   -534.62257    7587.0254    30008.458    44202.349   -51449.731      15.2149      13.1765      28.7324    5760.2466 
    9500        9.487    206.65334    8.6279891   -543.24635   -534.61836    7019.0342    30933.311    42238.192     -52114.4      15.2149      13.1765      28.7324    5760.2466 
   10000        9.987    217.87113    9.0963435   -543.71112   -534.61478    7069.3856    29128.239    41262.719     -49182.8      15.2149      13.1765      28.7324    5760.2466 
   10500       10.487    194.36612    8.1149851   -542.72465   -534.60967    7533.6427    29530.832    44126.434   -51056.339      15.2149      13.1765      28.7324    5760.2466 
   11000       10.987     212.9881    8.8924721   -543.49794   -534.60546    7474.9944    30522.054    40514.604   -48611.675      15.2149      13.1765      28.7324    5760.2466 
   11500       11.487    211.89166    8.8466943   -543.44757   -534.60088    5191.8297    26631.576    43939.574   -54995.661      15.2149      13.1765      28.7324    5760.2466 
   12000       11.987    205.30711    8.5717827   -543.16719    -534.5954    7188.2054    30931.825    42564.407   -51931.616      15.2149      13.1765      28.7324    5760.2466 
   12500       12.487    220.29819    9.1976758    -543.7889   -534.59122    6580.2761    31148.003    44421.964   -55829.139      15.2149      13.1765      28.7324    5760.2466 
   13000       12.987    208.82592    8.7186966   -543.30395   -534.58525    6882.8189     29346.96    42820.578   -51519.081      15.2149      13.1765      28.7324    5760.2466 
   13500       13.487    210.85639    8.8034709   -543.38282   -534.57935    5976.7147    30366.958    40542.951   -52979.764      15.2149      13.1765      28.7324    5760.2466 
   14000       13.987    210.59997    8.7927651   -543.36637   -534.57361    7740.6589    32598.017    41406.114   -50782.155      15.2149      13.1765      28.7324    5760.2466 
   14500       14.487    225.40487    9.4108849    -543.9795   -534.56861    7191.8822    27116.587    43690.747   -49231.687      15.2149      13.1765      28.7324    5760.2466 
   15000       14.987    224.05887     9.354688   -543.91687   -534.56218    7024.7133    29710.396    46376.162   -55012.418      15.2149      13.1765      28.7324    5760.2466 
   15500       15.487    207.72232    8.6726201   -543.22677   -534.55415    5478.9194    29093.898    42989.035   -55646.175      15.2149      13.1765      28.7324    5760.2466 
   16000       15.987     216.3287    9.0319452   -543.58048   -534.54854    6471.7368    28378.605    41898.893   -50862.287      15.2149      13.1765      28.7324    5760.2466 
   16500       16.487    215.28543    8.9883876   -543.52998   -534.54159    7672.8719    30591.709     44136.05   -51709.143      15.2149      13.1765      28.7324    5760.2466 
   17000       16.987    214.37377     8.950325   -543.48557   -534.53524    5724.1753    29553.966    44230.027   -56611.466      15.2149      13.1765      28.7324    5760.2466 
   17500       17.487    213.47578     8.912833   -543.44158   -534.52874    7670.5823    28290.904    42442.684   -47721.841      15.2149      13.1765      28.7324    5760.2466 
   18000       17.987    220.37673    9.2009547   -543.72196     -534.521    6766.3204    30016.166    42312.299   -52029.504      15.2149      13.1765      28.7324    5760.2466 
   18500       18.487    209.84137    8.7610926   -543.27427   -534.51318    7983.9291    28293.328    43054.348   -47395.888      15.2149      13.1765      28.7324    5760.2466 
   19000       18.987    225.57237    9.4178781   -543.92365   -534.50577    6305.7112    29870.617    43302.528   -54256.011      15.2149      13.1765      28.7324    5760.2466 
   19500       19.487    219.89507    9.1808451   -543.67838   -534.49754    7324.4058    31562.583    40648.122   -50237.488      15.2149      13.1765      28.7324    5760.2466 
   20000       19.987    216.74544    9.0493448   -543.53886   -534.48952     5871.204    32205.473    40520.307   -55112.168      15.2149      13.1765      28.7324    5760.2466 
   20500       20.487    212.74932    8.8825025   -543.36348   -534.48098     6832.734    30006.602    43365.805   -52874.206      15.2149      13.1765      28.7324    5760.2466 
   21000       20.987    220.79585    9.2184533   -543.69136   -534.47291    6647.0241     28390.71    43972.584   -52422.222      15.2149      13.1765      28.7324    5760.2466 
   21500       21.487    223.42123    9.3280658   -543.79197    -534.4639    7221.6381     31120.87     41151.81   -50607.765      15.2149      13.1765      28.7324    5760.2466 
   22000       21.987     208.1229    8.6893446   -543.14316   -534.45382    6184.6522    26902.521    45087.777   -53436.341      15.2149      13.1765      28.7324    5760.2466 
   22500       22.487    215.45653    8.9955313   -543.44094   -534.44541    7194.4814    28282.305    44720.165   -51419.026      15.2149      13.1765      28.7324    5760.2466 
   23000       22.987    210.76545     8.799674   -543.23636   -534.43668    7128.7978    30928.733    41082.058   -50624.397      15.2149      13.1765      28.7324    5760.2466 
   23500       23.487    224.00641    9.3524978   -543.77909   -534.42659    6396.0018    30226.747    40547.716   -51586.459      15.2149      13.1765      28.7324    5760.2466 
   24000       23.987    201.32635    8.4055819   -542.82237   -534.41679    5784.8947    30787.497    39382.177   -52814.991      15.2149      13.1765      28.7324    5760.2466 
   24500       24.487    216.38451    9.0342755   -543.44205   -534.40777    6845.0768    29604.107    42986.603   -52055.479      15.2149      13.1765      28.7324    5760.2466 
   25000       24.987    216.81166    9.0521096   -543.44976   -534.39765    7032.1188    25908.597    44827.999    -49640.24      15.2149      13.1765      28.7324    5760.2466 
   25500       25.487    219.04808    9.1454823    -543.5342   -534.38871     7087.797    30243.781     45481.92   -54462.309      15.2149      13.1765      28.7324    5760.2466 
   26000       25.987    219.13666    9.1491805   -543.52695   -534.37777    7530.9499    29737.768    42261.916   -49406.834      15.2149      13.1765      28.7324    5760.2466 
   26500       26.487    217.14457    9.0660088    -543.4327   -534.36669    7022.8189    31644.281    41547.371   -52123.195      15.2149      13.1765      28.7324    5760.2466 
   27000       26.987    211.45626    8.8285159   -543.18427   -534.35576    6045.9363    28344.306    43647.204   -53853.701      15.2149      13.1765      28.7324    5760.2466 
   27500       27.487    212.49726    8.8719789   -543.21718    -534.3452    6729.9294    33337.874    40347.605   -53495.691      15.2149      13.1765      28.7324    5760.2466 
   28000       27.987    211.29148    8.8216363     -543.156   -534.33437    6035.4921    27268.233    41666.964   -50828.721      15.2149      13.1765      28.7324    5760.2466 
   28500       28.487    224.08676    9.3558523   -543.67987   -534.32402     6581.781    26170.959    44687.136   -51112.752      15.2149      13.1765      28.7324    5760.2466 
   29000       28.987    213.80996    8.9267854   -543.23885   -534.31206    7022.4846    29518.052    39045.057   -47495.655      15.2149      13.1765      28.7324    5760.2466 
   29500       29.487     220.9844    9.2263255   -543.52728   -534.30096    6799.6687    28672.989    40387.101   -48661.084      15.2149      13.1765      28.7324    5760.2466 
   30000       29.987    216.98667    9.0594161   -543.34952    -534.2901    7388.6278    30775.695    43323.526   -51933.337      15.2149      13.1765      28.7324    5760.2466 
   30500       30.487    214.93093     8.973587   -543.25138   -534.27779    7066.7524     30122.41    41653.568   -50575.721      15.2149      13.1765      28.7324    5760.2466 
   31000       30.987    225.88757    9.4310378   -543.69798   -534.26694    7817.7276    28667.322    44782.155   -49996.295      15.2149      13.1765      28.7324    5760.2466 
   31500       31.487     214.0396    8.9363732   -543.18986   -534.25349    6776.3924    28541.722    44747.986   -52960.531      15.2149      13.1765      28.7324    5760.2466 
   32000       31.987    220.99098    9.2266002   -543.46979   -534.24319    6267.0373    29405.041    40543.251   -51147.181      15.2149      13.1765      28.7324    5760.2466 
   32500       32.487    218.00712    9.1020213   -543.33223   -534.23021    7381.1985    27041.188     42141.71   -47039.302      15.2149      13.1765      28.7324    5760.2466 
   33000       32.987    222.09101    9.2725276    -543.4908   -534.21827    6720.9506    32244.964      41951.5   -54033.612      15.2149      13.1765      28.7324    5760.2466 
   33500       33.487    224.52439    9.3741239   -543.57995   -534.20583    7300.9482    33338.669    42793.903   -54229.727      15.2149      13.1765      28.7324    5760.2466 
   34000       33.987    225.06384    9.3966463   -543.59067   -534.19402    6545.9759     28543.93    42510.415   -51416.417      15.2149      13.1765      28.7324    5760.2466 
   34500       34.487    225.14197    9.3999082    -543.5811    -534.1812    6269.7425    27860.992    39700.385   -48752.149      15.2149      13.1765      28.7324    5760.2466 
   35000       34.987     217.3377     9.074072   -543.24297    -534.1689     7472.332    29897.266    40476.647   -47956.916      15.2149      13.1765      28.7324    5760.2466 
   35500       35.487    223.28898    9.3225441    -543.4791   -534.15656    6822.2384    30112.721    42536.096   -52182.101      15.2149      13.1765      28.7324    5760.2466 
   36000       35.987    214.26778    8.9458998   -543.08877   -534.14287    6934.4723    28696.148    42011.296   -49904.027      15.2149      13.1765      28.7324    5760.2466 
   36500       36.487    214.43914    8.9530541   -543.08341   -534.13035    6978.9503    31633.998    45360.069   -56057.216      15.2149      13.1765      28.7324    5760.2466 
   37000       36.987      216.317     9.031457   -543.14975   -534.11829    6560.0256    29061.227    41502.444   -50883.595      15.2149      13.1765      28.7324    5760.2466 
   37500       37.487    211.60276    8.8346325   -542.93966   -534.10503    7707.4358    33810.289     42249.88   -52937.862      15.2149      13.1765      28.7324    5760.2466 
   38000       37.987    219.64586      9.17044   -543.26265   -534.09221     7228.683    30888.927    39458.888   -48661.766      15.2149      13.1765      28.7324    5760.2466 
   38500       38.487    224.01655    9.3529209    -543.4328   -534.07988    6700.6049    30838.071    43117.659   -53853.915      15.2149      13.1765      28.7324    5760.2466 
   39000       38.987    233.61676    9.7537394   -543.82076   -534.06703    7360.1549    31278.221    42106.748   -51304.504      15.2149      13.1765      28.7324    5760.2466 
   39500       39.487    225.09515    9.3979536   -543.45195     -534.054    6789.2644    28918.559      42139.4   -50690.166      15.2149      13.1765      28.7324    5760.2466 
   40000       39.987    207.64365    8.6693355   -542.71066   -534.04132    6907.5146    27939.816    43126.769   -50344.041      15.2149      13.1765      28.7324    5760.2466 
   40500       40.487    235.42756    9.8293425   -543.85767   -534.02833       7069.7     30668.68    44184.543   -53644.122      15.2149      13.1765      28.7324    5760.2466 
   41000       40.987    218.01949    9.1025375   -543.11745   -534.01492     5954.278    31839.063    40497.885   -54474.113      15.2149      13.1765      28.7324    5760.2466 
   41500       41.487    219.98882    9.1847593   -543.18732   -534.00256     6753.774    32014.748    41631.713   -53385.139      15.2149      13.1765      28.7324    5760.2466 
   42000       41.987    217.45326    9.0788968   -543.06794   -533.98904    6125.6551    30953.456    40602.777   -53179.267      15.2149      13.1765      28.7324    5760.2466 
   42500       42.487    210.15161    8.7740456   -542.74987   -533.97583    7031.4479    30943.947    43229.078   -53078.681      15.2149      13.1765      28.7324    5760.2466 
   43000       42.987    228.84683    9.5545902   -543.51903   -533.96444    7854.4008    30404.207    43438.194   -50279.198      15.2149      13.1765      28.7324    5760.2466 
   43500       43.487    214.77801    8.9672023   -542.91759   -533.95039    6551.0415    26567.375    46085.282   -52999.533      15.2149      13.1765      28.7324    5760.2466 
   44000       43.987    224.92555    9.3908725   -543.32822   -533.93735    6073.0326    28694.764    41113.921   -51589.587      15.2149      13.1765      28.7324    5760.2466 
   44500       44.487    213.29795    8.9054085   -542.82956   -533.92415    6972.4449    31402.317    42197.337   -52682.319      15.2149      13.1765      28.7324    5760.2466 
   45000       44.987    237.80777    9.9287187   -543.84108   -533.91236    6560.2082    33598.643    42110.669   -56028.687      15.2149      13.1765      28.7324    5760.2466 
   45500       45.487    227.92623    9.5161543   -543.41559   -533.89944    7341.3126    30700.848    41041.616   -49718.527      15.2149      13.1765      28.7324    5760.2466 
   46000       45.987    230.51728    9.6243331   -543.51191   -533.88757    7431.2535    28951.553    40396.008     -47053.8      15.2149      13.1765      28.7324    5760.2466 
   46500       46.487     221.8651    9.2630958   -543.13735   -533.87425    6098.6287    29410.397    42221.305   -53335.816      15.2149      13.1765      28.7324    5760.2466 
   47000       46.987    238.14343    9.9427326   -543.80451   -533.86178    6877.4355     29752.82    42405.928   -51526.442      15.2149      13.1765      28.7324    5760.2466 
   47500       47.487    237.48071    9.9150636    -543.7652   -533.85013    6753.4542      30432.7    40395.239   -50567.577      15.2149      13.1765      28.7324    5760.2466 
   48000       47.987    235.48215    9.8316216   -543.66811   -533.83649    6869.3342    32315.141    40621.354   -52328.493      15.2149      13.1765      28.7324    5760.2466 
   48500       48.487    220.09534    9.1892066   -543.01328   -533.82407    4958.7029    28702.276    42940.702    -56766.87      15.2149      13.1765      28.7324    5760.2466 
   49000       48.987    230.88142    9.6395365   -543.45187   -533.81234    7118.1034    30990.584    40477.038   -50113.312      15.2149      13.1765      28.7324    5760.2466 
   49500       49.487    218.08371    9.1052188   -542.90417   -533.79895    6679.6324    30566.909    38326.732   -48854.743      15.2149      13.1765      28.7324    5760.2466 
   50000       49.987    232.00149    9.6863004   -543.47393   -533.78763    6803.3491    31003.079    40347.476   -50940.507      15.2149      13.1765      28.7324    5760.2466 
   50500       50.487    229.58331    9.5853389   -543.36109   -533.77575    7761.7931    33535.591    42158.897   -52409.109      15.2149      13.1765      28.7324    5760.2466 
   51000       50.987    226.19083    9.4436994    -543.2069    -533.7632    6423.2039    31856.767    43261.303   -55848.459      15.2149      13.1765      28.7324    5760.2466 
   51500       51.487    222.36745    9.2840695   -543.03538   -533.75131    8066.8629     32649.98    40494.034   -48943.425      15.2149      13.1765      28.7324    5760.2466 
   52000       51.987    229.20064    9.5693619   -543.30821   -533.73884    6391.9413    30141.586    41074.828    -52040.59      15.2149      13.1765      28.7324    5760.2466 
   52500       52.487    228.99977    9.5609757   -543.28826   -533.72728    7067.8857    33659.734    37340.613    -49796.69      15.2149      13.1765      28.7324    5760.2466 
   53000       52.987    220.27886    9.1968684   -542.91196   -533.71509    7924.5932    31296.315    42629.059   -50151.594      15.2149      13.1765      28.7324    5760.2466 
   53500       53.487    217.72556    9.0902658    -542.7935   -533.70323    8904.0051    31694.318    43459.566   -48441.869      15.2149      13.1765      28.7324    5760.2466 
   54000       53.987    237.39341    9.9114185   -543.60402    -533.6926     6995.305    29651.859    41987.258   -50653.202      15.2149      13.1765      28.7324    5760.2466 
   54500       54.487    227.82902    9.5120956   -543.19214   -533.68005    7445.3952    31068.976    44987.347   -53720.137      15.2149      13.1765      28.7324    5760.2466 
   55000       54.987    221.83836    9.2619794   -542.93038    -533.6684    6797.5348     29987.15    41876.691   -51471.237      15.2149      13.1765      28.7324    5760.2466 
   55500       55.487    222.63648    9.2953018   -542.95259   -533.65729    6541.8468    31112.849    43275.393   -54762.702      15.2149      13.1765      28.7324    5760.2466 
   56000       55.987    224.30194    9.3648365   -543.01044   -533.64561    5822.3203    29476.332    39779.972   -51789.343      15.2149      13.1765      28.7324    5760.2466 
   56500       56.487    233.85709    9.7637735   -543.39846   -533.63468    6683.3542    30402.727    42144.524   -52497.189      15.2149      13.1765      28.7324    5760.2466 
   57000       56.987    218.15699    9.1082784   -542.73113   -533.62285    6303.4741    31071.567    40899.238   -53060.382      15.2149      13.1765      28.7324    5760.2466 
   57500       57.487    231.97393    9.6851498   -543.29631   -533.61116    6070.2222    32317.872    40216.701   -54323.906      15.2149      13.1765      28.7324    5760.2466 
   58000       57.987    227.36715    9.4928118   -543.09287   -533.60006    6770.8759    32365.247    42147.775   -54200.394      15.2149      13.1765      28.7324    5760.2466 
   58500       58.487    221.13875    9.2327698   -542.82153   -533.58876    6647.2046    29607.345    39837.085   -49502.817      15.2149      13.1765      28.7324    5760.2466 
   59000       58.987    223.73653    9.3412298   -542.91932   -533.57809    7245.0281    30088.532    40905.368   -49258.816      15.2149      13.1765      28.7324    5760.2466 
   59500       59.487    227.80105    9.5109278   -543.07785   -533.56692    7917.3072    30855.966    43034.528   -50138.573      15.2149      13.1765      28.7324    5760.2466 
   60000       59.987    230.75072    9.6340796   -543.19059   -533.55651    7434.5462    27200.561     48485.02   -53381.942      15.2149      13.1765      28.7324    5760.2466 
   60500       60.487    231.28139    9.6562357    -543.2013   -533.54506    7273.8136    28703.908    44068.813   -50951.281      15.2149      13.1765      28.7324    5760.2466 
   61000       60.987    218.61755    9.1275073   -542.66098   -533.53348    6742.7581    29422.645    44228.191   -53422.561      15.2149      13.1765      28.7324    5760.2466 
   61500       61.487    235.31997    9.8248503   -543.34753   -533.52268    7712.6647    33429.113    44031.196   -54322.315      15.2149      13.1765      28.7324    5760.2466 
   62000       61.987    226.03084    9.4370198   -542.94919   -533.51217    5451.5555    29385.308    45915.847   -58946.488      15.2149      13.1765      28.7324    5760.2466 
   62500       62.487    233.51137    9.7493394    -543.2506   -533.50126     7307.679    29386.448      41399.8   -48863.211      15.2149      13.1765      28.7324    5760.2466 
   63000       62.987     226.1538    9.4421533    -542.9322   -533.49005    6598.7875    28227.964    43295.073   -51726.675      15.2149      13.1765      28.7324    5760.2466 
   63500       63.487    232.53785    9.7086939   -543.18873   -533.48004    6705.6851    28315.319    43665.261   -51863.524      15.2149      13.1765      28.7324    5760.2466 
   64000       63.987    231.32043    9.6578656   -543.12743   -533.46957    7518.5867    32410.896    42666.495   -52521.631      15.2149      13.1765      28.7324    5760.2466 
   64500       64.487    222.19775    9.2769844   -542.73502   -533.45803    7091.2889     29010.16    46120.654   -53856.947      15.2149      13.1765      28.7324    5760.2466 
   65000       64.987    234.61377     9.795366   -543.24324   -533.44787     7694.122    29080.649    42011.314   -48009.597      15.2149      13.1765      28.7324    5760.2466 
   65500       65.487    224.62966     9.378519   -542.81518   -533.43666    6996.6831    30635.093    44362.357   -54007.401      15.2149      13.1765      28.7324    5760.2466 
   66000       65.987    238.12106    9.9417988   -543.36859   -533.42679    7518.4012    30370.193    43888.247   -51703.236      15.2149      13.1765      28.7324    5760.2466 
   66500       66.487    234.66484    9.7974982   -543.21326   -533.41576    6623.4356    28997.099    41308.308     -50435.1      15.2149      13.1765      28.7324    5760.2466 
   67000       66.987    231.08184    9.6479043   -543.05302   -533.40512    7385.4434    30531.354    43409.145   -51784.168      15.2149      13.1765      28.7324    5760.2466 
   67500       67.487    228.32187    9.5326724   -542.92704   -533.39437    7425.9461     31125.21    42687.544   -51534.915      15.2149      13.1765      28.7324    5760.2466 
   68000       67.987    219.52172    9.1652574   -542.54864   -533.38338    6868.5872    32751.181    41990.947   -54136.366      15.2149      13.1765      28.7324    5760.2466 
   68500       68.487     233.8739    9.7644756   -543.13725   -533.37277    7579.2213    33474.153    40803.776   -51540.265      15.2149      13.1765      28.7324    5760.2466 
   69000       68.987    234.61059     9.795233   -543.15782   -533.36259    7604.2835    31375.021    41877.595   -50439.766      15.2149      13.1765      28.7324    5760.2466 
   69500       69.487    216.87277    9.0546609   -542.40651   -533.35184    7220.1056     33294.68    40926.068   -52560.432      15.2149      13.1765      28.7324    5760.2466 
   70000       69.987    229.66272    9.5886542   -542.93003   -533.34137    8906.6296    32572.797    41292.803   -47145.711      15.2149      13.1765      28.7324    5760.2466 
   70500       70.487    224.06097    9.3547755   -542.68605   -533.33128     6919.446    31671.429    41170.797   -52083.888      15.2149      13.1765      28.7324    5760.2466 
   71000       70.987    239.75972    10.010214     -543.331   -533.32079    9451.1486     33985.91    43046.581   -48679.045      15.2149      13.1765      28.7324    5760.2466 
   71500       71.487    231.18789    9.6523317   -542.96188   -533.30955    7389.5754    32047.472    43130.789   -53009.535      15.2149      13.1765      28.7324    5760.2466 
   72000       71.987    251.22201    10.488777   -543.78924   -533.30047    7854.1304    32139.919    41450.613    -50028.14      15.2149      13.1765      28.7324    5760.2466 
   72500       72.487    240.93537    10.059299   -543.34838   -533.28909     7914.616    33477.367    41624.881     -51358.4      15.2149      13.1765      28.7324    5760.2466 
   73000       72.987    224.12778     9.357565   -542.63491   -533.27734    7468.2747    29193.053    45897.322   -52685.551      15.2149      13.1765      28.7324    5760.2466 
   73500       73.487     234.7069    9.7992541   -543.06723   -533.26797    7235.4963    32312.866    41310.367   -51916.744      15.2149      13.1765      28.7324    5760.2466 
   74000       73.987    237.07746    9.8982276   -543.15484   -533.25661    7381.1536    27196.268     42685.01   -47737.817      15.2149      13.1765      28.7324    5760.2466 
   74500       74.487    232.50024    9.7071239   -542.95354   -533.24642    6475.2745    29442.327    45685.259   -55701.763      15.2149      13.1765      28.7324    5760.2466 
   75000       74.987    236.11455    9.8580251   -543.09342   -533.23539    6719.8303    29095.693    43536.493   -52472.695      15.2149      13.1765      28.7324    5760.2466 
   75500       75.487    229.95329    9.6007862   -542.82575   -533.22497     7168.986    28405.624    41720.501   -48619.167      15.2149      13.1765      28.7324    5760.2466 
   76000       75.987    215.28254     8.988267   -542.20104   -533.21278    6973.2066    29636.675     43748.05   -52465.106      15.2149      13.1765      28.7324    5760.2466 
   76500       76.487    224.78332    9.3849343   -542.58747   -533.20253    6885.8501    31869.623    41043.006   -52255.078      15.2149      13.1765      28.7324    5760.2466 
   77000       76.987    220.54732    9.2080773    -542.4002   -533.19212    7838.6742    29477.552    46468.908   -52430.437      15.2149      13.1765      28.7324    5760.2466 
   77500       77.487    232.38204    9.7021889   -542.88331   -533.18113    7382.7972    29396.311    42455.892   -49703.812      15.2149      13.1765      28.7324    5760.2466 
   78000       77.987    229.06221    9.5635826   -542.73463   -533.17105    6623.3212    30577.807    42242.982   -52950.825      15.2149      13.1765      28.7324    5760.2466 
   78500       78.487    216.89398    9.0555463   -542.21415    -533.1586    7795.5934    29622.394    49077.916   -55313.529      15.2149      13.1765      28.7324    5760.2466 
   79000       78.987    236.79718    9.8865255   -543.03523   -533.14871    6529.6675    32915.356    41140.155   -54466.509      15.2149      13.1765      28.7324    5760.2466 
   79500       79.487    232.24928    9.6966458   -542.83359   -533.13695    8398.8197    33647.785    44045.789   -52497.115      15.2149      13.1765      28.7324    5760.2466 
   80000       79.987    241.90129    10.099627   -543.22637   -533.12675    8107.2346    34666.654    44709.379   -55054.329      15.2149      13.1765      28.7324    5760.2466 
   80500       80.487    214.61171    8.9602594   -542.07525   -533.11499    7763.7457    29054.866    45773.588   -51537.217      15.2149      13.1765      28.7324    5760.2466 
   81000       80.987    247.39457    10.328978   -543.43344   -533.10446    7741.3616    26947.986    41706.836   -45430.737      15.2149      13.1765      28.7324    5760.2466 
   81500       81.487    219.25708    9.1542084   -542.24667   -533.09246    8011.6537    33892.959      42348.3   -52206.297      15.2149      13.1765      28.7324    5760.2466 
   82000       81.987    233.20565    9.7365752   -542.81795   -533.08137    7547.8443    32612.351     45286.29   -55255.107      15.2149      13.1765      28.7324    5760.2466 
   82500       82.487    232.16874    9.6932831   -542.76379   -533.07051     8681.672    33871.588    43195.287   -51021.859      15.2149      13.1765      28.7324    5760.2466 
   83000       82.987    231.12084    9.6495323   -542.70849   -533.05895    7519.2901    31445.525    43504.888   -52392.543      15.2149      13.1765      28.7324    5760.2466 
   83500       83.487    225.16983    9.4010716   -542.44842   -533.04735    6911.8148    29964.085    43136.394   -52365.035      15.2149      13.1765      28.7324    5760.2466 
   84000       83.987    229.86636    9.5971566   -542.63357   -533.03641    7381.5456    31427.057    43639.513   -52921.934      15.2149      13.1765      28.7324    5760.2466 
   84500       84.487    234.90523    9.8075347   -542.83273    -533.0252    7725.7305    30732.934    41983.301   -49539.043      15.2149      13.1765      28.7324    5760.2466 
   85000       84.987     241.6162    10.087724   -543.10147   -533.01375    8229.8994    29776.006    47121.391   -52207.698      15.2149      13.1765      28.7324    5760.2466 
   85500       85.487    232.45488    9.7052298    -542.7067   -533.00147     7662.038    31241.216    45575.339   -53830.441      15.2149      13.1765      28.7324    5760.2466 
   86000       85.987    240.53267    10.042486   -543.03254   -532.99005      7113.19    28600.066    43183.083   -50443.578      15.2149      13.1765      28.7324    5760.2466 
   86500       86.487    237.24519    9.9052304   -542.88362   -532.97839    8469.6883    32563.189    43070.086    -50224.21      15.2149      13.1765      28.7324    5760.2466 
   87000       86.987     229.1029    9.5652814    -542.5316   -532.96632    8580.0855     29244.15    40786.087   -44289.981      15.2149      13.1765      28.7324    5760.2466 
   87500       87.487    223.16194    9.3172403   -542.27121   -532.95397    6840.8271    30294.846     35976.04   -45748.404      15.2149      13.1765      28.7324    5760.2466 
   88000       87.987    234.12506    9.7749616   -542.71727   -532.94231    7131.0847    29697.212    39635.455   -47939.413      15.2149      13.1765      28.7324    5760.2466 
   88500       88.487    239.78597    10.011311   -542.94281    -532.9315    7262.4037    29748.852    44632.068   -52593.709      15.2149      13.1765      28.7324    5760.2466 
   89000       88.987      237.456    9.9140317   -542.83346   -532.91943    8278.5134    29465.585     43838.58   -48468.625      15.2149      13.1765      28.7324    5760.2466 
   89500       89.487      239.184    9.9861775    -542.8936   -532.90742    8264.8922    31892.734    39050.396   -46148.454      15.2149      13.1765      28.7324    5760.2466 
   90000       89.987    238.76704    9.9687692   -542.86461   -532.89584     6788.002    28944.769    42406.125   -50986.888      15.2149      13.1765      28.7324    5760.2466 
   90500       90.487     249.9011    10.433628   -543.31729   -532.88367    7599.6618    29732.854        41092   -48025.868      15.2149      13.1765      28.7324    5760.2466 
   91000       90.987    230.05919    9.6052075   -542.47573   -532.87052    7903.1275    29334.333    46097.258   -51722.209      15.2149      13.1765      28.7324    5760.2466 
   91500       91.487    236.87181    9.8896415   -542.74876   -532.85912    9011.4657     28611.23    46535.833   -48112.666      15.2149      13.1765      28.7324    5760.2466 
   92000       91.987     235.5996     9.836525   -542.68293    -532.8464    8864.9359    32043.915    43317.599   -48766.707      15.2149      13.1765      28.7324    5760.2466 
   92500       92.487    233.31676    9.7412142   -542.57558   -532.83436    7582.4556    29711.403    41967.591   -48931.627      15.2149      13.1765      28.7324    5760.2466 
   93000       92.987    233.99141    9.7693818   -542.59098    -532.8216    7439.2761    30791.117    42054.381   -50527.669      15.2149      13.1765      28.7324    5760.2466 
   93500       93.487    244.85068    10.222767   -543.03249   -532.80973     7530.631    29591.239    44046.334    -51045.68      15.2149      13.1765      28.7324    5760.2466 
   94000       93.987    227.48005    9.4975258   -542.29343   -532.79591    7483.3952    31911.187    46863.583   -56324.585      15.2149      13.1765      28.7324    5760.2466 
   94500       94.487    244.20606    10.195854   -542.97956   -532.78371    6330.3399    30076.465    42399.647   -53485.092      15.2149      13.1765      28.7324    5760.2466 
   95000       94.987    234.97415     9.810412   -542.58173   -532.77132    6930.3822    30949.008    45668.794   -55826.655      15.2149      13.1765      28.7324    5760.2466 
   95500       95.487    237.28011    9.9066883   -542.66466   -532.75797    8179.6126    27427.964     45240.58   -48129.706      15.2149      13.1765      28.7324    5760.2466 
   96000       95.987    245.43325     10.24709   -542.99244   -532.74535    7553.3468    30957.518    42757.053   -51054.531      15.2149      13.1765      28.7324    5760.2466 
   96500       96.487    231.64816    9.6715485   -542.40373   -532.73218    7107.1463    29863.454    45246.505    -53788.52      15.2149      13.1765      28.7324    5760.2466 
   97000       96.987    236.39099    9.8695667   -542.58994   -532.72038    7512.7223     33001.28     40272.64   -50735.754      15.2149      13.1765      28.7324    5760.2466 
   97500       97.487    239.71446    10.008325   -542.71599   -532.70767    6985.9575    32387.727    42147.697   -53577.552      15.2149      13.1765      28.7324    5760.2466 
   98000       97.987    229.99844    9.6026712   -542.29668   -532.69401    6969.0116    28065.938    41932.403   -49091.306      15.2149      13.1765      28.7324    5760.2466 
   98500       98.487    253.25961    10.573849   -543.25494   -532.68109    8174.4563    28308.437    46996.333   -50781.401      15.2149      13.1765      28.7324    5760.2466 
   99000       98.987    244.68241    10.215742   -542.88314    -532.6674     8632.089    32704.453    44368.832   -51177.018      15.2149      13.1765      28.7324    5760.2466 
   99500       99.487    247.49658    10.333236   -542.98776   -532.65452    8037.5784    28664.887    45823.128    -50375.28      15.2149      13.1765      28.7324    5760.2466 
  100000       99.987    238.98026    9.9776713   -542.61961   -532.64194    7873.2925    31265.217    41961.022   -49606.361      15.2149      13.1765      28.7324    5760.2466 
  100500      100.487    241.50669    10.083152   -542.71137   -532.62822    7474.6402    33555.452    40225.272   -51356.803      15.2149      13.1765      28.7324    5760.2466 
  101000      100.987    230.16462    9.6096094   -542.22309   -532.61348     6122.888    31074.329    41160.736   -53866.402      15.2149      13.1765      28.7324    5760.2466 
  101500      101.487    239.18397    9.9861763   -542.58708    -532.6009    6236.8033      30504.7    42808.458   -54602.748      15.2149      13.1765      28.7324    5760.2466 
  102000      101.987    242.24482     10.11397   -542.70084   -532.58687    6685.6208    32877.123    43338.832   -56159.092      15.2149      13.1765      28.7324    5760.2466 
  102500      102.487    241.06493    10.064708   -542.63842   -532.57372     6354.109    29060.802    42940.457   -52938.932      15.2149      13.1765      28.7324    5760.2466 
  103000      102.987    236.86258    9.8892561    -542.4486   -532.55934    7731.0523    29201.033      46324.1   -52331.976      15.2149      13.1765      28.7324    5760.2466 
  103500      103.487    233.78335     9.760695   -542.30634   -532.54564    8280.2439    28933.926    45739.816    -49833.01      15.2149      13.1765      28.7324    5760.2466 
  104000      103.987    240.87833    10.056918   -542.58983   -532.53291    7445.9726    35110.663    41099.071   -53871.816      15.2149      13.1765      28.7324    5760.2466 
  104500      104.487    244.76597    10.219231   -542.73737   -532.51814    7572.0325    32996.599    41576.188   -51856.689      15.2149      13.1765      28.7324    5760.2466 
  105000      104.987    246.62749    10.296951   -542.80196   -532.50501    7321.8972    34487.737    41809.513   -54331.559      15.2149      13.1765      28.7324    5760.2466 
  105500      105.487    243.85561    10.181222   -542.67207   -532.49084    6928.9442    31032.428    41109.614   -51355.209      15.2149      13.1765      28.7324    5760.2466 
  106000      105.987    238.08932    9.9404735   -542.41719   -532.47671    9450.6277    32104.232    45511.191    -49263.54      15.2149      13.1765      28.7324    5760.2466 
  106500      106.487    252.76295    10.553113   -543.01677   -532.46366    8424.2328    28961.583    46462.171   -50151.056      15.2149      13.1765      28.7324    5760.2466 
  107000      106.987    243.17336    10.152737   -542.60189   -532.44915    6326.7446    28462.943    44618.832   -54101.541      15.2149      13.1765      28.7324    5760.2466 
  107500      107.487    228.55941      9.54259    -541.9771   -532.43451    6645.4525    32330.659    45511.848   -57906.149      15.2149      13.1765      28.7324    5760.2466 
  108000      107.987    242.75101    10.135104   -542.55439   -532.41928    7434.5861    30382.909    41761.981   -49841.132      15.2149      13.1765      28.7324    5760.2466 
  108500      108.487    234.41565     9.787094   -542.19216   -532.40507    7143.3997    29915.099    49252.397   -57737.298      15.2149      13.1765      28.7324    5760.2466 
  109000      108.987    258.64018    10.798493   -543.19003   -532.39154    7004.1036    32582.589    42030.927   -53601.206      15.2149      13.1765      28.7324    5760.2466 
  109500      109.487    249.47181    10.415704   -542.79277   -532.37707    7914.6752    34363.481     40828.74   -51448.195      15.2149      13.1765      28.7324    5760.2466 
  110000      109.987    245.28814    10.241032   -542.60427   -532.36324    7698.3803    32533.779    41508.778   -50947.416      15.2149      13.1765      28.7324    5760.2466 
  110500      110.487    237.42113    9.9125759   -542.26087    -532.3483    7595.4922    29815.675    48537.688   -55566.887      15.2149      13.1765      28.7324    5760.2466 
  111000      110.987    238.33705    9.9508167   -542.28466   -532.33384    7137.7421    31037.776    42439.488   -52064.038      15.2149      13.1765      28.7324    5760.2466 
  111500      111.487    232.96514    9.7265339   -542.04564    -532.3191     6850.922    34095.093    41212.885   -54755.212      15.2149      13.1765      28.7324    5760.2466 
  112000      111.987    234.86738    9.8059544   -542.11055   -532.30459    6166.4335    31436.743    40005.261   -52942.704      15.2149      13.1765      28.7324    5760.2466 
  112500      112.487    238.85212    9.9723213   -542.26318   -532.29086    7781.9141    29258.016    43409.989   -49322.263      15.2149      13.1765      28.7324    5760.2466 
  113000      112.987    250.59021    10.462399    -542.7395   -532.27711    6282.4855    29611.979    42159.599   -52924.122      15.2149      13.1765      28.7324    5760.2466 
  113500      113.487     247.2955    10.324841   -542.58704    -532.2622    8689.3339    35442.173    42416.289   -51790.461      15.2149      13.1765      28.7324    5760.2466 
  114000      113.987    243.90895    10.183449   -542.43065    -532.2472      7994.05    31800.172    42823.669   -50641.691      15.2149      13.1765      28.7324    5760.2466 
  114500      114.487    236.62979    9.8795366   -542.11204    -532.2325    8550.5428    33169.804    42932.038   -50450.214      15.2149      13.1765      28.7324    5760.2466 
  115000      114.987    236.91154       9.8913   -542.10857   -532.21727    6811.7549    28707.916    41196.274   -49468.926      15.2149      13.1765      28.7324    5760.2466 
  115500      115.487     241.2062    10.070606   -542.27327   -532.20266    6611.2107    31154.646    43097.912   -54418.925      15.2149      13.1765      28.7324    5760.2466 
  116000      115.987    242.36075     10.11881   -542.30773   -532.18892    7007.7869    30316.667    40532.035   -49825.342      15.2149      13.1765      28.7324    5760.2466 
  116500      116.487    244.85492    10.222944   -542.39709   -532.17414    6057.7765    32451.326    42544.519   -56822.516      15.2149      13.1765      28.7324    5760.2466 
  117000      116.987    250.84007    10.472831   -542.63159   -532.15876    6820.0516    32248.749    40617.887   -52406.481      15.2149      13.1765      28.7324    5760.2466 
  117500      117.487    230.84961    9.6382083   -541.78232   -532.14411    6174.5817    31969.774    45489.601   -58935.629      15.2149      13.1765      28.7324    5760.2466 
  118000      117.987    244.92352    10.225809   -542.35565   -532.12984    7693.7858    30583.433    44688.963   -52191.039      15.2149      13.1765      28.7324    5760.2466 
  118500      118.487    242.37735    10.119503    -542.2345   -532.11499     7423.849     30471.26    43838.786     -52038.5      15.2149      13.1765      28.7324    5760.2466 
  119000      118.987    235.46992    9.8311111   -541.93027   -532.09916    6536.8689    29001.406    40846.099   -50236.898      15.2149      13.1765      28.7324    5760.2466 
  119500      119.487    236.60177     9.878367   -541.96258   -532.08421    7920.5173    31528.647     46976.55   -54743.645      15.2149      13.1765      28.7324    5760.2466 
  120000      119.987     246.5519    10.293795   -542.36423   -532.07044    9486.3473    33666.689    47052.971   -52260.618      15.2149      13.1765      28.7324    5760.2466 
  120500      120.487    250.54974    10.460709   -542.51508   -532.05437    8895.6348    29729.078    39041.228   -42083.402      15.2149      13.1765      28.7324    5760.2466 
  121000      120.987    242.76772    10.135802    -542.1751    -532.0393    8166.1924    28914.696    43249.854   -47665.973      15.2149      13.1765      28.7324    5760.2466 
  121500      121.487    258.24374    10.781941   -542.80627   -532.02433     6933.933    29874.224    39246.093   -48318.519      15.2149      13.1765      28.7324    5760.2466 
  122000      121.987    259.02905    10.814729   -542.82532   -532.01059     6269.641    32887.955    42409.568     -56488.6      15.2149      13.1765      28.7324    5760.2466 
  122500      122.487    242.17171    10.110918   -542.10428   -531.99336    6934.2767    33225.183    44003.901   -56426.254      15.2149      13.1765      28.7324    5760.2466 
  123000      122.987    243.61804    10.171303   -542.15099   -531.97969    6822.9095     28248.05    42406.674   -50185.995      15.2149      13.1765      28.7324    5760.2466 
  123500      123.487    253.02282    10.563962   -542.52809   -531.96413     7377.755    31760.914    40810.507   -50438.155      15.2149      13.1765      28.7324    5760.2466 
  124000      123.987    247.10051      10.3167   -542.26602   -531.94932    6969.3043    30092.899    44602.342   -53787.328      15.2149      13.1765      28.7324    5760.2466 
  124500      124.487    244.53476    10.209577   -542.14287    -531.9333     7555.333     31088.86    44333.015   -52755.876      15.2149      13.1765      28.7324    5760.2466 
  125000      124.987    253.86597    10.599165   -542.51672   -531.91756     6432.749    30468.455    42821.243   -53991.452      15.2149      13.1765      28.7324    5760.2466 
  125500      125.487    239.64674    10.005497   -541.90731   -531.90181    7771.8652    34337.231    39438.476   -50460.111      15.2149      13.1765      28.7324    5760.2466 
  126000      125.987    262.46898    10.958349   -542.84678   -531.88843    7994.5651     33643.33    44531.816   -54191.451      15.2149      13.1765      28.7324    5760.2466 
  126500      126.487    238.30425     9.949447   -541.82078   -531.87134    7402.5874    30263.176    44832.994   -52888.408      15.2149      13.1765      28.7324    5760.2466 
  127000      126.987    254.95416    10.644598   -542.50088   -531.85628    8236.9753    30260.439    41049.691   -46599.204      15.2149      13.1765      28.7324    5760.2466 
  127500      127.487    250.92054     10.47619     -542.318   -531.84181    8411.1307    33050.673    43375.449    -51192.73      15.2149      13.1765      28.7324    5760.2466 
  128000      127.987    249.67897    10.424354   -542.25082   -531.82647    7978.8985    32897.915     44407.64    -53368.86      15.2149      13.1765      28.7324    5760.2466 
  128500      128.487    258.26404    10.782789   -542.59361   -531.81082    6656.1095    27133.999    45936.041   -53101.712      15.2149      13.1765      28.7324    5760.2466 
  129000      128.987    254.62853    10.631003    -542.4256    -531.7946     7018.115    30759.951    45319.569   -55025.175      15.2149      13.1765      28.7324    5760.2466 
  129500      129.487    263.19148    10.988515   -542.76871   -531.78019    8248.6517    35000.887    42351.747   -52606.679      15.2149      13.1765      28.7324    5760.2466 
  130000      129.987    250.08311    10.441227   -542.20509   -531.76386    6751.4845    33190.763    41440.945   -54377.255      15.2149      13.1765      28.7324    5760.2466 
  130500      130.487    235.72006    9.8415547   -541.58926   -531.74771    7802.7377    32711.778    41139.461   -50443.026      15.2149      13.1765      28.7324    5760.2466 
  131000      130.987    257.29099    10.742163   -542.47535   -531.73319    7699.9312    35191.211    41728.293    -53819.71      15.2149      13.1765      28.7324    5760.2466 
  131500      131.487    258.62437    10.797833    -542.5153   -531.71746    7375.1648    29658.992    44298.028   -51831.525      15.2149      13.1765      28.7324    5760.2466 
  132000      131.987    243.41101    10.162659   -541.86411   -531.70145    7944.4652    30530.556    44586.195   -51283.355      15.2149      13.1765      28.7324    5760.2466 
  132500      132.487    256.07207    10.691272   -542.37737    -531.6861    6417.3711    30411.581    43017.178   -54176.646      15.2149      13.1765      28.7324    5760.2466 
  133000      132.987    241.59208    10.086718    -541.7566   -531.66988    8601.6609    32187.814    40931.411   -47314.242      15.2149      13.1765      28.7324    5760.2466 
  133500      133.487    242.08345    10.107233    -541.7611   -531.65386     7855.334    30183.899    41713.591   -48331.488      15.2149      13.1765      28.7324    5760.2466 
  134000      133.987    250.36112    10.452834   -542.09244    -531.6396    6286.3796    32380.187    42775.212    -56296.26      15.2149      13.1765      28.7324    5760.2466 
  134500      134.487    257.97853    10.770869   -542.39496   -531.62409     9030.386    32774.158    40330.412   -46013.412      15.2149      13.1765      28.7324    5760.2466 
  135000      134.987    251.80108    10.512954   -542.12289   -531.60993    7622.0313    30049.214    39362.189   -46545.309      15.2149      13.1765      28.7324    5760.2466 
  135500      135.487    248.28563     10.36618   -541.95837   -531.59219    8410.7182    32984.338    45697.597    -53449.78      15.2149      13.1765      28.7324    5760.2466 
  136000      135.987    248.88411    10.391167   -541.96787   -531.57671    6976.4927    31713.164     43275.46   -54059.147      15.2149      13.1765      28.7324    5760.2466 
  136500      136.487    240.21067    10.029042   -541.59052   -531.56148    7168.1747    27905.719    43950.426   -50351.621      15.2149      13.1765      28.7324    5760.2466 
  137000      136.987    240.19762    10.028497    -541.5736   -531.54511    8054.4901    32375.146    44617.082   -52828.758      15.2149      13.1765      28.7324    5760.2466 
  137500      137.487    255.55573    10.669714   -542.19905   -531.52934    7941.8553    27944.619    44204.797   -48323.849      15.2149      13.1765      28.7324    5760.2466 
  138000      137.987    260.93777     10.89442   -542.40932    -531.5149     6709.016    31659.358    44249.365   -55781.675      15.2149      13.1765      28.7324    5760.2466 
  138500      138.487    254.26207    10.615703   -542.11422   -531.49851     8062.541    31835.634    46334.161   -53982.172      15.2149      13.1765      28.7324    5760.2466 
  139000      138.987    263.57929    11.004706   -542.48793   -531.48322    7404.7891    30219.357    41028.552   -49033.542      15.2149      13.1765      28.7324    5760.2466 
  139500      139.487    248.93308    10.393212   -541.85967   -531.46646    7075.0282    32208.939    47601.463   -58585.318      15.2149      13.1765      28.7324    5760.2466 
  140000      139.987    246.97833    10.311599   -541.76428   -531.45268    7984.4545    29653.176    45436.311   -51136.123      15.2149      13.1765      28.7324    5760.2466 
  140500      140.487    265.87841    11.100697   -542.53766   -531.43697    7862.2566    29730.768    46601.636   -52745.634      15.2149      13.1765      28.7324    5760.2466 
  141000      140.987    250.52934    10.459857   -541.87982   -531.41996    7016.9171    33991.292    45202.408   -58142.948      15.2149      13.1765      28.7324    5760.2466 
  141500      141.487    255.10407    10.650857   -542.05547   -531.40461    7930.5228    29176.811     43057.53   -48442.772      15.2149      13.1765      28.7324    5760.2466 
  142000      141.987    246.21875    10.279886    -541.6686   -531.38871    8301.5992    30636.756    40470.346   -46202.304      15.2149      13.1765      28.7324    5760.2466 
  142500      142.487    248.90782    10.392157   -541.76464   -531.37248    7336.9413     32034.29    43903.031   -53926.497      15.2149      13.1765      28.7324    5760.2466 
  143000      142.987    251.23116    10.489159   -541.84596    -531.3568    6591.9247    31275.644    41877.118   -53376.989      15.2149      13.1765      28.7324    5760.2466 
  143500      143.487     273.7681    11.430099     -542.772    -531.3419    7212.4702    30798.647    45274.151   -54435.387      15.2149      13.1765      28.7324    5760.2466 
  144000      143.987    250.02443    10.438777   -541.76405   -531.32527    7684.0124    30780.164    43596.737   -51324.864      15.2149      13.1765      28.7324    5760.2466 
  144500      144.487    248.72569    10.384553   -541.69308   -531.30853    8255.4161    35236.659    43533.377   -54003.788      15.2149      13.1765      28.7324    5760.2466 
  145000      144.987    260.51369    10.876714   -542.16957   -531.29286    6824.2884    33414.397    41771.052   -54712.584      15.2149      13.1765      28.7324    5760.2466 
  145500      145.487    251.27024    10.490791   -541.76773   -531.27694    7027.5947    30919.249    43572.194   -53408.659      15.2149      13.1765      28.7324    5760.2466 
  146000      145.987    252.19929    10.529579   -541.79011   -531.26053    7382.6919    27853.932    42945.041   -48650.897      15.2149      13.1765      28.7324    5760.2466 
  146500      146.487    243.09167    10.149327   -541.39312   -531.24379    6842.3596     34113.08    39685.839    -53271.84      15.2149      13.1765      28.7324    5760.2466 
  147000      146.987    249.17762    10.403421   -541.63163   -531.22821    6767.4894    28974.761    46083.059   -54755.351      15.2149      13.1765      28.7324    5760.2466 
  147500      147.487    250.65321    10.465029   -541.67828   -531.21325    7481.4145    32718.796    44799.288    -55073.84      15.2149      13.1765      28.7324    5760.2466 
  148000      147.987    257.26417    10.741043   -541.93858   -531.19754    6519.6009    30800.788    44025.325    -55267.31      15.2149      13.1765      28.7324    5760.2466 
  148500      148.487    247.17014    10.319607   -541.50015   -531.18055    8147.9714     34097.51     44104.57   -53758.165      15.2149      13.1765      28.7324    5760.2466 
  149000      148.987    265.62626    11.090169   -542.25521   -531.16505    6223.3874    29092.242      42578.9    -53000.98      15.2149      13.1765      28.7324    5760.2466 
  149500      149.487    259.17847    10.820967   -541.96993   -531.14896    7820.1374    30302.364    44055.477   -50897.429      15.2149      13.1765      28.7324    5760.2466 
  150000      149.987    264.42034    11.039821    -542.1727   -531.13288    7795.6026    31767.468     42161.39    -50542.05      15.2149      13.1765      28.7324    5760.2466 
  150500      150.487      266.241    11.115835   -542.23266   -531.11682    7571.4781    30297.233    45090.905   -52673.703      15.2149      13.1765      28.7324    5760.2466 
  151000      150.987    261.54638     10.91983   -542.02062   -531.10079    7746.4214    32547.623    46269.978   -55578.337      15.2149      13.1765      28.7324    5760.2466 
  151500      151.487    262.46153    10.958038   -542.04322   -531.08519    7574.7968    31916.253    48037.796   -57229.659      15.2149      13.1765      28.7324    5760.2466 
  152000      151.987    271.99576    11.356102   -542.42449   -531.06839    6676.9886    30335.713    43976.598   -54281.345      15.2149      13.1765      28.7324    5760.2466 
  152500      152.487    261.91621    10.935271    -541.9878   -531.05253    7388.2453     29685.65    48525.561   -56046.475      15.2149      13.1765      28.7324    5760.2466 
  153000      152.987    259.01966    10.814337   -541.84924   -531.03491    7509.5188    29728.758    43404.141   -50604.342      15.2149      13.1765      28.7324    5760.2466 
  153500      153.487    259.74078    10.844444   -541.86416   -531.01972    7544.9658    30491.719    45163.436   -53020.258      15.2149      13.1765      28.7324    5760.2466 
  154000      153.987    256.64144    10.715043   -541.71753   -531.00248     9208.381    30293.223     49163.46    -51831.54      15.2149      13.1765      28.7324    5760.2466 
  154500      154.487    269.75043    11.262357   -542.24875   -530.98639    8713.9534    31033.035    42187.051   -47078.226      15.2149      13.1765      28.7324    5760.2466 
  155000      154.987    265.01873    11.064804   -542.03511   -530.97031    8358.7492    32526.859    45936.573   -53387.184      15.2149      13.1765      28.7324    5760.2466 
  155500      155.487    264.41819    11.039731   -541.99337   -530.95364    9499.0421    32467.635    45440.494   -49411.003      15.2149      13.1765      28.7324    5760.2466 
  156000      155.987     258.6598    10.799312   -541.73661    -530.9373    8049.6069    29622.805    44624.511   -50098.495      15.2149      13.1765      28.7324    5760.2466 
  156500      156.487    257.71376    10.759814   -541.68064   -530.92083    7997.6793    31603.791    46304.503   -53915.256      15.2149      13.1765      28.7324    5760.2466 
  157000      156.987     263.1542    10.986958   -541.89165   -530.90469    7309.0801    31981.861    41694.343   -51748.964      15.2149      13.1765      28.7324    5760.2466 
  157500      157.487     247.0346    10.313948   -541.20131   -530.88737    8277.0906    29768.968    44344.718   -49282.414      15.2149      13.1765      28.7324    5760.2466 
  158000      157.987    252.36534    10.536512   -541.40737   -530.87086    7249.3996    31081.901    47531.185   -56864.887      15.2149      13.1765      28.7324    5760.2466 
  158500      158.487    270.71053    11.302443   -542.15678   -530.85434    6784.8675    30105.463    44819.452   -54570.313      15.2149      13.1765      28.7324    5760.2466 
  159000      158.987    259.45149    10.832366   -541.67042   -530.83805    9006.2869    30283.826    44203.672   -47468.637      15.2149      13.1765      28.7324    5760.2466 
  159500      159.487    266.28392    11.117627    -541.9392   -530.82157     8935.153    33998.786    41859.235   -49052.562      15.2149      13.1765      28.7324    5760.2466 
  160000      159.987    272.49892     11.37711   -542.18372   -530.80661    7508.1411    33548.957    45928.474   -56953.008      15.2149      13.1765      28.7324    5760.2466 
  160500      160.487    266.38342    11.121781   -541.91083   -530.78905    8717.6648    30259.668    48715.729   -52822.404      15.2149      13.1765      28.7324    5760.2466 
  161000      160.987    257.56547    10.753623   -541.52586   -530.77224    7753.3698    31365.695    40741.213   -48846.798      15.2149      13.1765      28.7324    5760.2466 
  161500      161.487    263.26884    10.991745   -541.74802   -530.75627    7718.9281    33014.534    46050.173   -55907.923      15.2149      13.1765      28.7324    5760.2466 
  162000      161.987    267.76553    11.179486    -541.9184   -530.73891    8354.1593    31070.579    41351.066   -47359.168      15.2149      13.1765      28.7324    5760.2466 
  162500      162.487    263.28666    10.992488   -541.71506   -530.72257    8562.7038     32317.38    41194.449   -47823.718      15.2149      13.1765      28.7324    5760.2466 
  163000      162.987    265.52739    11.086041   -541.79225   -530.70621    8184.3268    31662.538    45864.907   -52974.464      15.2149      13.1765      28.7324    5760.2466 
  163500      163.487    262.42405    10.956474   -541.64609   -530.68961    7411.6746    34687.793    43203.458   -55656.227      15.2149      13.1765      28.7324    5760.2466 
  164000      163.987    238.83221    9.9714899   -540.64308   -530.67159    7836.4935    28877.275    43492.456    -48860.25      15.2149      13.1765      28.7324    5760.2466 
  164500      164.487    284.35547    11.872133    -542.5303   -530.65817    7223.0643    29009.242    41565.783   -48905.832      15.2149      13.1765      28.7324    5760.2466 
  165000      164.987    266.01344    11.106334   -541.74546   -530.63913    7499.7307    31410.191    43350.492   -52261.491      15.2149      13.1765      28.7324    5760.2466 
  165500      165.487    271.65979    11.342075   -541.96518   -530.62311    7188.1844    35833.489    42159.395   -56428.331      15.2149      13.1765      28.7324    5760.2466 
  166000      165.987    259.12739    10.818835   -541.42482   -530.60599    8265.7455    32315.492    43007.031   -50525.286      15.2149      13.1765      28.7324    5760.2466 
  166500      166.487    259.43538    10.831693   -541.42124   -530.58955    8033.0494    29132.988    42137.525   -47171.364      15.2149      13.1765      28.7324    5760.2466 
  167000      166.987    254.70418    10.634161   -541.20724   -530.57308    8680.0354    34804.544    39989.053   -48753.491      15.2149      13.1765      28.7324    5760.2466 
  167500      167.487    245.06733    10.231813    -540.7874   -530.55558    8541.8885    30713.533    43265.884   -48353.752      15.2149      13.1765      28.7324    5760.2466 
  168000      167.987    257.66392    10.757733   -541.29723    -530.5395    7654.5311    31700.845    43051.186   -51788.438      15.2149      13.1765      28.7324    5760.2466 
  168500      168.487    260.06257    10.857879   -541.38127   -530.52339    7165.4586    31285.632    42201.135   -51990.392      15.2149      13.1765      28.7324    5760.2466 
  169000      168.987    261.55782    10.920307   -541.42693   -530.50662    7773.1031    34156.461    42200.295   -53037.447      15.2149      13.1765      28.7324    5760.2466 
  169500      169.487     262.0452    10.940656   -541.43046    -530.4898    8471.5735    33188.425    42817.075    -50590.78      15.2149      13.1765      28.7324    5760.2466 
  170000      169.987    272.24959      11.3667   -541.83973   -530.47303     7458.571    30905.713    42588.758   -51118.759      15.2149      13.1765      28.7324    5760.2466 
  170500      170.487    275.50845    11.502761    -541.9575   -530.45474    8409.6636    32358.769    42709.783   -49839.561      15.2149      13.1765      28.7324    5760.2466 
  171000      170.987     259.5965     10.83842   -541.27612    -530.4377    7973.9016    32363.087    46446.104   -54887.486      15.2149      13.1765      28.7324    5760.2466 
  171500      171.487    264.46979    11.041885   -541.46332   -530.42144    7984.9826    31574.148    41023.563   -48642.764      15.2149      13.1765      28.7324    5760.2466 
  172000      171.987    275.34758    11.496044   -541.90024   -530.40419    7171.1532    30116.447    42068.043    -50671.03      15.2149      13.1765      28.7324    5760.2466 
  172500      172.487    262.27176    10.950115   -541.33719   -530.38708    8367.8795    29252.559     47744.64    -51893.56      15.2149      13.1765      28.7324    5760.2466 
  173000      172.987    265.08796    11.067694    -541.4383   -530.37061    7286.5263    31792.536    42931.073    -52864.03      15.2149      13.1765      28.7324    5760.2466 
  173500      173.487    266.51364    11.127218   -541.48048   -530.35326    7769.2332    33070.872     41168.18   -50931.352      15.2149      13.1765      28.7324    5760.2466 
  174000      173.987    267.83399    11.182344   -541.51884   -530.33649    7384.0893    38080.752     41285.29   -57213.774      15.2149      13.1765      28.7324    5760.2466 
  174500      174.487    267.31554    11.160698    -541.4799    -530.3192    8107.1139    30690.957    44416.949   -50786.565      15.2149      13.1765      28.7324    5760.2466 
  175000      174.987    274.04811     11.44179   -541.74495   -530.30316     8175.583    30538.687    40739.155   -46751.092      15.2149      13.1765      28.7324    5760.2466 
  175500      175.487    281.22045    11.741243   -542.02723   -530.28598    7985.9103     31798.49    39498.316   -47339.075      15.2149      13.1765      28.7324    5760.2466 
  176000      175.987    257.21115     10.73883   -541.00747   -530.26864    7944.3636     32965.42    45042.085   -54174.414      15.2149      13.1765      28.7324    5760.2466 
  176500      176.487    265.40731    11.081028   -541.33285   -530.25183    7703.3447     30408.21    43175.754    -50473.93      15.2149      13.1765      28.7324    5760.2466 
  177000      176.987    276.85432    11.558952   -541.79458   -530.23563    7420.4088    30563.163    40378.351   -48680.289      15.2149      13.1765      28.7324    5760.2466 
  177500      177.487    279.07145     11.65152   -541.87069   -530.21917    7782.6526    30560.216    48364.882    -55577.14      15.2149      13.1765      28.7324    5760.2466 
  178000      177.987    269.25177    11.241538   -541.44222   -530.20068    7981.7951    30967.092    44452.969   -51474.676      15.2149      13.1765      28.7324    5760.2466 
  178500      178.487     266.7304    11.136268   -541.31975   -530.18348    7989.3863    30676.548    44559.632   -51268.021      15.2149      13.1765      28.7324    5760.2466 
  179000      178.987    272.94762    11.395843   -541.56285   -530.16701    7856.7363    31584.359    40953.913   -48968.063      15.2149      13.1765      28.7324    5760.2466 
  179500      179.487    257.40503    10.746924   -540.89561   -530.14869    8363.4618    32226.646    42486.827   -49623.087      15.2149      13.1765      28.7324    5760.2466 
  180000      179.987    269.04095    11.232736   -541.36573     -530.133    8765.5804    34925.684     43598.01   -52226.953      15.2149      13.1765      28.7324    5760.2466 
  180500      180.487    279.53488    11.670868   -541.78725   -530.11638    9235.9711    31372.086    40315.767    -43979.94      15.2149      13.1765      28.7324    5760.2466 
  181000      180.987    268.04011     11.19095   -541.28902   -530.09807    7522.8038    30802.764    41183.963   -49418.315      15.2149      13.1765      28.7324    5760.2466 
  181500      181.487    290.11333    12.112529   -542.19527   -530.08274    7405.3494    32266.286    42567.077   -52617.315      15.2149      13.1765      28.7324    5760.2466 
  182000      181.987    274.51206     11.46116   -541.52713   -530.06596    8043.5506    33026.491    41346.954   -50242.793      15.2149      13.1765      28.7324    5760.2466 
  182500      182.487    283.63993    11.842259   -541.89067   -530.04841    7199.2534    32632.491    44615.632   -55650.363      15.2149      13.1765      28.7324    5760.2466 
  183000      182.987    268.92327    11.227822   -541.25906   -530.03124    9715.1075    29378.113    44792.783   -45025.573      15.2149      13.1765      28.7324    5760.2466 
  183500      183.487    276.49128    11.543795   -541.55714   -530.01334    6766.5696     31813.11    45443.052   -56956.453      15.2149      13.1765      28.7324    5760.2466 
  184000      183.987    277.10085    11.569245    -541.5662   -529.99696    9010.5047    34313.345     40368.59   -47650.421      15.2149      13.1765      28.7324    5760.2466 
  184500      184.487    271.99175    11.355935   -541.33456   -529.97862    7631.4239     31687.64    43509.882    -52303.25      15.2149      13.1765      28.7324    5760.2466 
  185000      184.987    274.27872    11.451418   -541.41323   -529.96181     7256.874    30977.596    40272.037   -49479.012      15.2149      13.1765      28.7324    5760.2466 
  185500      185.487    269.02759    11.232178    -541.1765   -529.94432    6767.2757    28358.099    40182.462   -48238.733      15.2149      13.1765      28.7324    5760.2466 
  186000      185.987    268.04946     11.19134   -541.11847   -529.92713    7791.6465    31735.575    45606.943   -53967.579      15.2149      13.1765      28.7324    5760.2466 
  186500      186.487     276.1192     11.52826   -541.43845   -529.91019    7258.1262    28646.465    42859.818   -49731.905      15.2149      13.1765      28.7324    5760.2466 
  187000      186.987    256.46906    10.707847   -540.60076   -529.89292    7170.4806    30887.945     40137.05   -49513.553      15.2149      13.1765      28.7324    5760.2466 
  187500      187.487    271.00424    11.314705    -541.1907   -529.87599    9402.6102    30861.468    45996.571   -48650.209      15.2149      13.1765      28.7324    5760.2466 
  188000      187.987    260.90188    10.892921    -540.7515   -529.85857     7765.648    30751.272    46018.184   -53472.512      15.2149      13.1765      28.7324    5760.2466 
  188500      188.487    275.73052    11.512032   -541.35421   -529.84218    7755.1342    34616.304    39890.632   -51241.534      15.2149      13.1765      28.7324    5760.2466 
  189000      188.987    263.95906    11.020562   -540.84435   -529.82379    9162.8452     32629.24     42353.27   -47493.975      15.2149      13.1765      28.7324    5760.2466 
  189500      189.487    273.23619    11.407892   -541.21407   -529.80618    7602.1926    33540.441    43045.124   -53778.987      15.2149      13.1765      28.7324    5760.2466 
  190000      189.987    281.09669    11.736075    -541.5256   -529.78952    7624.5881    32714.084    43531.046   -53371.366      15.2149      13.1765      28.7324    5760.2466 
  190500      190.487     267.7934    11.180649   -540.95255    -529.7719    7463.7381    36296.556    41883.689   -55789.031      15.2149      13.1765      28.7324    5760.2466 
  191000      190.987    277.55273    11.588111   -541.34246   -529.75435    6695.2299    30444.181    44108.364   -54466.855      15.2149      13.1765      28.7324    5760.2466 
  191500      191.487    269.21656    11.240068   -540.97643   -529.73636    7513.8553    31279.946    46810.542   -55548.922      15.2149      13.1765      28.7324    5760.2466 
  192000      191.987    275.26631    11.492651   -541.21265      -529.72    7421.2844    31570.321    45620.096   -54926.564      15.2149      13.1765      28.7324    5760.2466 
  192500      192.487    276.00967    11.523687   -541.22625   -529.70257    8024.6913    36233.411     39540.33   -51699.666      15.2149      13.1765      28.7324    5760.2466 
  193000      192.987    273.44242    11.416502    -541.1017    -529.6852     7644.815    31156.729     43800.22   -52022.504      15.2149      13.1765      28.7324    5760.2466 
  193500      193.487    277.13044     11.57048   -541.23722   -529.66674    7877.1068    30554.328    46049.134   -52972.142      15.2149      13.1765      28.7324    5760.2466 
  194000      193.987    278.08856    11.610483   -541.26056   -529.65008    8756.2259    34304.019    42382.548   -50417.889      15.2149      13.1765      28.7324    5760.2466 
  194500      194.487    281.32759    11.745716   -541.37775   -529.63203    8140.8024    36383.186     43036.59   -54997.369      15.2149      13.1765      28.7324    5760.2466 
  195000      194.987    294.34685    12.289283   -541.90521   -529.61593    7708.5487    32987.192    42890.214    -52751.76      15.2149      13.1765      28.7324    5760.2466 
  195500      195.487    274.61278    11.465366   -541.06315   -529.59779    7065.8217    32383.093    42775.473   -53961.101      15.2149      13.1765      28.7324    5760.2466 
  196000      195.987    276.62308    11.549298   -541.12909   -529.57979    7694.6449    30053.906    46020.289    -52990.26      15.2149      13.1765      28.7324    5760.2466 
  196500      196.487    273.95007    11.437697   -541.00007   -529.56237    8457.5445     38250.83    44007.954   -56886.151      15.2149      13.1765      28.7324    5760.2466 
  197000      196.987    274.36921    11.455196    -540.9993    -529.5441    8390.7829      31472.9    44752.472   -51053.024      15.2149      13.1765      28.7324    5760.2466 
  197500      197.487    283.10481    11.819917   -541.34771   -529.52779    7725.7579    30455.794    44448.483   -51727.004      15.2149      13.1765      28.7324    5760.2466 
  198000      197.987    271.28922    11.326603   -540.83597   -529.50937    9244.4201    28308.134    45056.487    -45631.36      15.2149      13.1765      28.7324    5760.2466 
  198500      198.487    282.27373    11.785218    -541.2777   -529.49249    8120.6414    29829.091    37921.827   -43388.993      15.2149      13.1765      28.7324    5760.2466 
  199000      198.987     274.3619    11.454891   -540.92929    -529.4744    8868.5684    31812.783    44656.227   -49863.305      15.2149      13.1765      28.7324    5760.2466 
  199500      199.487    281.07118     11.73501   -541.19231    -529.4573    7976.2476    30533.448    43072.574   -49677.278      15.2149      13.1765      28.7324    5760.2466 
  200000      199.987    288.09681    12.028338   -541.46772   -529.43939    9023.0816    30046.513    44207.338   -47184.607      15.2149      13.1765      28.7324    5760.2466 
  200500      200.487    277.24429    11.575234   -540.99732   -529.42208    9472.5133    33776.463    44016.038   -49374.961      15.2149      13.1765      28.7324    5760.2466 
  201000      200.987     272.9853    11.397416   -540.80154   -529.40412    8739.2903    32635.292    43138.378   -49555.799      15.2149      13.1765      28.7324    5760.2466 
  201500      201.487    276.64244    11.550106   -540.93593   -529.38582      10236.6     34203.03    43916.076   -47409.306      15.2149      13.1765      28.7324    5760.2466 
  202000      201.987    283.89712    11.852996   -541.22209    -529.3691    7589.5673    35123.401    42802.974   -55157.673      15.2149      13.1765      28.7324    5760.2466 
  202500      202.487     273.6804    11.426438   -540.77707   -529.35063    9069.3127    34504.115     43013.79   -50309.967      15.2149      13.1765      28.7324    5760.2466 
  203000      202.987    273.70985    11.427667   -540.76089   -529.33322    6564.5439    31036.947    42768.209   -54111.524      15.2149      13.1765      28.7324    5760.2466 
  203500      203.487    281.27467    11.743506   -541.05948   -529.31597    8418.8601    30848.183    43950.715   -49542.318      15.2149      13.1765      28.7324    5760.2466 
  204000      203.987    266.54333    11.128458    -540.4265   -529.29805    8001.5915    28644.976    44027.323   -48667.525      15.2149      13.1765      28.7324    5760.2466 
  204500      204.487    274.61981    11.465659   -540.74566      -529.28    7770.2373    33681.377    44692.405    -55063.07      15.2149      13.1765      28.7324    5760.2466 
  205000      204.987     278.4399    11.625152   -540.88672   -529.26157    7142.3694    29580.597    49806.728   -57960.218      15.2149      13.1765      28.7324    5760.2466 
  205500      205.487    264.53938    11.044791    -540.2883   -529.24351    7983.6367      31453.2    45065.333   -52567.623      15.2149      13.1765      28.7324    5760.2466 
  206000      205.987    282.03915    11.775424    -541.0021   -529.22667    7343.2799    32820.965    38879.073   -49670.198      15.2149      13.1765      28.7324    5760.2466 
  206500      206.487    273.76463    11.429954   -540.63767   -529.20772    7547.7012    33501.701    40330.527   -51189.124      15.2149      13.1765      28.7324    5760.2466 
  207000      206.987    273.69263    11.426948   -540.61771   -529.19077    7901.0942    33083.338    44950.291   -54330.346      15.2149      13.1765      28.7324    5760.2466 
  207500      207.487    283.48953    11.835979   -541.00889   -529.17291    7300.9488    29281.917    45662.108   -53041.178      15.2149      13.1765      28.7324    5760.2466 
  208000      207.987    283.06244    11.818147   -540.97346   -529.15531    8550.4066    28125.255    47714.636   -50188.671      15.2149      13.1765      28.7324    5760.2466 
  208500      208.487    292.80245    12.224803   -541.36287   -529.13806    8389.6151    27848.478    46387.193   -49066.826      15.2149      13.1765      28.7324    5760.2466 
  209000      208.987    292.55309    12.214392   -541.33498   -529.12059    9673.7407    34404.671    41311.845   -46695.295      15.2149      13.1765      28.7324    5760.2466 
  209500      209.487    277.87799    11.601691    -540.7033   -529.10161    9370.1279    33876.853    44725.746   -50492.215      15.2149      13.1765      28.7324    5760.2466 
  210000      209.987    281.32629    11.745661   -540.82971   -529.08405    7735.5041    30469.174    44130.923   -51393.584      15.2149      13.1765      28.7324    5760.2466 
  210500      210.487    288.05042    12.026401   -541.09296   -529.06656    9866.3453    34894.348    42105.004   -47400.316      15.2149      13.1765      28.7324    5760.2466 
  211000      210.987    275.87391    11.518019   -540.56636   -529.04834    7639.9517    26175.226    44030.304   -47285.675      15.2149      13.1765      28.7324    5760.2466 
  211500      211.487    288.73532    12.054996   -541.08542   -529.03042    6986.1687    31319.664    44839.868   -55201.026      15.2149      13.1765      28.7324    5760.2466 
  212000      211.987    274.74841    11.471028   -540.48175   -529.01072    8831.0557    35061.597    45024.283   -53592.714      15.2149      13.1765      28.7324    5760.2466 
[...]
  948500      948.487    381.62167    15.933096   -537.45588   -521.52278    9617.2308    33163.893    47099.337   -51411.538      15.2149      13.1765      28.7324    5760.2466 
  949000      948.987    395.72827    16.522062   -538.04357   -521.52151    9253.2685    36024.844      41223.1   -49488.138      15.2149      13.1765      28.7324    5760.2466 
  949500      949.487     384.2445    16.042602   -537.56411   -521.52151    9483.8798    36453.214    46638.493   -54640.068      15.2149      13.1765      28.7324    5760.2466 
  950000      949.987    368.28315      15.3762   -536.89616   -521.51996    10919.951    36211.372    44103.445   -47554.964      15.2149      13.1765      28.7324    5760.2466 
  950500      950.487    372.12041    15.536409   -537.05561    -521.5192    9272.3328    33506.932    43632.824   -49322.758      15.2149      13.1765      28.7324    5760.2466 
  951000      950.987    386.03487    16.117352   -537.63593   -521.51858    10213.426    31605.297    46215.827   -47180.845      15.2149      13.1765      28.7324    5760.2466 
  951500      951.487    382.50645    15.970037   -537.48658   -521.51654    9675.9423    35007.096    42931.134   -48910.403      15.2149      13.1765      28.7324    5760.2466 
  952000      951.987    379.12921    15.829034   -537.34552   -521.51649    9097.9818    35311.006    46482.194   -54499.255      15.2149      13.1765      28.7324    5760.2466 
  952500      952.487    378.91501    15.820091   -537.33353   -521.51344    9415.2893    30982.172    45316.475   -48052.779      15.2149      13.1765      28.7324    5760.2466 
  953000      952.987    357.78434    14.937863   -536.44992   -521.51206    10080.076    35956.081    40872.728    -46588.58      15.2149      13.1765      28.7324    5760.2466 
  953500      953.487    383.29758    16.003067   -537.51455   -521.51149    9740.0113    36533.103    46154.579   -53467.647      15.2149      13.1765      28.7324    5760.2466 
  954000      953.987    386.54861    16.138801   -537.64989   -521.51109    8568.5891    32523.938    44179.011   -50997.182      15.2149      13.1765      28.7324    5760.2466 
  954500      954.487    373.11811    15.578064   -537.08589   -521.50783    10292.322    33694.733    44229.737   -47047.503      15.2149      13.1765      28.7324    5760.2466 
  955000      954.987     360.3428    15.044682   -536.55048   -521.50579    11469.871    37935.589    46299.655   -49825.632      15.2149      13.1765      28.7324    5760.2466 
  955500      955.487     366.6474    15.307906   -536.81271    -521.5048    10921.391    35025.422    43934.681   -46195.931      15.2149      13.1765      28.7324    5760.2466 
  956000      955.987    391.91256    16.362752   -537.86806   -521.50531    9025.5309    31765.149    45990.832   -50679.388      15.2149      13.1765      28.7324    5760.2466 
  956500      956.487    371.29179    15.501814    -537.0039   -521.50209    10829.953     33506.69    47244.083   -48260.916      15.2149      13.1765      28.7324    5760.2466 
  957000      956.987    362.45426    15.132838   -536.63311   -521.50027    10058.507     34717.45    45953.154   -50495.084      15.2149      13.1765      28.7324    5760.2466 
  957500      957.487    364.04966    15.199447   -536.69696   -521.49751    11497.524    34821.933    50390.619   -50719.981      15.2149      13.1765      28.7324    5760.2466 
  958000      957.987     361.2107    15.080918   -536.57571   -521.49479    11725.285    32671.265    43911.892   -41407.301      15.2149      13.1765      28.7324    5760.2466 
  958500      958.487    388.97668    16.240176   -537.73468   -521.49451    11006.957    37967.502    44765.698   -49712.328      15.2149      13.1765      28.7324    5760.2466 
  959000      958.987    386.42556    16.133664   -537.62685   -521.49319    11860.827    32806.979    41261.172   -38485.671      15.2149      13.1765      28.7324    5760.2466 
  959500      959.487    393.24219    16.418265   -537.91027   -521.49201    9703.9606    35957.014    45515.672   -52360.804      15.2149      13.1765      28.7324    5760.2466 
  960000      959.987    350.28492    14.624755   -536.11299   -521.48823    10997.654    34712.404    44730.489    -46449.93      15.2149      13.1765      28.7324    5760.2466 
  960500      960.487    358.63725    14.973474   -536.46007   -521.48659    10228.913    34074.419    47745.744   -51133.425      15.2149      13.1765      28.7324    5760.2466 
  961000      960.987     377.9328    15.779082   -537.26567   -521.48659    9831.2214     34422.51    44943.465   -49872.311      15.2149      13.1765      28.7324    5760.2466 
  961500      961.487    351.54365    14.677308   -536.16137   -521.48406    10734.453    31148.296    51645.801   -50590.738      15.2149      13.1765      28.7324    5760.2466 
  962000      961.987    372.17047    15.538499   -537.02124   -521.48274    10704.314    33000.839    50128.136   -51016.034      15.2149      13.1765      28.7324    5760.2466 
  962500      962.487    380.59371    15.890178   -537.37024   -521.48006     12034.56    32267.404    50329.647   -46493.371      15.2149      13.1765      28.7324    5760.2466 
  963000      962.987    374.57866    15.639044   -537.11747   -521.47843      9251.96    32061.643    46931.835   -51237.598      15.2149      13.1765      28.7324    5760.2466 
  963500      963.487    351.46767    14.674136   -536.14882   -521.47468    11199.628    32004.277    46417.576    -44822.97      15.2149      13.1765      28.7324    5760.2466 
  964000      963.987    362.27022    15.125154   -536.59854   -521.47338    9514.6296    35040.155    44297.404    -50793.67      15.2149      13.1765      28.7324    5760.2466 
  964500      964.487    367.91739    15.360929   -536.83273    -521.4718    9893.3494    35376.118    45856.286   -51552.355      15.2149      13.1765      28.7324    5760.2466 
  965000      964.987    381.27057    15.918438   -537.38827   -521.46983     9847.008    33294.686     48348.02   -52101.682      15.2149      13.1765      28.7324    5760.2466 
  965500      965.487    354.66735    14.807726   -536.27365   -521.46592    10834.486    31133.431    48235.987   -46865.959      15.2149      13.1765      28.7324    5760.2466 
  966000      965.987    359.17476    14.995915   -536.45845   -521.46254    10743.584    37977.046    45265.924   -51012.218      15.2149      13.1765      28.7324    5760.2466 
  966500      966.487    382.40103    15.965636   -537.42812   -521.46248    9541.2548    31185.265    47356.959   -49918.459      15.2149      13.1765      28.7324    5760.2466 
  967000      966.987    367.22442    15.331997     -536.791     -521.459    11548.048    35584.388    48350.043   -49290.287      15.2149      13.1765      28.7324    5760.2466 
  967500      967.487    384.92077    16.070837   -537.52649   -521.45566    9998.4535    29165.109    50276.929   -49446.677      15.2149      13.1765      28.7324    5760.2466 
  968000      967.987      347.315    14.500758   -535.95325   -521.45249    11657.995    34596.798    49664.692   -49287.503      15.2149      13.1765      28.7324    5760.2466 
  968500      968.487    373.49343    15.593734    -537.0447   -521.45097     9876.492    33042.142    50945.876   -54358.542      15.2149      13.1765      28.7324    5760.2466 
  969000      968.987    363.81239    15.189541   -536.63699   -521.44745    11483.402    36392.253    45426.907   -47368.953      15.2149      13.1765      28.7324    5760.2466 
  969500      969.487    360.06581    15.033117   -536.47781    -521.4447    10383.289    36539.945    49493.596   -54883.674      15.2149      13.1765      28.7324    5760.2466 
  970000      969.987     346.9599    14.485932   -535.92761   -521.44167    10001.631    34229.427    49719.473   -53944.006      15.2149      13.1765      28.7324    5760.2466 
  970500      970.487    370.82811    15.482454   -536.92164   -521.43918    9898.1196    31425.424    41970.037   -43701.102      15.2149      13.1765      28.7324    5760.2466 
  971000      970.987    398.04836    16.618928   -538.05777   -521.43884    11587.421    34189.641    45652.327   -45079.705      15.2149      13.1765      28.7324    5760.2466 
  971500      971.487    377.84694    15.775498   -537.21012   -521.43462    10675.007    36686.385     45855.39   -50516.754      15.2149      13.1765      28.7324    5760.2466 
  972000      971.987    365.52995    15.261251   -536.69199   -521.43074     10827.15    33569.161    47373.805   -48461.515      15.2149      13.1765      28.7324    5760.2466 
  972500      972.487    372.87809    15.568043   -536.99631   -521.42826    10394.217    29521.954     50349.42   -48688.723      15.2149      13.1765      28.7324    5760.2466 
  973000      972.987    366.32904    15.294614    -536.7199   -521.42529    9361.4702    29621.585    46927.291   -48464.466      15.2149      13.1765      28.7324    5760.2466 
  973500      973.487    349.70754    14.600649   -536.02186   -521.42121    11186.604    34049.302    52516.602    -53006.09      15.2149      13.1765      28.7324    5760.2466 
  974000      973.987    354.90026     14.81745   -536.23627   -521.41882    10675.648    31163.956    47634.859   -46771.871      15.2149      13.1765      28.7324    5760.2466 
  974500      974.487      382.672    15.976949   -537.39484   -521.41789    10725.746    32161.342    46728.445   -46712.548      15.2149      13.1765      28.7324    5760.2466 
  975000      974.987    356.53293    14.885616   -536.30005   -521.41443     11053.57    38243.927    47132.256   -52215.472      15.2149      13.1765      28.7324    5760.2466 
  975500      975.487    373.11202     15.57781   -536.98782   -521.41001    11242.335    31037.446    51257.468    -48567.91      15.2149      13.1765      28.7324    5760.2466 
  976000      975.987    364.05665    15.199739   -536.60752   -521.40778    11880.773     37130.05    47962.116   -49449.847      15.2149      13.1765      28.7324    5760.2466 
  976500      976.487    376.32912    15.712127   -537.11688   -521.40475    9212.7583    32147.253     48358.06   -52867.038      15.2149      13.1765      28.7324    5760.2466 
  977000      976.987    371.46715    15.509135   -536.90996   -521.40083    10395.327    31283.561    49759.866   -49857.445      15.2149      13.1765      28.7324    5760.2466 
  977500      977.487    376.12299    15.703521   -537.10002   -521.39649    10793.856    34203.366    45308.813   -47130.611      15.2149      13.1765      28.7324    5760.2466 
  978000      977.987    379.57392    15.847601   -537.23987   -521.39227    10039.356    30992.265    46853.126   -47727.324      15.2149      13.1765      28.7324    5760.2466 
  978500      978.487    391.59734    16.349591   -537.73871   -521.38911    8930.7601    34761.421    47612.536   -55581.676      15.2149      13.1765      28.7324    5760.2466 
  979000      978.987    379.20803    15.832325   -537.21752    -521.3852    10687.895     35560.74    47180.411   -50677.467      15.2149      13.1765      28.7324    5760.2466 
  979500      979.487    368.02505    15.365424   -536.74455   -521.37912    9974.1301    35160.098    49304.735   -54542.443      15.2149      13.1765      28.7324    5760.2466 
  980000      979.987    355.57083    14.845447   -536.22154   -521.37609    11728.544    32898.575    46681.952   -44394.896      15.2149      13.1765      28.7324    5760.2466 
  980500      980.487    367.41635     15.34001   -536.71165   -521.37164     11370.52    40554.577    43311.299   -49754.315      15.2149      13.1765      28.7324    5760.2466 
  981000      980.987    396.22319    16.542725   -537.91116   -521.36843     9277.437    38166.745    44041.408   -54375.841      15.2149      13.1765      28.7324    5760.2466 
  981500      981.487    383.12903     15.99603     -537.359   -521.36297    9568.5561    30580.398    46868.647   -48743.377      15.2149      13.1765      28.7324    5760.2466 
  982000      981.987    368.39831    15.381008   -536.74062   -521.35961    9408.2066    33762.405    48274.493   -53812.278      15.2149      13.1765      28.7324    5760.2466 
  982500      982.487    353.90164    14.775757   -536.13083   -521.35508    11876.585    35521.908    41121.082   -41013.235      15.2149      13.1765      28.7324    5760.2466 
  983000      982.987    386.95277    16.155675   -537.50776   -521.35208    11938.913    32421.169    44764.463   -41368.893      15.2149      13.1765      28.7324    5760.2466 
  983500      983.487    394.87583    16.486471   -537.83345   -521.34698    10238.802    35478.515    43945.172   -48707.281      15.2149      13.1765      28.7324    5760.2466 
  984000      983.987    346.93153    14.484748   -535.82586   -521.34111    11092.232    35499.473     50685.41   -52908.185      15.2149      13.1765      28.7324    5760.2466 
  984500      984.487    383.69267    16.019563   -537.35847   -521.33891     11635.19    33508.484    52734.553   -51337.468      15.2149      13.1765      28.7324    5760.2466 
  985000      984.987    398.14033    16.622768   -537.95725   -521.33448    10236.675    31544.891    49757.308   -50592.175      15.2149      13.1765      28.7324    5760.2466 
  985500      985.487    369.46509    15.425547   -536.75517   -521.32962    11611.874     37002.08    52329.653   -54496.111      15.2149      13.1765      28.7324    5760.2466 
  986000      985.987    377.43339    15.758231   -537.08244   -521.32421    11306.733    34483.654    47157.016   -47720.472      15.2149      13.1765      28.7324    5760.2466 
  986500      986.487    384.81223    16.066306   -537.38876   -521.32246    9551.9023    35261.629      51482.3   -58088.223      15.2149      13.1765      28.7324    5760.2466 
  987000      986.987    375.90042    15.694228   -537.01132   -521.31709    11044.947    34653.042    48569.721   -50087.922      15.2149      13.1765      28.7324    5760.2466 
  987500      987.487    365.13605    15.244805   -536.55739   -521.31258     10921.04    36282.974    46685.987   -50205.842      15.2149      13.1765      28.7324    5760.2466 
  988000      987.987    358.66362    14.974574   -536.28164   -521.30706    10434.719    35928.905    52918.215   -57542.963      15.2149      13.1765      28.7324    5760.2466 
  988500      988.487    388.90856    16.237332   -537.54239   -521.30506    9932.6274    34280.328    52218.662   -56701.107      15.2149      13.1765      28.7324    5760.2466 
  989000      988.987    364.28535    15.209287   -536.51041   -521.30112    10604.842    34723.334    48276.415   -51185.224      15.2149      13.1765      28.7324    5760.2466 
  989500      989.487    388.83097    16.234092   -537.53012   -521.29603    9850.5311    33886.776    45739.431   -50074.614      15.2149      13.1765      28.7324    5760.2466 
  990000      989.987    371.64213    15.516441   -536.80724    -521.2908    10326.151    33824.053    47302.056   -50147.657      15.2149      13.1765      28.7324    5760.2466 
  990500      990.487    377.16912    15.747198   -537.03508   -521.28789    10764.261    34303.079    50497.155    -52507.45      15.2149      13.1765      28.7324    5760.2466 
  991000      990.987    390.11065     16.28752   -537.57074   -521.28322    10448.449    30496.602    47598.719   -46749.975      15.2149      13.1765      28.7324    5760.2466 
  991500      991.487    356.31937      14.8767   -536.15304   -521.27634    12538.293    41591.174    45173.801   -49150.097      15.2149      13.1765      28.7324    5760.2466 
  992000      991.987    381.46441    15.926531   -537.19855   -521.27202    11504.565    36000.709    45684.569   -47171.584      15.2149      13.1765      28.7324    5760.2466 
  992500      992.487    370.40733    15.464886   -536.73231   -521.26742    12169.659    37881.532     45332.67   -46705.224      15.2149      13.1765      28.7324    5760.2466 
  993000      992.987    407.23526     17.00249   -538.26568   -521.26319    9494.1566    36197.882    50535.552   -58250.964      15.2149      13.1765      28.7324    5760.2466 
  993500      993.487    386.28219    16.127678   -537.38487   -521.25719    9832.2247    32239.274    49015.982   -51758.582      15.2149      13.1765      28.7324    5760.2466 
  994000      993.987     375.2628    15.667607   -536.92091    -521.2533    11347.151    35527.315    52834.544   -54320.405      15.2149      13.1765      28.7324    5760.2466 
  994500      994.487    379.07808    15.826899   -537.07327   -521.24637     10461.39     34622.67    50741.475   -53979.975      15.2149      13.1765      28.7324    5760.2466 
  995000      994.987    378.25085    15.792362   -537.03411   -521.24175    9997.5306    34923.743    43678.075   -48609.226      15.2149      13.1765      28.7324    5760.2466 
  995500      995.487    358.39141     14.96321   -536.19863   -521.23542    11459.098    34009.846    49174.179   -48806.731      15.2149      13.1765      28.7324    5760.2466 
  996000      995.987    395.35066    16.506296   -537.73981   -521.23351    9590.0089    33522.345    46030.859   -50783.178      15.2149      13.1765      28.7324    5760.2466 
  996500      996.487    362.71167    15.143585    -536.3703   -521.22671    9870.6497    30543.793    50611.481   -51543.324      15.2149      13.1765      28.7324    5760.2466 
  997000      996.987      369.204    15.414646   -536.63788   -521.22324    11252.707    34929.915    50455.645    -51627.44      15.2149      13.1765      28.7324    5760.2466 
  997500      997.487    365.83739    15.274087   -536.49053   -521.21644    11466.395     33924.58    50905.399   -50430.794      15.2149      13.1765      28.7324    5760.2466 
  998000      997.987    388.05855    16.201843   -537.41592   -521.21408    10940.828    34164.451    46907.487   -48249.452      15.2149      13.1765      28.7324    5760.2466 
  998500      998.487    385.34972    16.088746   -537.29712   -521.20838    10420.833    33426.719      49662.7   -51826.919      15.2149      13.1765      28.7324    5760.2466 
  999000      998.987    398.95232    16.656669   -537.86139   -521.20472    9394.5791    35168.704    48606.462   -55591.429      15.2149      13.1765      28.7324    5760.2466 
  999500      999.487    367.55143     15.34565   -536.54378   -521.19813    12466.986    37426.459    49475.313   -49500.815      15.2149      13.1765      28.7324    5760.2466 
 1000000      999.987    382.34708    15.963383   -537.15479   -521.19141    11644.379    35780.493     43863.58   -44710.935      15.2149      13.1765      28.7324    5760.2466 
 1000013         1000    395.13208     16.49717   -537.69059   -521.19342    11701.596    31547.077    42848.578   -39290.866      15.2149      13.1765      28.7324    5760.2466 
Loop time of 907.06 on 28 procs for 1000000 steps with 324 atoms

Performance: 95.253 ns/day, 0.252 hours/ns, 1102.463 timesteps/s
87.9% CPU use with 28 MPI tasks x no OpenMP threads

MPI task timing breakdown:
Section |  min time  |  avg time  |  max time  |%varavg| %total
---------------------------------------------------------------
Pair    | 747.73     | 788.87     | 835.83     |  87.2 | 86.97
Neigh   | 0.00011213 | 0.00014234 | 0.0002111  |   0.2 |  0.00
Comm    | 60.198     | 104.92     | 145.37     | 246.8 | 11.57
Output  | 0.098355   | 0.10142    | 0.12173    |   1.3 |  0.01
Modify  | 4.883      | 8.0449     | 16.607     | 125.8 |  0.89
Other   |            | 5.123      |            |       |  0.56

Nlocal:    11.5714 ave 15 max 8 min
Histogram: 2 5 4 0 2 5 0 3 3 4
Nghost:    659.679 ave 715 max 622 min
Histogram: 11 1 0 3 4 1 0 2 2 4
Neighs:    721.143 ave 1009 max 498 min
Histogram: 2 5 5 1 4 1 4 3 1 2
FullNghs:  1442.29 ave 1884 max 1004 min
Histogram: 2 5 4 1 1 5 1 2 3 4

Total # of neighbors = 40384
Ave neighs/atom = 124.642
Neighbor list builds = 2
Dangerous builds = 0

write_restart   POSCAR_1x1x1.rest

#unfix    1
#undump   1
Total wall time: 0:15:07
