LAMMPS (7 Dec 2015)
#----------- Initialize Simulation ------------ restart01
#processors	2 2 2
units		metal
boundary	p p p     ## periodic boundary condition  on x y z axis ##
atom_style atomic
#atom_modify map array sort 0 0.0

read_data	POSCAR_1x1x1.lammps
  triclinic box = (0 0 0) to (15.2149 13.1765 28.7324) with tilt (-7.60743 0 0)
  2 by 2 by 7 MPI processor grid
  reading atoms ...
  324 atoms

#----------- Define Potential -----------------
pair_style meam
pair_coeff * * MgAlZn.library.meam Mg Al Zn MgAlZn.parameter.meam Mg Al Zn 	#1=Mg 2=Al 3=Zn	#atoms/mass

#----------- Neighbor List --------------------
neighbor 2.0 bin
neigh_modify delay 10 check yes

#--------------  Run a simulation (minimization) ---------------------------------------
minimize       1.0e-4   1.0e-6   100   1000          #結構優化的條件
WARNING: Resetting reneighboring criteria during minimization (../min.cpp:168)
Neighbor list info ...
  2 neighbor list requests
  update every 1 steps, delay 0 steps, check yes
  max neighbors/atom: 2000, page size: 100000
  master list distance cutoff = 8
  ghost atom cutoff = 8
  binsize = 4 -> bins = 6 4 8
Memory usage per processor = 8.65643 Mbytes
Step Temp E_pair E_mol TotEng Press 
       0            0   -441.97419            0   -441.97419   -13338.796 
      14            0   -456.09311            0   -456.09311   -23226.544 
Loop time of 0.0236432 on 28 procs for 14 steps with 324 atoms

85.5% CPU use with 28 MPI tasks x no OpenMP threads

Minimization stats:
  Stopping criterion = energy tolerance
  Energy initial, next-to-last, final = 
        -441.974193551     -456.051314632     -456.093113649
  Force two-norm initial, final = 15.9089 0.980335
  Force max component initial, final = 1.9995 0.159227
  Final line search alpha, max atom move = 0.420935 0.0670244
  Iterations, force evaluations = 14 26

MPI task timing breakdown:
Section |  min time  |  avg time  |  max time  |%varavg| %total
---------------------------------------------------------------
Pair    | 0.019321   | 0.020334   | 0.021335   |   0.4 | 86.00
Neigh   | 0          | 0          | 0          |   0.0 |  0.00
Comm    | 0.0014805  | 0.0024277  | 0.0034658  |   1.1 | 10.27
Output  | 0          | 0          | 0          |   0.0 |  0.00
Modify  | 0          | 0          | 0          |   0.0 |  0.00
Other   |            | 0.0008814  |            |       |  3.73

Nlocal:    11.5714 ave 15 max 9 min
Histogram: 3 7 0 5 0 6 2 0 1 4
Nghost:    663.321 ave 716 max 629 min
Histogram: 6 4 2 3 5 0 2 0 4 2
Neighs:    717.643 ave 959 max 516 min
Histogram: 1 5 3 4 5 2 3 1 0 4
FullNghs:  1435.29 ave 1880 max 1092 min
Histogram: 3 3 4 5 2 4 2 1 0 4

Total # of neighbors = 40188
Ave neighs/atom = 124.037
Neighbor list builds = 0
Dangerous builds = 0
velocity all  create 393.0 4928459 #rot yes dist gaussian

#--------------  Run a simulation (Relaxation)  ----------------------------------------
fix  1  all  nvt   temp  393.0  393.0  100				#damping constant
#fix  2  all  npt   temp  393.0  393.0  50 iso 0.0 0.0 1000.0
#fix  2  all deform 1 x final 0 15.6906 y final 0 13.5884 z final 0 25.2339 xy final -7.8452 units lattice
#fix  3  all  npt   temp  393.0  393.0  50 z 0.0 0.0 1000.0

#variable b equal 1
#fix 2 all efield  0.0  0.0  v_b
#compute pot all pe/atom


#----------- Output --------------------------
thermo	 500
timestep  0.001		#1.0 fs
thermo_style	custom step time temp ke pe etotal press pxx pyy pzz lx ly lz vol

dump 1 all custom 10000 dump.eq id type x y z
dump_modify 1 sort  id

run        1000000	#10000	 ps
Neighbor list info ...
  2 neighbor list requests
  update every 1 steps, delay 10 steps, check yes
  max neighbors/atom: 2000, page size: 100000
  master list distance cutoff = 8
  ghost atom cutoff = 8
  binsize = 4 -> bins = 6 4 8
Memory usage per processor = 7.5469 Mbytes
Step Time Temp KinEng PotEng TotEng Press Pxx Pyy Pzz Lx Ly Lz Volume 
      14            0          393    16.408154   -456.09311   -439.68496   -20183.994    3494.5333    10920.712   -74967.226      15.2149      13.1765      28.7324    5760.2466 
     500        0.486     206.2798    8.6123934   -448.29435   -439.68195   -17099.721    9671.1758    14018.497   -74988.837      15.2149      13.1765      28.7324    5760.2466 
    1000        0.986    212.80227    8.8847135   -448.56655   -439.68183   -16680.478    9961.7321    14104.311   -74107.478      15.2149      13.1765      28.7324    5760.2466 
    1500        1.486    211.60838     8.834867   -448.51638   -439.68151   -16676.236    7305.9687    16893.487   -74228.162      15.2149      13.1765      28.7324    5760.2466 
    2000        1.986    211.60496    8.8347245   -448.51552   -439.68079   -16796.979    9666.0268    16023.147    -76080.11      15.2149      13.1765      28.7324    5760.2466 
    2500        2.486    218.74325    9.1327552   -448.81243   -439.67968   -16090.603    9572.5573    15333.432   -73177.797      15.2149      13.1765      28.7324    5760.2466 
    3000        2.986    207.78194    8.6751093   -448.35349   -439.67838   -16519.628    7369.0536    16384.239   -73312.176      15.2149      13.1765      28.7324    5760.2466 
    3500        3.486    207.13156    8.6479554   -448.32546    -439.6775   -17161.923    7667.2722    14939.032   -74092.073      15.2149      13.1765      28.7324    5760.2466 
    4000        3.986    208.59072    8.7088767   -448.38462   -439.67575    -17130.79    8646.6536    12171.383   -72210.407      15.2149      13.1765      28.7324    5760.2466 
    4500        4.486    205.49698    8.5797098   -448.25403   -439.67432   -16363.112    10666.338    15029.415   -74785.089      15.2149      13.1765      28.7324    5760.2466 
    5000        4.986    206.51548    8.6222332   -448.29455   -439.67232   -16903.166    7938.5126    15956.043   -74604.054      15.2149      13.1765      28.7324    5760.2466 
    5500        5.486    202.81276    8.4676409   -448.13773   -439.67009   -16203.994    9756.3437    14643.409   -73011.734      15.2149      13.1765      28.7324    5760.2466 
    6000        5.986    213.56154    8.9164136   -448.58421    -439.6678   -16733.396    8426.1576    15427.322   -74053.667      15.2149      13.1765      28.7324    5760.2466 
    6500        6.486    208.54149    8.7068215   -448.37205   -439.66523   -16758.034    9304.7408    13936.069   -73514.913      15.2149      13.1765      28.7324    5760.2466 
    7000        6.986    227.87975    9.5142137   -449.17691    -439.6627   -16804.462    10556.619    16474.193   -77444.197      15.2149      13.1765      28.7324    5760.2466 
    7500        7.486    197.55931    8.2483042   -447.90748   -439.65918    -15871.79    8036.9651    17419.248   -73071.584      15.2149      13.1765      28.7324    5760.2466 
    8000        7.986    217.08474    9.0635107   -448.71975   -439.65624   -15465.236    10692.364    19079.781   -76167.854      15.2149      13.1765      28.7324    5760.2466 
    8500        8.486    222.22929    9.2783012   -448.93112   -439.65282   -16360.347    9586.2079    16223.986   -74891.236      15.2149      13.1765      28.7324    5760.2466 
    9000        8.986     212.3596    8.8662314    -448.5154   -439.64917   -15425.009    10194.503     18221.42   -74690.951      15.2149      13.1765      28.7324    5760.2466 
    9500        9.486     209.4203    8.7435126   -448.38883   -439.64532   -15826.788    8773.7394    17733.859   -73987.962      15.2149      13.1765      28.7324    5760.2466 
   10000        9.986    214.91687    8.9730001   -448.61409   -439.64109   -15852.232    11690.436    18340.082   -77587.215      15.2149      13.1765      28.7324    5760.2466 
   10500       10.486    214.84987    8.9702027   -448.60714   -439.63693   -15878.427    10570.621    19187.999   -77393.902      15.2149      13.1765      28.7324    5760.2466 
   11000       10.986     217.3988    9.0766231   -448.70913   -439.63251   -16037.525    8339.4202    18650.665   -75102.661      15.2149      13.1765      28.7324    5760.2466 
   11500       11.486    224.04789    9.3542296   -448.98195   -439.62772   -16504.859     9039.977     19807.38   -78361.933      15.2149      13.1765      28.7324    5760.2466 
   12000       11.986    211.55601    8.8326807   -448.45537   -439.62269   -15686.245    10132.283    19728.402    -76919.42      15.2149      13.1765      28.7324    5760.2466 
   12500       12.486    212.32155    8.8646426   -448.48236   -439.61772   -15623.428    9435.6574    17966.504   -74272.447      15.2149      13.1765      28.7324    5760.2466 
   13000       12.986    203.71466    8.5052964   -448.11735   -439.61206   -15578.805    9836.4548    20930.108   -77502.977      15.2149      13.1765      28.7324    5760.2466 
   13500       13.486    222.58433    9.2931244   -448.90029   -439.60717    -16120.76     8911.506    19573.619   -76847.406      15.2149      13.1765      28.7324    5760.2466 
   14000       13.986    221.06657    9.2297564   -448.83094   -439.60118   -16132.389    7970.1629    17687.338   -74054.667      15.2149      13.1765      28.7324    5760.2466 
   14500       14.486    207.01244    8.6429819   -448.23805   -439.59507   -16167.356    8204.3015    19156.459   -75862.829      15.2149      13.1765      28.7324    5760.2466 
   15000       14.986     215.7852    9.0092535   -448.59839   -439.58914   -15816.451    10275.894    18106.201   -75831.446      15.2149      13.1765      28.7324    5760.2466 
   15500       15.486    213.62622    8.9191142    -448.5018   -439.58269   -16268.011     10212.81    16988.898   -76005.742      15.2149      13.1765      28.7324    5760.2466 
   16000       15.986    223.29869    9.3229494   -448.89901   -439.57606   -16109.901    9457.7432    17571.788   -75359.234      15.2149      13.1765      28.7324    5760.2466 
   16500       16.486    219.53495    9.1658096   -448.73564   -439.56983   -15752.357    9497.6239     18514.99   -75269.686      15.2149      13.1765      28.7324    5760.2466 
   17000       16.986    220.94096    9.2245119   -448.78735   -439.56283   -16186.762    9450.7955    18719.037   -76730.119      15.2149      13.1765      28.7324    5760.2466 
   17500       17.486    212.15608    8.8577341   -448.41333    -439.5556   -15535.602    10246.031    19059.708   -75912.544      15.2149      13.1765      28.7324    5760.2466 
   18000       17.986    218.37796     9.117504   -448.66605   -439.54854   -16631.039    8416.6213    19333.009   -77642.746      15.2149      13.1765      28.7324    5760.2466 
   18500       18.486    217.57371    9.0839258   -448.62479   -439.54086   -15829.398    9218.4767    18252.503   -74959.175      15.2149      13.1765      28.7324    5760.2466 
   19000       18.986    216.16158     9.024968   -448.55762   -439.53265   -16395.325    10648.456    17302.205   -77136.637      15.2149      13.1765      28.7324    5760.2466 
   19500       19.486    214.66268    8.9623875   -448.48736   -439.52498   -16016.351     9930.933     22027.25   -80007.236      15.2149      13.1765      28.7324    5760.2466 
   20000       19.986     218.6127    9.1273046   -448.64451    -439.5172   -16196.336    9908.4148    18536.739   -77034.161      15.2149      13.1765      28.7324    5760.2466 
   20500       20.486    226.61022    9.4612094   -448.97011    -439.5089   -16202.156    10418.278    19030.981   -78055.726      15.2149      13.1765      28.7324    5760.2466 
   21000       20.986    223.72292    9.3406617   -448.84052   -439.49986   -15796.429    8801.0403     18851.35   -75041.679      15.2149      13.1765      28.7324    5760.2466 
   21500       21.486    212.76627    8.8832101   -448.37434   -439.49113   -15688.449    9718.6652    18787.096   -75571.109      15.2149      13.1765      28.7324    5760.2466 
   22000       21.986    213.55068    8.9159602   -448.39826    -439.4823   -15937.821     8877.393    19471.459   -76162.314      15.2149      13.1765      28.7324    5760.2466 
   22500       22.486    210.52322    8.7895605   -448.26264   -439.47308    -15966.65    10261.098    19102.652   -77263.701      15.2149      13.1765      28.7324    5760.2466 
   23000       22.986    213.87188    8.9293706   -448.39315   -439.46378   -16145.323    8643.2912    20306.999   -77386.257      15.2149      13.1765      28.7324    5760.2466 
   23500       23.486    208.92021    8.7226334   -448.17635   -439.45372   -16344.462     9013.084    17706.728   -75753.197      15.2149      13.1765      28.7324    5760.2466 
   24000       23.986    220.58048    9.2094614   -448.65411   -439.44465   -16009.792    9077.3582     17757.72   -74864.454      15.2149      13.1765      28.7324    5760.2466 
   24500       24.486    219.19065    9.1514347   -448.58596   -439.43452   -16114.803    9251.6406    17409.794   -75005.843      15.2149      13.1765      28.7324    5760.2466 
   25000       24.986    212.73486     8.881899   -448.30634   -439.42444   -15661.835    9348.1486    21448.964   -77782.619      15.2149      13.1765      28.7324    5760.2466 
   25500       25.486     203.8571    8.5112435   -447.92511   -439.41386   -14828.513    9017.6656    21336.887    -74840.09      15.2149      13.1765      28.7324    5760.2466 
   26000       25.986    218.17157    9.1088869   -448.51283   -439.40394   -15931.376    10663.397      19735.1   -78192.625      15.2149      13.1765      28.7324    5760.2466 
   26500       26.486    218.40855    9.1187812   -448.51234   -439.39356   -16563.251    9506.9548    17730.384   -76927.091      15.2149      13.1765      28.7324    5760.2466 
   27000       26.986    219.66624    9.1712912   -448.55429     -439.383   -16102.297    11449.804    16844.549   -76601.245      15.2149      13.1765      28.7324    5760.2466 
   27500       27.486    229.51051    9.5822993   -448.95469   -439.37239   -16156.616    9845.9484    18713.401   -77029.198      15.2149      13.1765      28.7324    5760.2466 
   28000       27.986    218.02592    9.1028062   -448.46423   -439.36142   -15561.092     9823.128    21282.607   -77789.012      15.2149      13.1765      28.7324    5760.2466 
   28500       28.486    219.53296    9.1657263   -448.51597   -439.35025   -16741.269    8235.3258    18463.288   -76922.421      15.2149      13.1765      28.7324    5760.2466 
   29000       28.986    211.07895    8.8127628   -448.15152   -439.33876   -15408.653    10049.892    20946.375   -77222.227      15.2149      13.1765      28.7324    5760.2466 
   29500       29.486    220.48847    9.2056198   -448.53332    -439.3277   -15470.283    11014.856    19673.751   -77099.456      15.2149      13.1765      28.7324    5760.2466 
   30000       29.986    224.40845     9.369283   -448.68538   -439.31609   -15572.838    11313.692    19940.002   -77972.209      15.2149      13.1765      28.7324    5760.2466 
   30500       30.486    222.20011    9.2770829   -448.58171   -439.30463    -16203.93    10543.587    17892.698   -77048.074      15.2149      13.1765      28.7324    5760.2466 
   31000       30.986    227.74482      9.50858   -448.80152   -439.29294   -16038.068    10911.365    18556.538   -77582.108      15.2149      13.1765      28.7324    5760.2466 
   31500       31.486     229.8447    9.5962523   -448.87737   -439.28112   -15743.455    9314.7755    17548.604   -74093.746      15.2149      13.1765      28.7324    5760.2466 
   32000       31.986    214.17729    8.9421218   -448.21077   -439.26865   -16119.256    7801.5406    20204.821    -76364.13      15.2149      13.1765      28.7324    5760.2466 
   32500       32.486    216.20278    9.0266879   -448.28353   -439.25684   -16420.012    8457.1596    17991.178   -75708.375      15.2149      13.1765      28.7324    5760.2466 
   33000       32.986    221.33692    9.2410438   -448.48628   -439.24524   -15680.312    11774.105    18393.945   -77208.987      15.2149      13.1765      28.7324    5760.2466 
   33500       33.486    213.15359    8.8993813   -448.13218    -439.2328   -16178.368    10476.241    16583.883   -75595.227      15.2149      13.1765      28.7324    5760.2466 
   34000       33.986    216.55773    9.0415076   -448.26164   -439.22013   -15331.468    10921.523     20810.97   -77726.897      15.2149      13.1765      28.7324    5760.2466 
   34500       34.486    215.52188    8.9982597   -448.20636    -439.2081   -15528.021    9422.8362    18312.215   -74319.115      15.2149      13.1765      28.7324    5760.2466 
   35000       34.986     227.5832    9.5018323   -448.69748   -439.19565   -15684.138    9382.4916    18847.633   -75282.539      15.2149      13.1765      28.7324    5760.2466 
   35500       35.486    216.80508    9.0518346   -448.23458   -439.18274   -15997.007    9779.2554    18629.239   -76399.516      15.2149      13.1765      28.7324    5760.2466 
   36000       35.986    229.67862    9.5893182   -448.75963   -439.17031   -16275.591    9629.1521    20523.583   -78979.509      15.2149      13.1765      28.7324    5760.2466 
   36500       36.486    216.18899    9.0261124   -448.18357   -439.15745   -15279.719    10839.376     19845.47   -76524.002      15.2149      13.1765      28.7324    5760.2466 
   37000       36.986    216.05469    9.0205052    -448.1654   -439.14489   -16076.927    10341.612    19320.397    -77892.79      15.2149      13.1765      28.7324    5760.2466 
   37500       37.486    225.46713    9.4134843   -448.54619   -439.13271   -15824.088    10921.052    16103.378   -74496.693      15.2149      13.1765      28.7324    5760.2466 
   38000       37.986    233.93595    9.7670661   -448.88689   -439.11982   -16260.994    9557.0416    18402.925   -76742.949      15.2149      13.1765      28.7324    5760.2466 
   38500       38.486    215.22521    8.9858734    -448.0925   -439.10663    -15089.87    10638.314    19725.389   -75633.313      15.2149      13.1765      28.7324    5760.2466 
   39000       38.986    218.66042    9.1292972    -448.2229    -439.0936    -16452.36    10243.384    17845.968   -77446.431      15.2149      13.1765      28.7324    5760.2466 
   39500       39.486    224.18649    9.3600162   -448.44084   -439.08082   -15654.986    10133.699    18693.173   -75791.828      15.2149      13.1765      28.7324    5760.2466 
   40000       39.986    226.83121    9.4704358   -448.53852   -439.06809    -15168.89    11401.952    18744.306   -75652.928      15.2149      13.1765      28.7324    5760.2466 
   40500       40.486    224.41971    9.3697532   -448.42477   -439.05502    -15185.26    9794.0003    20270.261   -75620.042      15.2149      13.1765      28.7324    5760.2466 
   41000       40.986     233.0699    9.7309078   -448.77339   -439.04248   -15396.341     10175.79    17979.039   -74343.854      15.2149      13.1765      28.7324    5760.2466 
   41500       41.486    214.70864    8.9643063   -447.99328   -439.02897   -15340.992    11281.621    18653.907   -75958.502      15.2149      13.1765      28.7324    5760.2466 
   42000       41.986    224.65628    9.3796305    -448.3957   -439.01607   -16253.171    10792.013    17813.517   -77365.043      15.2149      13.1765      28.7324    5760.2466 
   42500       42.486    223.64746    9.3375112   -448.34097   -439.00345    -16189.38    8154.8796    20783.072   -77506.092      15.2149      13.1765      28.7324    5760.2466 
   43000       42.986    220.45118    9.2040632   -448.19431   -438.99025    -15552.38     10280.16    20297.607   -77234.907      15.2149      13.1765      28.7324    5760.2466 
   43500       43.486    226.32381    9.4492513   -448.42703   -438.97778   -15357.299    9818.7834    19359.762   -75250.441      15.2149      13.1765      28.7324    5760.2466 
   44000       43.986    210.91062    8.8057349   -447.77066   -438.96493   -14992.922    12531.124    21145.257   -78655.148      15.2149      13.1765      28.7324    5760.2466 
   44500       44.486    227.97361    9.5181322   -448.47028   -438.95215   -16515.081    10329.617    17883.881   -77758.742      15.2149      13.1765      28.7324    5760.2466 
   45000       44.986    223.02409    9.3114847   -448.25069    -438.9392   -15033.212    11177.325    18886.435   -75163.396      15.2149      13.1765      28.7324    5760.2466 
   45500       45.486    214.75006    8.9660355   -447.89217   -438.92613   -15865.145    10292.313    18930.505   -76818.253      15.2149      13.1765      28.7324    5760.2466 
   46000       45.986    209.46178    8.7452445   -447.65883   -438.91358   -16104.398    8001.7054    23129.484   -79444.384      15.2149      13.1765      28.7324    5760.2466 
   46500       46.486    227.16334    9.4843027   -448.38537   -438.90107   -16069.806    8720.9795    19617.781   -76548.179      15.2149      13.1765      28.7324    5760.2466 
   47000       46.986    225.11699    9.3988655   -448.28728   -438.88842    -15363.24    9836.1771     20771.57   -76697.468      15.2149      13.1765      28.7324    5760.2466 
   47500       47.486    221.10643    9.2314207    -448.1073   -438.87588   -15920.572    9244.3349    20271.603   -77277.653      15.2149      13.1765      28.7324    5760.2466 
   48000       47.986    228.46818    9.5387812   -448.40204   -438.86326   -15571.789    11033.536    18925.513   -76674.417      15.2149      13.1765      28.7324    5760.2466 
   48500       48.486    218.31397    9.1148324   -447.96543    -438.8506   -16400.791    7748.0618    18603.588   -75554.023      15.2149      13.1765      28.7324    5760.2466 
   49000       48.986    228.73502    9.5499221   -448.38837   -438.83845   -16506.658    8834.1121    16620.434   -74974.519      15.2149      13.1765      28.7324    5760.2466 
   49500       49.486    224.05151    9.3543808   -448.18034   -438.82595   -15675.939    10727.059    18400.497   -76155.372      15.2149      13.1765      28.7324    5760.2466 
   50000       49.986    228.92323    9.5577798   -448.37167   -438.81389   -15895.738    8847.0676    17191.466   -73725.748      15.2149      13.1765      28.7324    5760.2466 
   50500       50.486    224.70104     9.381499   -448.18349   -438.80199   -16241.737    9699.7127    17275.029   -75699.952      15.2149      13.1765      28.7324    5760.2466 
   51000       50.986    237.27512    9.9064798    -448.6959   -438.78943   -15279.741    11190.631    18755.088   -75784.942      15.2149      13.1765      28.7324    5760.2466 
   51500       51.486     224.9673    9.3926159   -448.17001   -438.77739   -15488.951    9500.7372    19886.932   -75854.523      15.2149      13.1765      28.7324    5760.2466 
   52000       51.986     221.3091    9.2398821   -448.00496   -438.76508   -16097.012    9965.4532    19430.445   -77686.935      15.2149      13.1765      28.7324    5760.2466 
   52500       52.486    226.36575    9.4510025   -448.20431    -438.7533   -15194.497    11518.657    17844.942    -74947.09      15.2149      13.1765      28.7324    5760.2466 
   53000       52.986    234.82597    9.8042252   -448.54579   -438.74156   -15545.728    9258.7554     19156.86     -75052.8      15.2149      13.1765      28.7324    5760.2466 
   53500       53.486    231.59301     9.669246    -448.3993   -438.73005   -16010.332    9189.3929     18859.83   -76080.219      15.2149      13.1765      28.7324    5760.2466 
   54000       53.986    229.30936    9.5739012   -448.29186   -438.71796   -15803.227    8879.5364    17568.141   -73857.358      15.2149      13.1765      28.7324    5760.2466 
   54500       54.486    215.61879    9.0023058   -447.70889   -438.70658   -14904.221    10185.665    19130.617   -74028.946      15.2149      13.1765      28.7324    5760.2466 
   55000       54.986    225.72968    9.4244459   -448.11953   -438.69508   -15334.049    11345.539    16901.979   -74249.666      15.2149      13.1765      28.7324    5760.2466 
   55500       55.486    235.53568    9.8338565   -448.51735    -438.6835    -15142.47    10607.149    19757.882   -75792.442      15.2149      13.1765      28.7324    5760.2466 
   56000       55.986      227.679     9.505832   -448.17768   -438.67185   -15989.658    11270.812     17178.14   -76417.926      15.2149      13.1765      28.7324    5760.2466 
   56500       56.486    233.08335    9.7314692    -448.3922   -438.66073   -16107.845    10358.932    20870.514   -79552.981      15.2149      13.1765      28.7324    5760.2466 
   57000       56.986    226.46232    9.4550344   -448.10412   -438.64908   -15052.843     12185.88     18110.74   -75455.148      15.2149      13.1765      28.7324    5760.2466 
   57500       57.486    229.53683    9.5833982   -448.22073   -438.63733    -15975.08    8653.5495    18738.265   -75317.056      15.2149      13.1765      28.7324    5760.2466 
   58000       57.986    218.60313    9.1269052   -447.75322   -438.62631   -15490.727    10099.069    19457.469   -76028.717      15.2149      13.1765      28.7324    5760.2466 
   58500       58.486    239.61643    10.004232   -448.62002   -438.61579   -15888.116    10269.723     18908.09    -76842.16      15.2149      13.1765      28.7324    5760.2466 
   59000       58.986    236.77455    9.8855806   -448.48987   -438.60429   -15912.386    8557.9059    19755.651   -76050.713      15.2149      13.1765      28.7324    5760.2466 
   59500       59.486    225.97992    9.4348936   -448.02809   -438.59319   -16031.255    10436.396    18907.615   -77437.778      15.2149      13.1765      28.7324    5760.2466 
   60000       59.986    237.71702    9.9249298   -448.50735   -438.58242   -15189.676    9565.2177    19855.845   -74990.092      15.2149      13.1765      28.7324    5760.2466 
   60500       60.486    240.33839    10.034374   -448.60615   -438.57178   -15808.595    10961.015    19042.355   -77429.154      15.2149      13.1765      28.7324    5760.2466 
   61000       60.986    236.75768    9.8848762   -448.44516   -438.56028   -15627.031    10049.471    19285.875   -76216.438      15.2149      13.1765      28.7324    5760.2466 
   61500       61.486    232.20165    9.6946571   -448.24431   -438.54966    -15881.16    9884.8811    20694.718    -78223.08      15.2149      13.1765      28.7324    5760.2466 
   62000       61.986      224.327    9.3658828   -447.90414   -438.53826   -14917.015    11993.147    20697.104   -77441.297      15.2149      13.1765      28.7324    5760.2466 
   62500       62.486    224.14274    9.3581895   -447.88567   -438.52748   -15252.223    11724.384    19046.137   -76527.189      15.2149      13.1765      28.7324    5760.2466 
   63000       62.986    230.01829    9.6034999   -448.12014   -438.51664   -15702.844    9497.8092    19361.658   -75967.999      15.2149      13.1765      28.7324    5760.2466 
   63500       63.486    237.42195    9.9126104   -448.41841   -438.50579   -15511.835    10990.822    18373.522   -75899.849      15.2149      13.1765      28.7324    5760.2466 
   64000       63.986    226.72222    9.4658856   -447.96107   -438.49519     -14740.6    11687.603    20181.086   -76090.489      15.2149      13.1765      28.7324    5760.2466 
   64500       64.486    233.24081    9.7380432    -448.2229   -438.48485   -15358.082    9345.9644    19862.479   -75282.688      15.2149      13.1765      28.7324    5760.2466 
   65000       64.986    232.15514    9.6927156   -448.16665   -438.47393    -16066.95    10017.536     17449.73   -75668.114      15.2149      13.1765      28.7324    5760.2466 
   65500       65.486    228.19544    9.5273937   -447.99057   -438.46317   -15900.071     10051.22    17718.962   -75470.396      15.2149      13.1765      28.7324    5760.2466 
   66000       65.986    215.68564    9.0050969   -447.45736   -438.45226   -15359.775    10080.281    18621.586   -74781.192      15.2149      13.1765      28.7324    5760.2466 
   66500       66.486    236.78945    9.8862025   -448.32806   -438.44186   -15834.327    10262.865    17457.169   -75223.015      15.2149      13.1765      28.7324    5760.2466 
   67000       66.986    234.82461    9.8041687   -448.23558   -438.43141   -15480.014    11020.218    18477.695   -75937.956      15.2149      13.1765      28.7324    5760.2466 
   67500       67.486    216.44893    9.0369652    -447.4575   -438.42054   -14892.441    8873.3505    19691.637   -73242.311      15.2149      13.1765      28.7324    5760.2466 
   68000       67.986    231.87948    9.6812064   -448.09144   -438.41023   -15167.431    11972.749    19247.527   -76722.569      15.2149      13.1765      28.7324    5760.2466 
   68500       68.486    239.40591    9.9954427   -448.39489   -438.39944   -15522.894    9589.4941    19458.345    -75616.52      15.2149      13.1765      28.7324    5760.2466 
   69000       68.986     223.7997    9.3438674    -447.7328   -438.38894   -15434.352    11284.651    19656.531   -77244.239      15.2149      13.1765      28.7324    5760.2466 
   69500       69.486    227.41636    9.4948666   -447.87324   -438.37837   -15518.014    9508.4409    18702.471   -74764.953      15.2149      13.1765      28.7324    5760.2466 
   70000       69.986    228.40216    9.5360248   -447.90378   -438.36775   -15855.268    9767.3254    19442.427   -76775.558      15.2149      13.1765      28.7324    5760.2466 
   70500       70.486    227.68844     9.506226   -447.86326   -438.35703    -15410.09    10031.703    18576.289   -74838.263      15.2149      13.1765      28.7324    5760.2466 
   71000       70.986     239.8477    10.013888   -448.36087   -438.34698   -15586.292    9476.4937    20837.076   -77072.446      15.2149      13.1765      28.7324    5760.2466 
   71500       71.486    227.11023    9.4820854   -447.81811   -438.33603   -15470.298    8952.2315    18790.571   -74153.696      15.2149      13.1765      28.7324    5760.2466 
   72000       71.986    238.12192    9.9418348   -448.26731   -438.32548   -15703.914    10370.531    18677.362   -76159.637      15.2149      13.1765      28.7324    5760.2466 
   72500       72.486    233.86249     9.763999   -448.07899   -438.31499   -15727.878    10811.677    16313.182   -74308.493      15.2149      13.1765      28.7324    5760.2466 
   73000       72.986    236.02492    9.8542828   -448.15868    -438.3044   -16119.335    9167.8977    17738.721   -75264.624      15.2149      13.1765      28.7324    5760.2466 
   73500       73.486    236.10039    9.8574335   -448.15111   -438.29368   -15166.372    10327.324    18379.432   -74205.872      15.2149      13.1765      28.7324    5760.2466 
   74000       73.986    227.74546    9.5086067   -447.79124   -438.28263   -15448.613    10019.626    18760.798   -75126.262      15.2149      13.1765      28.7324    5760.2466 
   74500       74.486     219.3722    9.1590146   -447.43071   -438.27169   -15114.649    10275.385    21674.408    -77293.74      15.2149      13.1765      28.7324    5760.2466 
   75000       74.986    237.09648    9.8990217   -448.16045   -438.26143   -15513.381    9187.6923    17536.293   -73264.128      15.2149      13.1765      28.7324    5760.2466 
   75500       75.486    225.12546    9.3992191    -447.6494   -438.25018   -15980.271    10046.254    16123.114   -74110.182      15.2149      13.1765      28.7324    5760.2466 
   76000       75.986    233.15569    9.7344896   -447.97444   -438.23995   -15856.273    11045.195    18439.745   -77053.759      15.2149      13.1765      28.7324    5760.2466 
   76500       76.486    227.28382    9.4893331   -447.71863    -438.2293   -15996.028    8523.4427    21608.702   -78120.227      15.2149      13.1765      28.7324    5760.2466 
   77000       76.986    238.20926     9.945481   -448.16357   -438.21809    -15205.09    9836.1527    20763.737   -76215.159      15.2149      13.1765      28.7324    5760.2466 
   77500       77.486    238.24995    9.9471802   -448.15413   -438.20695   -16242.156    8369.4965    20708.232   -77804.197      15.2149      13.1765      28.7324    5760.2466 
   78000       77.986    235.38278    9.8274726   -448.02377    -438.1963   -15467.958       9472.5    18293.397   -74169.771      15.2149      13.1765      28.7324    5760.2466 
   78500       78.486    227.36212    9.4926019   -447.67797   -438.18537   -15509.689    9091.0793    18975.562   -74595.707      15.2149      13.1765      28.7324    5760.2466 
   79000       78.986    232.00204    9.6863233   -447.86034   -438.17402   -15293.758    11765.537    18096.194   -75743.006      15.2149      13.1765      28.7324    5760.2466 
   79500       79.486    244.94961    10.226898   -448.38997   -438.16307   -15295.212     11486.95    19810.056   -77182.643      15.2149      13.1765      28.7324    5760.2466 
   80000       79.986    230.34954    9.6173298    -447.7695   -438.15217    -15257.14    11428.896    18636.047   -75836.363      15.2149      13.1765      28.7324    5760.2466 
   80500       80.486    237.08463    9.8985268   -448.03955   -438.14103   -15315.798     8931.109    20456.649   -75335.151      15.2149      13.1765      28.7324    5760.2466 
   81000       80.986    228.92377    9.5578024   -447.68746   -438.12966   -15151.515    9639.9487    21141.421   -76235.914      15.2149      13.1765      28.7324    5760.2466 
   81500       81.486    230.87407    9.6392296   -447.75781   -438.11858   -14850.663    11997.329    20616.828   -77166.145      15.2149      13.1765      28.7324    5760.2466 
   82000       81.986    239.92116    10.016955   -448.12467   -438.10771   -15586.737    10680.359    19052.174   -76492.743      15.2149      13.1765      28.7324    5760.2466 
   82500       82.486    232.62603    9.7123755   -447.80824   -438.09587   -14392.091    13540.258    19747.016   -76463.547      15.2149      13.1765      28.7324    5760.2466 
   83000       82.986    242.83322    10.138536   -448.22287   -438.08434   -15311.026    11970.406    17135.672   -75039.157      15.2149      13.1765      28.7324    5760.2466 
   83500       83.486    225.88715    9.4310203   -447.50409   -438.07307   -14563.974    11946.091    20653.921   -76291.933      15.2149      13.1765      28.7324    5760.2466 
   84000       83.986    241.02924    10.063218   -448.12507   -438.06185   -14818.904    10998.705    18987.566   -74442.984      15.2149      13.1765      28.7324    5760.2466 
   84500       84.486    231.64846     9.671561   -447.72179   -438.05023   -15452.458    11312.513    19925.882   -77595.769      15.2149      13.1765      28.7324    5760.2466 
   85000       84.986    242.54796    10.126626   -448.16543    -438.0388   -15844.933     11120.27    19950.386   -78605.454      15.2149      13.1765      28.7324    5760.2466 
   85500       85.486     241.3425    10.076297   -448.10336   -438.02706   -15365.505    9523.7366    17981.751   -73602.002      15.2149      13.1765      28.7324    5760.2466 
   86000       85.986    221.05301      9.22919   -447.24459    -438.0154    -15426.17    11369.562    19526.772   -77174.843      15.2149      13.1765      28.7324    5760.2466 
   86500       86.486    248.09741    10.358322   -448.36211   -438.00379   -15685.238    12453.432    18299.362   -77808.509      15.2149      13.1765      28.7324    5760.2466 
   87000       86.986    236.28955    9.8653316   -447.85708   -437.99175   -15198.095    8899.9314    18781.395   -73275.611      15.2149      13.1765      28.7324    5760.2466 
   87500       87.486    226.70504    9.4651682   -447.44474   -437.97958   -14863.929    9247.4206    20760.713   -74599.922      15.2149      13.1765      28.7324    5760.2466 
   88000       87.986    243.01518    10.146133   -448.11453   -437.96839   -14983.089    10664.901    18959.193    -74573.36      15.2149      13.1765      28.7324    5760.2466 
   88500       88.486    253.93347    10.601983   -448.55852   -437.95654   -15456.382    11261.849    17681.556   -75312.551      15.2149      13.1765      28.7324    5760.2466 
   89000       88.986    242.50609    10.124878   -448.06905   -437.94417   -14901.536    9132.7561    19086.552   -72923.918      15.2149      13.1765      28.7324    5760.2466 
   89500       89.486    228.72669    9.5495743   -447.48108   -437.93151    -14553.64     13465.84    19628.659   -76755.419      15.2149      13.1765      28.7324    5760.2466 
   90000       89.986    215.75855    9.0081409    -446.9274   -437.91926   -13987.036    12481.708    20586.074   -75028.889      15.2149      13.1765      28.7324    5760.2466 
   90500       90.486    231.03197     9.645822   -447.55316   -437.90733   -14281.738    11742.986    20013.928   -74602.128      15.2149      13.1765      28.7324    5760.2466 
   91000       90.986    224.71114    9.3819208   -447.27682    -437.8949    -15619.47    9862.6924    20223.445   -76944.548      15.2149      13.1765      28.7324    5760.2466 
   91500       91.486     239.5027    9.9994835   -447.88212   -437.88264   -14521.204    9681.4828     20403.86   -73648.954      15.2149      13.1765      28.7324    5760.2466 
   92000       91.986    239.05928    9.9809704   -447.85168   -437.87071   -14970.729    10602.952    20280.612    -75795.75      15.2149      13.1765      28.7324    5760.2466 
   92500       92.486    232.77675    9.7186685   -447.57651   -437.85784   -14188.822    12840.326    21139.652   -76546.445      15.2149      13.1765      28.7324    5760.2466 
   93000       92.986    228.85904    9.5550998   -447.40037   -437.84527   -14935.112    12499.134    20468.319    -77772.79      15.2149      13.1765      28.7324    5760.2466 
   93500       93.486    242.60738    10.129107     -447.962   -437.83289   -15510.662    8211.1165    21548.045   -76291.146      15.2149      13.1765      28.7324    5760.2466 
   94000       93.986    229.69364    9.5899453   -447.41047   -437.82052   -15470.698    9742.1402    19887.109   -76041.342      15.2149      13.1765      28.7324    5760.2466 
   94500       94.486     233.2742    9.7394374   -447.54728   -437.80784   -15426.853    9601.7445    19038.894   -74921.197      15.2149      13.1765      28.7324    5760.2466 
   95000       94.986    237.66566    9.9227853   -447.71749   -437.79471   -15348.782    11140.496    21187.274   -78374.118      15.2149      13.1765      28.7324    5760.2466 
   95500       95.486    258.61681    10.797517   -448.58006   -437.78255   -15207.054    11981.804    22582.174   -80185.141      15.2149      13.1765      28.7324    5760.2466 
   96000       95.986    235.81929    9.8456974   -447.61501   -437.76931    -14865.34    11125.436    19218.242   -74939.699      15.2149      13.1765      28.7324    5760.2466 
   96500       96.486     243.1582    10.152105   -447.90905   -437.75695   -15184.961    10699.828    21078.083   -77332.793      15.2149      13.1765      28.7324    5760.2466 
   97000       96.986    236.52218    9.8750438   -447.61847   -437.74343   -14422.376    12343.435    18889.937   -74500.499      15.2149      13.1765      28.7324    5760.2466 
   97500       97.486    236.24258    9.8633701   -447.59346   -437.73009   -15179.921    11951.419    18831.363   -76322.544      15.2149      13.1765      28.7324    5760.2466 
   98000       97.986    233.15107    9.7342964   -447.45136   -437.71706   -15177.663    11075.753    20215.007   -76823.748      15.2149      13.1765      28.7324    5760.2466 
   98500       98.486     238.4855    9.9570145   -447.66105   -437.70403   -14714.508    10913.679    23237.852   -78295.056      15.2149      13.1765      28.7324    5760.2466 
   99000       98.986    246.70068    10.300007   -447.99095   -437.69094   -14819.006    9119.9671    20943.231   -74520.215      15.2149      13.1765      28.7324    5760.2466 
   99500       99.486    244.29316     10.19949   -447.87702   -437.67753   -15461.873    10239.563    19648.201   -76273.381      15.2149      13.1765      28.7324    5760.2466 
  100000       99.986    228.04291    9.5210257     -447.185   -437.66398   -14513.755    10423.721    23894.094    -77859.08      15.2149      13.1765      28.7324    5760.2466 
  100500      100.486    243.72168    10.175631   -447.82672   -437.65109   -15213.343    8990.5664    22681.588   -77312.182      15.2149      13.1765      28.7324    5760.2466 
  101000      100.986    245.64721    10.256023   -447.89356   -437.63753   -14875.808    9553.4744    21115.089   -75295.986      15.2149      13.1765      28.7324    5760.2466 
  101500      101.486    233.73661    9.7587436   -447.38286   -437.62411   -14470.045     11544.03    21714.965   -76669.128      15.2149      13.1765      28.7324    5760.2466 
  102000      101.986    232.16606    9.6931712   -447.30358   -437.61041    -15012.08    9882.7463    22447.469   -77366.455      15.2149      13.1765      28.7324    5760.2466 
  102500      102.486    235.38123    9.8274079   -447.42433   -437.59693   -14723.838    8901.8667    22238.643   -75312.024      15.2149      13.1765      28.7324    5760.2466 
  103000      102.986     234.4268    9.7875597   -447.37097   -437.58341   -14063.659    10079.582    23142.894   -75413.454      15.2149      13.1765      28.7324    5760.2466 
  103500      103.486    227.67218    9.5055473   -447.07515   -437.56961   -13920.056    12355.469    22458.969   -76574.605      15.2149      13.1765      28.7324    5760.2466 
  104000      103.986    245.61889    10.254841   -447.81084     -437.556   -14932.006    12235.249    17413.678   -74444.945      15.2149      13.1765      28.7324    5760.2466 
  104500      104.486    234.53243    9.7919698    -447.3342   -437.54223   -15189.591     10026.74    20569.111   -76164.623      15.2149      13.1765      28.7324    5760.2466 
  105000      104.986    223.73493     9.341163   -446.86906    -437.5279    -15314.45    10201.268    16958.056   -73102.674      15.2149      13.1765      28.7324    5760.2466 
  105500      105.486    234.38277    9.7857214   -447.29949   -437.51376   -14367.788    10735.626    22342.722   -76181.712      15.2149      13.1765      28.7324    5760.2466 
  106000      105.986    238.48701    9.9570775   -447.45754   -437.50046   -14823.196    10414.476    19927.671   -74811.734      15.2149      13.1765      28.7324    5760.2466 
  106500      106.486    244.97582    10.227992   -447.71452   -437.48653   -14693.552    11868.663    18793.614   -74742.935      15.2149      13.1765      28.7324    5760.2466 
  107000      106.986    223.85887    9.3463376   -446.81803   -437.47169   -15111.779    9990.2846    22014.587   -77340.207      15.2149      13.1765      28.7324    5760.2466 
  107500      107.486    237.72328     9.925191   -447.38322   -437.45803   -14727.077    9975.0527    20941.512   -75097.795      15.2149      13.1765      28.7324    5760.2466 
  108000      107.986    245.47081    10.248658   -447.69256   -437.44391   -14816.459     11207.76    21808.854   -77465.991      15.2149      13.1765      28.7324    5760.2466 
  108500      108.486    235.69834    9.8406478   -447.27031   -437.42967   -14794.221     12798.53    19516.917   -76698.111      15.2149      13.1765      28.7324    5760.2466 
  109000      108.986    248.37548    10.369931   -447.78574    -437.4158   -15129.663    10405.852    21240.126   -77034.967      15.2149      13.1765      28.7324    5760.2466 
  109500      109.486    260.45767    10.874375   -448.27612   -437.40174   -15149.865    10769.863    20305.916   -76525.375      15.2149      13.1765      28.7324    5760.2466 
  110000      109.986    246.33327    10.284667   -447.67203   -437.38737   -15401.457    11152.455     19610.24   -76967.066      15.2149      13.1765      28.7324    5760.2466 
  110500      110.486    241.49053    10.082478   -447.45515   -437.37267   -14489.907    12279.594    20960.213   -76709.529      15.2149      13.1765      28.7324    5760.2466 
  111000      110.986    241.31766     10.07526   -447.43374   -437.35848   -14770.409    11602.757    19069.799   -74983.785      15.2149      13.1765      28.7324    5760.2466 
  111500      111.486    225.19155    9.4019784   -446.74536   -437.34339   -14818.237    9261.5029     20988.81   -74705.024      15.2149      13.1765      28.7324    5760.2466 
  112000      111.986    234.82565    9.8042122   -447.13344   -437.32922    -14867.63    8409.2372    23239.567   -76251.694      15.2149      13.1765      28.7324    5760.2466 
  112500      112.486     245.8012    10.262452   -447.57755    -437.3151   -15161.032    10204.547    22222.856     -77910.5      15.2149      13.1765      28.7324    5760.2466 
  113000      112.986    252.65156    10.548462   -447.84902   -437.30056   -14522.853    10293.384    21440.211   -75302.154      15.2149      13.1765      28.7324    5760.2466 
  113500      113.486    245.01483    10.229621   -447.51546   -437.28584   -15046.983    12334.899    17728.743   -75204.591      15.2149      13.1765      28.7324    5760.2466 
  114000      113.986    243.58552    10.169945   -447.44103   -437.27109   -14588.591    11457.475    20081.945   -75305.194      15.2149      13.1765      28.7324    5760.2466 
  114500      114.486    248.91246    10.392351   -447.64907   -437.25672   -14431.479    11606.086    19017.115   -73917.638      15.2149      13.1765      28.7324    5760.2466 
  115000      114.986    233.15808    9.7345891   -446.97592   -437.24133   -15656.651    10085.478    20041.067   -77096.497      15.2149      13.1765      28.7324    5760.2466 
  115500      115.486    243.91664     10.18377   -447.41127    -437.2275   -15202.783    8834.9155    21687.563   -76130.829      15.2149      13.1765      28.7324    5760.2466 
  116000      115.986    232.68357    9.7147781   -446.92719   -437.21241   -14283.448      9985.77    20857.811   -73693.923      15.2149      13.1765      28.7324    5760.2466 
  116500      116.486    247.07137    10.315483   -447.51334   -437.19785   -14721.359    11538.405    18585.948   -74288.431      15.2149      13.1765      28.7324    5760.2466 
  117000      116.986    249.73167    10.426554   -447.60952   -437.18296   -15842.334    10149.205    19360.644    -77036.85      15.2149      13.1765      28.7324    5760.2466 
  117500      117.486    241.44379    10.080526   -447.24893    -437.1684   -14909.163    11319.344    20977.684   -77024.517      15.2149      13.1765      28.7324    5760.2466 
  118000      117.986    240.51946    10.041934   -447.19551   -437.15358   -14352.334    10478.352    18293.235   -71828.588      15.2149      13.1765      28.7324    5760.2466 
  118500      118.486     252.1872    10.529075   -447.66804   -437.13896    -15243.51    9242.3986    18109.607   -73082.537      15.2149      13.1765      28.7324    5760.2466 
  119000      118.986    240.00759    10.020563   -447.14433   -437.12377   -15041.299    11368.424    21451.266   -77943.587      15.2149      13.1765      28.7324    5760.2466 
  119500      119.486    252.57189    10.545136   -447.65401   -437.10887   -14604.217     11431.13    19048.799    -74292.58      15.2149      13.1765      28.7324    5760.2466 
  120000      119.986    250.27379    10.449188   -447.54309    -437.0939   -15290.537    9628.5877    21193.454   -76693.652      15.2149      13.1765      28.7324    5760.2466 
  120500      120.486    242.09346    10.107651   -447.18598   -437.07833   -14099.421     11919.59    19757.267   -73975.118      15.2149      13.1765      28.7324    5760.2466 
  121000      120.986    240.06155    10.022816   -447.08645   -437.06363   -14987.775    9818.5086     21130.06   -75911.894      15.2149      13.1765      28.7324    5760.2466 
  121500      121.486     251.0408    10.481211   -447.52976   -437.04855   -14431.442    10844.213     19596.77   -73735.309      15.2149      13.1765      28.7324    5760.2466 
  122000      121.986    238.37913    9.9525736   -446.98623   -437.03366   -14376.291    11450.245    18743.357   -73322.475      15.2149      13.1765      28.7324    5760.2466 
  122500      122.486    253.22336    10.572335   -447.59083   -437.01849   -15250.949    10027.464    18765.933   -74546.245      15.2149      13.1765      28.7324    5760.2466 
  123000      122.986    253.06121    10.565565   -447.56889   -437.00332    -15293.03    10067.148    19253.047   -75199.285      15.2149      13.1765      28.7324    5760.2466 
  123500      123.486    250.20072    10.446137   -447.43437   -436.98823   -14722.394    9228.0072    19265.029    -72660.22      15.2149      13.1765      28.7324    5760.2466 
  124000      123.986     243.1454     10.15157   -447.12446   -436.97289   -15665.157    11168.561    20577.423   -78741.457      15.2149      13.1765      28.7324    5760.2466 
  124500      124.486    244.41215    10.204458   -447.16234   -436.95788   -14686.369    9873.4421    18888.122    -72820.67      15.2149      13.1765      28.7324    5760.2466 
  125000      124.986    243.49783    10.166285   -447.10946   -436.94318   -14600.516    10494.851    17745.409    -72041.81      15.2149      13.1765      28.7324    5760.2466 
  125500      125.486    240.27591    10.031766   -446.95923   -436.92747     -14490.4    12297.518    19892.202   -75660.922      15.2149      13.1765      28.7324    5760.2466 
  126000      125.986    241.61814    10.087806   -447.00041   -436.91261   -14665.016    12036.032    19996.475   -76027.556      15.2149      13.1765      28.7324    5760.2466 
  126500      126.486    257.01919    10.730815   -447.62808   -436.89727   -15193.469    10102.554    19138.929   -74821.891      15.2149      13.1765      28.7324    5760.2466 
  127000      126.986     242.9427    10.143107    -447.0249   -436.88179   -14391.512    10863.559    22518.754   -76556.849      15.2149      13.1765      28.7324    5760.2466 
  127500      127.486    244.03881    10.188871   -447.05567    -436.8668   -14681.349    9822.9092    20503.799   -74370.754      15.2149      13.1765      28.7324    5760.2466 
  128000      127.986    243.03941    10.147145   -446.99798   -436.85084   -14376.257    12015.787    20055.373    -75199.93      15.2149      13.1765      28.7324    5760.2466 
  128500      128.486    254.83006    10.639417   -447.47548   -436.83606   -14729.042    9600.9946    20771.291   -74559.412      15.2149      13.1765      28.7324    5760.2466 
  129000      128.986    241.85762    10.097804   -446.91795   -436.82015   -15006.202    10299.002    20446.777   -75764.383      15.2149      13.1765      28.7324    5760.2466 
  129500      129.486    249.20547    10.404584   -447.20945   -436.80487   -14454.472    9508.6061     22180.28   -75052.301      15.2149      13.1765      28.7324    5760.2466 
  130000      129.986    258.60332    10.796954   -447.58623   -436.78927   -15528.438    9873.5238     20783.31   -77242.149      15.2149      13.1765      28.7324    5760.2466 
  130500      130.486    258.09399    10.775689    -447.5502   -436.77451   -14949.846    9365.2548    20480.021   -74694.813      15.2149      13.1765      28.7324    5760.2466 
  131000      130.986    265.32733    11.077688   -447.83638   -436.75869   -15453.285    9240.6309    19397.325    -74997.81      15.2149      13.1765      28.7324    5760.2466 
  131500      131.486    261.48027     10.91707   -447.65996   -436.74289   -15019.513     9235.107    21697.154     -75990.8      15.2149      13.1765      28.7324    5760.2466 
  132000      131.986    234.05715    9.7721262   -446.49884   -436.72672   -14801.422    11004.687    21127.095   -76536.047      15.2149      13.1765      28.7324    5760.2466 
  132500      132.486    259.33643    10.827562   -447.53928   -436.71172    -14318.47     11379.32    19402.712   -73737.442      15.2149      13.1765      28.7324    5760.2466 
  133000      132.986    261.10614    10.901449   -447.59772   -436.69627   -14897.104    10491.169    18302.187   -73484.668      15.2149      13.1765      28.7324    5760.2466 
  133500      133.486    257.97158    10.770578   -447.45133   -436.68075   -14644.523    10890.076    18775.571   -73599.216      15.2149      13.1765      28.7324    5760.2466 
  134000      133.986    257.93749    10.769155   -447.43432   -436.66517   -15331.752    9619.2531    18438.486   -74052.994      15.2149      13.1765      28.7324    5760.2466 
  134500      134.486    253.39837    10.579642   -447.22893   -436.64929   -15144.417    8287.5597    21708.513   -75429.324      15.2149      13.1765      28.7324    5760.2466 
  135000      134.986    246.67992     10.29914   -446.93251   -436.63337   -14689.931    10676.034     19305.12   -74050.946      15.2149      13.1765      28.7324    5760.2466 
  135500      135.486    234.03975    9.7713998   -446.38958   -436.61818   -14780.099    13836.719    19986.559   -78163.575      15.2149      13.1765      28.7324    5760.2466 
  136000      135.986    248.77403    10.386571   -446.98906   -436.60248   -14078.569    11637.993    21077.041   -74950.741      15.2149      13.1765      28.7324    5760.2466 
  136500      136.486    249.11566    10.400835    -446.9874   -436.58657   -14139.009    11774.874    20393.275   -74585.175      15.2149      13.1765      28.7324    5760.2466 
  137000      136.986    246.14385    10.276759   -446.84768   -436.57092   -15246.434    11717.236    17048.682   -74505.219      15.2149      13.1765      28.7324    5760.2466 
  137500      137.486    253.63626    10.589574   -447.14483   -436.55526    -14731.31    13687.288    20196.754    -78077.97      15.2149      13.1765      28.7324    5760.2466 
  138000      137.986       244.69    10.216059   -446.75535    -436.5393   -14672.417     13657.24    16789.288   -74463.779      15.2149      13.1765      28.7324    5760.2466 
  138500      138.486    255.16358    10.653341   -447.17722   -436.52388   -14043.929    12859.492    21231.848   -76223.125      15.2149      13.1765      28.7324    5760.2466 
  139000      138.986    260.97108    10.895811   -447.40381     -436.508   -14853.212    12239.763    19108.821   -75908.221      15.2149      13.1765      28.7324    5760.2466 
  139500      139.486    254.12343    10.609914   -447.10175   -436.49183   -14529.648    14110.385    17905.708   -75605.037      15.2149      13.1765      28.7324    5760.2466 
  140000      139.986    250.34625    10.452213   -446.92805   -436.47584   -13872.972    12679.362    23524.635   -77822.913      15.2149      13.1765      28.7324    5760.2466 
  140500      140.486    270.73225    11.303349   -447.76383   -436.46048   -14511.585    11543.129    19540.873   -74618.756      15.2149      13.1765      28.7324    5760.2466 
  141000      140.986    258.29162     10.78394   -447.22766   -436.44372    -14885.65    10067.004    19420.792   -74144.746      15.2149      13.1765      28.7324    5760.2466 
  141500      141.486    262.84986    10.974252   -447.40274   -436.42849   -14719.793    9915.7252    26311.839   -80386.942      15.2149      13.1765      28.7324    5760.2466 
  142000      141.986    252.17333    10.528495   -446.94031   -436.41182   -14023.676    9587.9093    23457.862   -75116.798      15.2149      13.1765      28.7324    5760.2466 
  142500      142.486    272.52497    11.378197   -447.77467   -436.39647   -14558.811    9106.6081    21298.582   -74081.622      15.2149      13.1765      28.7324    5760.2466 
  143000      142.986    248.20443     10.36279   -446.74302   -436.38023   -14536.292    9596.1234    20995.953   -74200.952      15.2149      13.1765      28.7324    5760.2466 
  143500      143.486    254.05335    10.606988   -446.97109    -436.3641   -15117.161    8421.5486    22942.971   -76716.004      15.2149      13.1765      28.7324    5760.2466 
  144000      143.986    263.37523    10.996186   -447.34457   -436.34838   -15447.294    9833.4989    18980.546   -75155.927      15.2149      13.1765      28.7324    5760.2466 
  144500      144.486    254.00701    10.605054    -446.9377   -436.33264   -14535.401    12391.192    19628.554    -75625.95      15.2149      13.1765      28.7324    5760.2466 
  145000      144.986    243.38605    10.161617   -446.47779   -436.31617    -14383.75    9211.4244    21946.105    -74308.78      15.2149      13.1765      28.7324    5760.2466 
  145500      145.486    261.55434    10.920162   -447.22133   -436.30117   -14354.847    10517.821    20234.252   -73816.613      15.2149      13.1765      28.7324    5760.2466 
  146000      145.986    243.98799    10.186749   -446.47142   -436.28467   -14089.771     11745.38    22880.595   -76895.289      15.2149      13.1765      28.7324    5760.2466 
  146500      146.486    247.21732    10.321577   -446.59061   -436.26903   -13643.357    10572.258    20709.058   -72211.388      15.2149      13.1765      28.7324    5760.2466 
  147000      146.986    247.83568    10.347394   -446.60046   -436.25306   -14272.698    11478.563    20354.214   -74650.869      15.2149      13.1765      28.7324    5760.2466 
  147500      147.486     248.5989    10.379259   -446.61639   -436.23713    -14612.44    9680.6182    20887.408   -74405.346      15.2149      13.1765      28.7324    5760.2466 
  148000      147.986    262.84445    10.974026   -447.19538   -436.22136   -14946.542    10194.584    18729.316   -73763.526      15.2149      13.1765      28.7324    5760.2466 
  148500      148.486    250.12242    10.442868   -446.64807    -436.2052   -14121.428    11126.072    19343.992   -72834.348      15.2149      13.1765      28.7324    5760.2466 
  149000      148.986    248.87468    10.390773   -446.57997   -436.18919    -14736.76    9669.4582    17778.479   -71658.217      15.2149      13.1765      28.7324    5760.2466 
  149500      149.486    253.05287    10.565217   -446.73835   -436.17313   -14559.767     9182.772    19772.414   -72634.488      15.2149      13.1765      28.7324    5760.2466 
  150000      149.986    257.79906    10.763376   -446.92037   -436.15699    -14811.97    10970.047    18657.432   -74063.388      15.2149      13.1765      28.7324    5760.2466 
  150500      150.486    265.06281    11.066645   -447.20775    -436.1411   -14662.974    11108.516    18524.628   -73622.067      15.2149      13.1765      28.7324    5760.2466 
  151000      150.986    266.89277    11.143047   -447.26797   -436.12492   -14564.564    12254.205    19571.162   -75519.058      15.2149      13.1765      28.7324    5760.2466 
  151500      151.486    272.96262     11.39647   -447.50527    -436.1088   -14027.732    11288.109    20601.503   -73972.807      15.2149      13.1765      28.7324    5760.2466 
  152000      151.986    247.68396     10.34106   -446.43226    -436.0912   -13399.609    13036.071    20100.564   -73335.463      15.2149      13.1765      28.7324    5760.2466 
  152500      152.486    263.42059     10.99808   -447.07393   -436.07585   -13796.799    10515.252    22104.549   -74010.198      15.2149      13.1765      28.7324    5760.2466 
  153000      152.986    260.58459    10.879674   -446.93903   -436.05935    -14291.34    11150.703    21297.759   -75322.483      15.2149      13.1765      28.7324    5760.2466 
  153500      153.486    264.80344    11.055816     -447.099   -436.04318   -14496.491    10332.625    21081.109   -74903.208      15.2149      13.1765      28.7324    5760.2466 
  154000      153.986    253.21703    10.572071   -446.59854   -436.02647   -14744.518    10611.273     20591.54   -75436.366      15.2149      13.1765      28.7324    5760.2466 
  154500      154.486    266.10157    11.110014   -447.12031   -436.01029   -14726.791    11586.908    18597.698   -74364.979      15.2149      13.1765      28.7324    5760.2466 
  155000      154.986    270.77461    11.305118   -447.29921   -435.99409   -14758.791    10430.845    21361.446   -76068.664      15.2149      13.1765      28.7324    5760.2466 
  155500      155.486    265.29173    11.076202   -447.05331    -435.9771   -13801.211    11528.628    23018.571   -75950.833      15.2149      13.1765      28.7324    5760.2466 
  156000      155.986    254.35131    10.619428   -446.58041   -435.96099   -13830.783     12086.86    20426.971    -74006.18      15.2149      13.1765      28.7324    5760.2466 
  156500      156.486    261.66676    10.924856   -446.86964   -435.94478   -14877.047    11055.132    21921.007   -77607.281      15.2149      13.1765      28.7324    5760.2466 
  157000      156.986    260.34354     10.86961   -446.79816   -435.92855   -14189.535    11882.421    19053.388   -73504.416      15.2149      13.1765      28.7324    5760.2466 
  157500      157.486    251.68126    10.507951   -446.41984   -435.91189   -14363.591    10338.305    22851.757   -76280.835      15.2149      13.1765      28.7324    5760.2466 
  158000      157.986    261.95558    10.936914   -446.83277   -435.89585   -13973.288    12056.724    20206.484   -74183.074      15.2149      13.1765      28.7324    5760.2466 
  158500      158.486    256.54746     10.71112    -446.5902   -435.87908   -13926.933    10900.583    21167.492   -73848.873      15.2149      13.1765      28.7324    5760.2466 
  159000      158.986    257.62338    10.756041   -446.61917   -435.86313   -13609.469    10651.685    23863.506   -75343.599      15.2149      13.1765      28.7324    5760.2466 
  159500      159.486    261.87851    10.933697   -446.78022   -435.84652   -14305.075    12484.612    19828.633   -75228.469      15.2149      13.1765      28.7324    5760.2466 
  160000      159.986    257.93753    10.769157   -446.59891   -435.82975   -14053.631    12776.409     20292.75   -75230.053      15.2149      13.1765      28.7324    5760.2466 
  160500      160.486    263.69212    11.009417   -446.82268   -435.81326    -14102.55    10955.009    21105.783   -74368.443      15.2149      13.1765      28.7324    5760.2466 
  161000      160.986    267.55579    11.170729   -446.96779   -435.79706   -13963.198    12051.963    21481.538   -75423.094      15.2149      13.1765      28.7324    5760.2466 
  161500      161.486    260.01296    10.855808   -446.63595   -435.78014   -13864.482    9877.8575    20803.331   -72274.635      15.2149      13.1765      28.7324    5760.2466 
  162000      161.986     266.3815    11.121701   -446.88556   -435.76386   -13571.398    11992.538    20405.407   -73112.137      15.2149      13.1765      28.7324    5760.2466 
  162500      162.486    264.45857    11.041417    -446.7884   -435.74698   -14523.811    11097.472    18889.181   -73558.087      15.2149      13.1765      28.7324    5760.2466 
  163000      162.986    239.24563    9.9887505   -445.71903   -435.73028   -14237.045    12909.632    20731.479   -76352.246      15.2149      13.1765      28.7324    5760.2466 
  163500      163.486    261.23597     10.90687    -446.6208   -435.71393   -13685.331    12154.008    21673.511   -74883.511      15.2149      13.1765      28.7324    5760.2466 
  164000      163.986     250.6094      10.4632   -446.16015   -435.69695   -14692.927    11184.102    22830.911   -78093.794      15.2149      13.1765      28.7324    5760.2466 
  164500      164.486    258.10919    10.776324   -446.45682   -435.68049   -14597.862    10618.102    23476.857   -77888.544      15.2149      13.1765      28.7324    5760.2466 
  165000      164.986     262.3347    10.952743   -446.61726   -435.66452   -14244.566    9792.6746    23868.105   -76394.479      15.2149      13.1765      28.7324    5760.2466 
  165500      165.486    262.36255    10.953906   -446.60129   -435.64738   -14534.901    10668.397    19518.194   -73791.293      15.2149      13.1765      28.7324    5760.2466 
  166000      165.986    261.69195    10.925907   -446.55686   -435.63096   -14473.861    10679.163     21539.94   -75640.686      15.2149      13.1765      28.7324    5760.2466 
  166500      166.486    266.41592    11.123138   -446.73687   -435.61373   -15025.227    10776.006    18475.046   -74326.734      15.2149      13.1765      28.7324    5760.2466 
  167000      166.986    254.05731    10.607154   -446.20416   -435.59701   -13869.141    11409.486    17169.403   -70186.312      15.2149      13.1765      28.7324    5760.2466 
  167500      167.486    275.38516    11.497613   -447.07856   -435.58094   -13739.505    11639.089    21696.327   -74553.932      15.2149      13.1765      28.7324    5760.2466 
  168000      167.986    259.68079    10.841939    -446.4062   -435.56426   -14415.572    10687.977    22888.196    -76822.89      15.2149      13.1765      28.7324    5760.2466 
  168500      168.486    269.13583    11.236697   -446.78393   -435.54723   -13882.158    12066.041    21197.543   -74910.058      15.2149      13.1765      28.7324    5760.2466 
  169000      168.986    265.82009    11.098262   -446.62881   -435.53055   -14226.398     11515.75    23205.353   -77400.298      15.2149      13.1765      28.7324    5760.2466 
  169500      169.486    261.48482     10.91726   -446.43107   -435.51381   -15304.076    10158.138    19707.185    -75777.55      15.2149      13.1765      28.7324    5760.2466 
  170000      169.986    276.05828    11.525717   -447.02294   -435.49722   -13724.198    11705.025    21775.524   -74653.144      15.2149      13.1765      28.7324    5760.2466 
  170500      170.486    262.05854    10.941213   -446.42154   -435.48033   -13774.414    11265.574    20997.246   -73586.062      15.2149      13.1765      28.7324    5760.2466 
  171000      170.986    255.71866    10.676517   -446.13978   -435.46326   -14101.377     11508.18    20733.121   -74545.433      15.2149      13.1765      28.7324    5760.2466 
  171500      171.486    254.89608    10.642173   -446.08862   -435.44644   -13801.082    11491.894    20507.184   -73402.325      15.2149      13.1765      28.7324    5760.2466 
  172000      171.986    279.69248    11.677448   -447.10728   -435.42983   -14666.027    9363.5706    23886.545   -77248.196      15.2149      13.1765      28.7324    5760.2466 
  172500      172.486    271.64004     11.34125   -446.75413   -435.41288   -14037.673    11497.148    20839.845   -74450.012      15.2149      13.1765      28.7324    5760.2466 
  173000      172.986    268.21984    11.198454   -446.59453   -435.39608   -13829.367    13261.678    22365.783   -77115.562      15.2149      13.1765      28.7324    5760.2466 
  173500      173.486    275.94585    11.521023   -446.90023    -435.3792   -13638.565    11815.424    20508.062   -73239.182      15.2149      13.1765      28.7324    5760.2466 
  174000      173.986    249.75964    10.427721    -445.7895   -435.36178   -14347.002     9816.361    21523.487   -74380.854      15.2149      13.1765      28.7324    5760.2466 
  174500      174.486    273.86829    11.434282   -446.77948    -435.3452   -14119.203     12514.15    21381.813   -76253.573      15.2149      13.1765      28.7324    5760.2466 
  175000      174.986    265.67228    11.092091   -446.42044   -435.32835   -14475.151    10281.237    23598.379    -77305.07      15.2149      13.1765      28.7324    5760.2466 
  175500      175.486    264.45876    11.041425   -446.35273   -435.31131   -13631.631    14591.854    20508.713   -75995.461      15.2149      13.1765      28.7324    5760.2466 
  176000      175.986    267.64713    11.174543    -446.4688   -435.29426   -13824.412    12216.157    22724.153   -76413.546      15.2149      13.1765      28.7324    5760.2466 
  176500      176.486    276.15455    11.529736   -446.80753    -435.2778   -13916.355     12371.99    22509.531   -76630.587      15.2149      13.1765      28.7324    5760.2466 
  177000      176.986     284.4666    11.876773   -447.13746   -435.26068   -13267.559    13243.025    20754.011   -73799.713      15.2149      13.1765      28.7324    5760.2466 
  177500      177.486    274.26182    11.450713   -446.69447   -435.24376   -13943.123    12379.333    17983.983   -72192.684      15.2149      13.1765      28.7324    5760.2466 
  178000      177.986    266.69864    11.134942   -446.36155   -435.22661   -14438.897     11566.87     22242.88   -77126.441      15.2149      13.1765      28.7324    5760.2466 
  178500      178.486    270.37353    11.288372   -446.49769   -435.20932   -12880.988    12171.255    20528.588   -71342.806      15.2149      13.1765      28.7324    5760.2466 
  179000      178.986    264.08069     11.02564   -446.21787   -435.19223   -13512.328    10636.751    23221.054   -74394.789      15.2149      13.1765      28.7324    5760.2466 
  179500      179.486    274.59198    11.464497   -446.64003   -435.17553   -14173.084    10407.473     20136.15   -73062.875      15.2149      13.1765      28.7324    5760.2466 
  180000      179.986    268.47742    11.209208     -446.368   -435.15879   -13898.888    11612.413    23745.132    -77054.21      15.2149      13.1765      28.7324    5760.2466 
  180500      180.486    263.61585    11.006232   -446.14737   -435.14114   -13653.406    12420.072     22248.08   -75628.372      15.2149      13.1765      28.7324    5760.2466 
  181000      180.986    273.40469    11.414926   -446.53892   -435.12399   -14238.235     11116.44     19789.58   -73620.726      15.2149      13.1765      28.7324    5760.2466 
  181500      181.486    272.78331    11.388983   -446.49603   -435.10705   -13377.304    12412.912    22627.815    -75172.64      15.2149      13.1765      28.7324    5760.2466 
  182000      181.986    268.88289    11.226137    -446.3158   -435.08967   -13710.468    10939.318    21918.161   -73988.884      15.2149      13.1765      28.7324    5760.2466 
  182500      182.486    274.64431    11.466682   -446.53957   -435.07289   -13707.096    10039.098    22963.613   -74123.998      15.2149      13.1765      28.7324    5760.2466 
  183000      182.986    265.13793    11.069781    -446.1254   -435.05562   -13334.306    14635.287    20700.289   -75338.495      15.2149      13.1765      28.7324    5760.2466 
  183500      183.486    270.30054    11.285325   -446.32369   -435.03837   -13326.571     12107.51    20609.909   -72697.134      15.2149      13.1765      28.7324    5760.2466 
  184000      183.986    266.01047     11.10621    -446.1273   -435.02109   -13715.403    9591.0664    21657.862   -72395.138      15.2149      13.1765      28.7324    5760.2466 
  184500      184.486    275.72975       11.512   -446.51585   -435.00385   -14283.006    10583.947    19067.789   -72500.753      15.2149      13.1765      28.7324    5760.2466 
  185000      184.986    284.00066    11.857319    -446.8442   -434.98688   -14720.278    10184.156    18206.091   -72551.081      15.2149      13.1765      28.7324    5760.2466 
  185500      185.486    278.24743    11.617116   -446.58655   -434.96943   -13819.332    13408.227    20276.452   -75142.675      15.2149      13.1765      28.7324    5760.2466 
  186000      185.986    280.19227    11.698315   -446.65122    -434.9529   -14349.281     11469.02    20812.006   -75328.869      15.2149      13.1765      28.7324    5760.2466 
  186500      186.486    270.50422    11.293829   -446.22933    -434.9355   -14025.609    12304.929    24319.281   -78701.037      15.2149      13.1765      28.7324    5760.2466 
  187000      186.986    266.87679     11.14238   -446.06049   -434.91811   -13546.024    11352.933    21184.208   -73175.213      15.2149      13.1765      28.7324    5760.2466 
  187500      187.486    279.58166    11.672821   -446.57344   -434.90062   -13911.234    11362.262    20993.117   -74089.081      15.2149      13.1765      28.7324    5760.2466 
  188000      187.986    288.12044    12.029324   -446.91286   -434.88353   -13802.624    12041.755    22085.939   -75535.566      15.2149      13.1765      28.7324    5760.2466 
  188500      188.486    281.87507    11.768574   -446.63453   -434.86596   -14928.959    9484.7171    21039.358    -75310.95      15.2149      13.1765      28.7324    5760.2466 
  189000      188.986    276.72362    11.553495   -446.40195   -434.84845   -13530.716    12029.922    21577.604   -74199.675      15.2149      13.1765      28.7324    5760.2466 
  189500      189.486    282.73529    11.804489   -446.63568    -434.8312   -15141.251    7584.2089    21432.692   -74440.653      15.2149      13.1765      28.7324    5760.2466 
  190000      189.986    269.43399    11.249146   -446.06262   -434.81347   -13426.087    14002.916    23012.001   -77293.179      15.2149      13.1765      28.7324    5760.2466 
  190500      190.486    268.68108    11.217711   -446.01429   -434.79658   -13843.126    12558.109    18555.683   -72643.172      15.2149      13.1765      28.7324    5760.2466 
  191000      190.986    267.88973    11.184671   -445.96318   -434.77851   -13730.663     13271.85     19203.01    -73666.85      15.2149      13.1765      28.7324    5760.2466 
  191500      191.486    285.24776    11.909387    -446.6713   -434.76191   -14686.051    11522.794    19794.468   -75375.414      15.2149      13.1765      28.7324    5760.2466 
  192000      191.986     282.6462    11.800769   -446.54491   -434.74414    -13510.23    12431.119    22234.725   -75196.535      15.2149      13.1765      28.7324    5760.2466 
  192500      192.486     278.6399    11.633502   -446.36053   -434.72703   -13751.573    10644.078    22043.105   -73941.903      15.2149      13.1765      28.7324    5760.2466 
  193000      192.986    286.72639    11.971121    -446.6809   -434.70978   -14447.961    12424.266     21372.13   -77140.278      15.2149      13.1765      28.7324    5760.2466 
  193500      193.486    268.86235    11.225279   -445.91725   -434.69198    -13875.74    12048.422    21425.088   -75100.729      15.2149      13.1765      28.7324    5760.2466 
  194000      193.986     280.3164    11.703497   -446.37825   -434.67475   -13372.724     10944.52    22098.458   -73161.149      15.2149      13.1765      28.7324    5760.2466 
  194500      194.486    269.75542    11.262566   -445.91962   -434.65706   -12959.705    12070.247    23092.157   -74041.519      15.2149      13.1765      28.7324    5760.2466 
  195000      194.986    270.81884    11.306965   -445.94646    -434.6395   -14067.673     10708.37    20974.831   -73886.219      15.2149      13.1765      28.7324    5760.2466 
  195500      195.486    271.74599    11.345674   -445.96798   -434.62231   -13460.894    12027.691    22697.647   -75108.019      15.2149      13.1765      28.7324    5760.2466 
  196000      195.986    293.90362    12.270778    -446.8759   -434.60512     -13554.4     9670.516    23194.138   -73527.854      15.2149      13.1765      28.7324    5760.2466 
  196500      196.486    272.06031    11.358797   -445.94588   -434.58708   -14882.828    8894.4615    20937.725   -74480.671      15.2149      13.1765      28.7324    5760.2466 
  197000      196.986    276.00136     11.52334   -446.09289   -434.56955   -12975.098    13281.729    22638.621   -74845.644      15.2149      13.1765      28.7324    5760.2466 
  197500      197.486    265.12941    11.069425    -445.6213   -434.55188   -12735.164    14335.335    23653.074   -76193.902      15.2149      13.1765      28.7324    5760.2466 
  198000      197.986    285.29752    11.911464   -446.44626   -434.53479   -13733.016    11183.462    23350.216   -75732.727      15.2149      13.1765      28.7324    5760.2466 
  198500      198.486    275.18141    11.489107   -446.00631    -434.5172    -12949.78    11110.703    23390.656     -73350.7      15.2149      13.1765      28.7324    5760.2466 
  199000      198.986    291.19569    12.157719   -446.65761   -434.49989   -13620.392     12273.96    22683.235   -75818.372      15.2149      13.1765      28.7324    5760.2466 
  199500      199.486    274.71313    11.469555   -445.95087   -434.48131   -13781.216     11772.88    24578.575   -77695.102      15.2149      13.1765      28.7324    5760.2466 
  200000      199.986     283.4228    11.833193   -446.29696   -434.46376   -13202.184    14955.665    21432.153    -75994.37      15.2149      13.1765      28.7324    5760.2466 
  200500      200.486    268.81038    11.223109   -445.66901    -434.4459   -13030.389    12601.179    21078.843   -72771.188      15.2149      13.1765      28.7324    5760.2466 
  201000      200.986    297.59072    12.424718   -446.85412    -434.4294   -13693.446    11204.717    23021.099   -75306.154      15.2149      13.1765      28.7324    5760.2466 
  201500      201.486     273.2778    11.409629   -445.82087   -434.41124   -13341.375    12597.791    22368.196    -74990.11      15.2149      13.1765      28.7324    5760.2466 
  202000      201.986    272.97006     11.39678   -445.78988    -434.3931   -13106.684    12208.315    20509.332   -72037.699      15.2149      13.1765      28.7324    5760.2466 
  202500      202.486    265.88613    11.101019   -445.47673   -434.37572   -13066.358    11278.337    22502.961   -72980.371      15.2149      13.1765      28.7324    5760.2466 
  203000      202.986    277.94972    11.604686   -445.96301   -434.35833   -13662.527    10352.345     18015.98   -69355.905      15.2149      13.1765      28.7324    5760.2466 
  203500      203.486    289.67482    12.094221   -446.43526   -434.34104   -14272.957    11736.527     21204.75   -75760.149      15.2149      13.1765      28.7324    5760.2466 
  204000      203.986     283.9531    11.855333   -446.17846   -434.32313   -13766.723    11070.346    20866.557   -73237.072      15.2149      13.1765      28.7324    5760.2466 
  204500      204.486    301.22298    12.576369   -446.88194   -434.30557   -14557.276    11256.786    19392.189   -74320.803      15.2149      13.1765      28.7324    5760.2466 
  205000      204.986    275.88581    11.518516   -445.80646   -434.28794   -13652.395     12765.59    22468.078   -76190.853      15.2149      13.1765      28.7324    5760.2466 
  205500      205.486    282.20697    11.782431   -446.05216   -434.26973    -13652.44     13877.33    18319.205   -73153.855      15.2149      13.1765      28.7324    5760.2466 
  206000      205.986    285.00672    11.899323   -446.15142   -434.25209   -13754.346    11657.467    19591.912   -72512.416      15.2149      13.1765      28.7324    5760.2466 
  206500      206.486    292.46275     12.21062   -446.44467   -434.23405   -14402.239    9538.8065    21350.232   -74095.754      15.2149      13.1765      28.7324    5760.2466 
  207000      206.986    270.18813    11.280632   -445.49688   -434.21625   -14429.213    10218.845    20869.325    -74375.81      15.2149      13.1765      28.7324    5760.2466 
  207500      207.486    282.51356    11.795231   -445.99339   -434.19816   -12779.233    11634.609    20289.287   -70261.597      15.2149      13.1765      28.7324    5760.2466 
  208000      207.986    271.49393     11.33515   -445.51523   -434.18008   -12438.722    13437.239    21907.946   -72661.352      15.2149      13.1765      28.7324    5760.2466 
  208500      208.486    284.25549    11.867959   -446.03031   -434.16235   -13889.568     11780.38    22661.273   -76110.357      15.2149      13.1765      28.7324    5760.2466 
  209000      208.986    284.36234     11.87242   -446.01703   -434.14461   -13776.876    10688.913    22232.887   -74252.427      15.2149      13.1765      28.7324    5760.2466 
  209500      209.486    288.52695    12.046296   -446.17309    -434.1268   -13141.667    12320.841    19998.911   -71744.753      15.2149      13.1765      28.7324    5760.2466 
  210000      209.986    267.84462    11.182788   -445.29146   -434.10867   -13644.938    11900.232    22741.287   -75576.334      15.2149      13.1765      28.7324    5760.2466 
  210500      210.486    277.79748     11.59833   -445.68899   -434.09066   -13945.989     9928.391    22976.503   -74742.862      15.2149      13.1765      28.7324    5760.2466 
  211000      210.986    276.03771    11.524858    -445.5983   -434.07344   -12754.834    13434.364    25190.615   -76889.482      15.2149      13.1765      28.7324    5760.2466 
  211500      211.486    271.86877      11.3508   -445.40582   -434.05502   -12954.101    10162.312    21674.247   -70698.862      15.2149      13.1765      28.7324    5760.2466 
  212000      211.986    283.93718    11.854669   -445.89148   -434.03681   -13871.758    11911.434    21709.866   -75236.575      15.2149      13.1765      28.7324    5760.2466 
[...]
  948500      948.486    370.21178    15.456722   -442.08533   -426.62861   -9211.6377     14550.58    25029.096    -67214.59      15.2149      13.1765      28.7324    5760.2466 
  949000      948.986    391.68716    16.353341   -442.98029   -426.62694   -10664.192    11589.592    23613.627   -67195.797      15.2149      13.1765      28.7324    5760.2466 
  949500      949.486     384.3739    16.048005   -442.67302   -426.62502   -9689.1749    13849.885    23342.177   -66259.587      15.2149      13.1765      28.7324    5760.2466 
  950000      949.986     371.3937    15.506068   -442.12764   -426.62158   -10411.571    15170.579    23134.605   -69539.897      15.2149      13.1765      28.7324    5760.2466 
  950500      950.486    386.20515    16.124462   -442.74515   -426.62069   -9792.3862    14199.919    21353.355   -64930.433      15.2149      13.1765      28.7324    5760.2466 
  951000      950.986    364.87171    15.233769   -441.85151   -426.61774    -9201.717    13554.413    25573.811   -66733.375      15.2149      13.1765      28.7324    5760.2466 
  951500      951.486    365.00055    15.239148   -441.85398   -426.61483   -9940.6233    15537.223    24961.445   -70320.538      15.2149      13.1765      28.7324    5760.2466 
  952000      951.986    365.09047    15.242902     -441.857   -426.61409   -9969.4533    12659.321    30272.855   -72840.536      15.2149      13.1765      28.7324    5760.2466 
  952500      952.486     390.8139    16.316882   -442.92791   -426.61103   -10833.948    10557.381    21573.677   -64632.902      15.2149      13.1765      28.7324    5760.2466 
  953000      952.986    392.66238    16.394058   -443.00271   -426.60865    -10258.41    10671.469    25553.893   -67000.593      15.2149      13.1765      28.7324    5760.2466 
  953500      953.486    365.56286    15.262625   -441.86912   -426.60649   -9344.9443    15024.078    25770.988   -68829.898      15.2149      13.1765      28.7324    5760.2466 
  954000      953.986    366.27324    15.292284   -441.89556   -426.60327   -10157.886    14010.223    26673.735   -71157.617      15.2149      13.1765      28.7324    5760.2466 
  954500      954.486    383.71532    16.020508   -442.62118   -426.60067   -10094.065    15156.553    23163.683   -68602.432      15.2149      13.1765      28.7324    5760.2466 
  955000      954.986    375.37361    15.672234   -442.27124   -426.59901   -10579.755    13365.896    25337.056   -70442.217      15.2149      13.1765      28.7324    5760.2466 
  955500      955.486    387.43615    16.175857   -442.77248   -426.59663   -10588.505    14214.743    26734.554   -72714.811      15.2149      13.1765      28.7324    5760.2466 
  956000      955.986    369.54963    15.429077   -442.02282   -426.59374   -10243.701    15825.065    24123.203   -70679.371      15.2149      13.1765      28.7324    5760.2466 
  956500      956.486    367.96876    15.363074   -441.95385   -426.59078   -10114.379    13698.826    26646.349   -70688.313      15.2149      13.1765      28.7324    5760.2466 
  957000      956.986    378.57122    15.805737   -442.39351   -426.58777   -9826.0884    16057.549     26884.84   -72420.655      15.2149      13.1765      28.7324    5760.2466 
  957500      957.486    384.86199    16.068383   -442.65347   -426.58509   -10567.746     14824.79    24921.671   -71449.698      15.2149      13.1765      28.7324    5760.2466 
  958000      957.986    377.68364     15.76868   -442.35154   -426.58286   -10370.375    11388.806    25052.974   -67552.904      15.2149      13.1765      28.7324    5760.2466 
  958500      958.486    369.51412    15.427594    -442.0076   -426.58001   -10864.478     14167.22    21359.234   -68119.887      15.2149      13.1765      28.7324    5760.2466 
  959000      958.986    358.67383    14.975001   -441.55199   -426.57699   -10109.113    12644.257    27125.175   -70096.769      15.2149      13.1765      28.7324    5760.2466 
  959500      959.486    360.46953    15.049973    -441.6238   -426.57383   -10660.826    15690.415    23868.659   -71541.554      15.2149      13.1765      28.7324    5760.2466 
  960000      959.986    374.12226    15.619988   -442.19151   -426.57153   -9601.9025    12439.742    27623.546   -68868.996      15.2149      13.1765      28.7324    5760.2466 
  960500      960.486    374.01281    15.615419   -442.18364   -426.56823   -9681.2949    13863.372    27658.747   -70566.004      15.2149      13.1765      28.7324    5760.2466 
  961000      960.986    381.85718     15.94293    -442.5078   -426.56487   -9770.8916    15250.911    22303.953   -66867.539      15.2149      13.1765      28.7324    5760.2466 
  961500      961.486    380.12676    15.870682   -442.43251   -426.56182   -10109.672    12927.931    28089.707   -71346.653      15.2149      13.1765      28.7324    5760.2466 
  962000      961.986    376.64889    15.725478   -442.28385   -426.55837   -9817.7948    14204.248     23208.07   -66865.703      15.2149      13.1765      28.7324    5760.2466 
  962500      962.486     386.0569    16.118272   -442.67302   -426.55475   -10170.113    12896.416    23815.278   -67222.033      15.2149      13.1765      28.7324    5760.2466 
  963000      962.986    379.33727     15.83772     -442.389   -426.55128   -9830.6716    12508.079    24941.591   -66941.685      15.2149      13.1765      28.7324    5760.2466 
  963500      963.486    380.96908     15.90585   -442.45335    -426.5475   -9595.1809     15239.86    28614.626   -72640.029      15.2149      13.1765      28.7324    5760.2466 
  964000      963.986    375.03475    15.658086   -442.20316   -426.54507   -8901.2318    14635.346    27598.456   -68937.497      15.2149      13.1765      28.7324    5760.2466 
  964500      964.486    367.06484    15.325334   -441.86581   -426.54047    -10306.65    16203.736    23664.676   -70788.363      15.2149      13.1765      28.7324    5760.2466 
  965000      964.986    362.97725    15.154673   -441.69236   -426.53769   -9566.4886    11610.554    29274.997   -69585.017      15.2149      13.1765      28.7324    5760.2466 
  965500      965.486    369.45586    15.425162      -441.96   -426.53484   -9695.8631    16300.973    22729.934   -68118.496      15.2149      13.1765      28.7324    5760.2466 
  966000      965.986    388.78125    16.232016   -442.76357   -426.53156   -9671.6705    14315.537    26643.185   -69973.734      15.2149      13.1765      28.7324    5760.2466 
  966500      966.486    367.93368    15.361609   -441.88988   -426.52828    -9689.936    12969.342     24445.69    -66484.84      15.2149      13.1765      28.7324    5760.2466 
  967000      966.986     379.9363     15.86273   -442.38761   -426.52488   -9345.1649    14837.819    24514.496    -67387.81      15.2149      13.1765      28.7324    5760.2466 
  967500      967.486    389.90331    16.278863   -442.79982   -426.52096   -9948.5154    14644.543    24713.637   -69203.726      15.2149      13.1765      28.7324    5760.2466 
  968000      967.986    360.95396    15.070199   -441.58753   -426.51733   -9642.6438    14041.536    26164.604   -69134.071      15.2149      13.1765      28.7324    5760.2466 
  968500      968.486    368.11772    15.369293   -441.88381   -426.51451   -9679.1364    12034.094    27648.959   -68720.463      15.2149      13.1765      28.7324    5760.2466 
  969000      968.986    375.61623    15.682363   -442.19275   -426.51039   -9182.4663    15174.519    25050.963   -67772.881      15.2149      13.1765      28.7324    5760.2466 
  969500      969.486    388.33619    16.213435   -442.72033    -426.5069    -9433.764    16471.399    23056.889    -67829.58      15.2149      13.1765      28.7324    5760.2466 
  970000      969.986    362.64501    15.140801   -441.64348   -426.50268   -8716.2768    14275.567    24263.179   -64687.576      15.2149      13.1765      28.7324    5760.2466 
  970500      970.486    368.49826    15.385181   -441.88391   -426.49873   -9154.9202    14969.452    26837.862   -69272.075      15.2149      13.1765      28.7324    5760.2466 
  971000      970.986    385.89892    16.111676    -442.6073   -426.49562   -8960.1059    15814.872    26959.232   -69654.422      15.2149      13.1765      28.7324    5760.2466 
  971500      971.486    366.31075     15.29385   -441.78485     -426.491   -9038.2724    13760.692    26242.562   -67118.072      15.2149      13.1765      28.7324    5760.2466 
  972000      971.986    384.07611    16.035572   -442.52391   -426.48834   -8990.7099    12439.224    26079.442   -65490.796      15.2149      13.1765      28.7324    5760.2466 
  972500      972.486    377.47249    15.759864   -442.24339   -426.48352   -10046.652        12308    25007.575    -67455.53      15.2149      13.1765      28.7324    5760.2466 
  973000      972.986    401.65756    16.769616   -443.25032   -426.48071   -10685.145    13549.821    21799.219   -67404.474      15.2149      13.1765      28.7324    5760.2466 
  973500      973.486    356.57857    14.887521    -441.3624   -426.47488   -9199.1289    15662.999    28149.343   -71409.729      15.2149      13.1765      28.7324    5760.2466 
  974000      973.986    389.55128    16.264166   -442.73508   -426.47092   -8957.3054    16009.593    28534.721    -71416.23      15.2149      13.1765      28.7324    5760.2466 
  974500      974.486    382.82701    15.983421   -442.45117   -426.46775   -10296.327    13420.192    22817.254   -67126.426      15.2149      13.1765      28.7324    5760.2466 
  975000      974.986    393.78389    16.440882   -442.90484   -426.46395   -8887.4728    13117.159    29426.867   -69206.444      15.2149      13.1765      28.7324    5760.2466 
  975500      975.486    373.82693    15.607658   -442.06747   -426.45981   -8743.3049    13952.136    29463.403   -69645.454      15.2149      13.1765      28.7324    5760.2466 
  976000      975.986    384.06562    16.035134   -442.49056   -426.45542   -10168.494    16226.943    23498.639   -70231.063      15.2149      13.1765      28.7324    5760.2466 
  976500      976.486    369.60958    15.431579   -441.88248    -426.4509   -9632.3792    13938.817    31396.871   -74232.826      15.2149      13.1765      28.7324    5760.2466 
  977000      976.986    365.60049    15.264196   -441.71154   -426.44734   -10031.245    16453.871    21220.648   -67768.256      15.2149      13.1765      28.7324    5760.2466 
  977500      977.486    378.21275    15.790771   -442.23384   -426.44307   -10137.804    13136.869    22652.426   -66202.707      15.2149      13.1765      28.7324    5760.2466 
  978000      977.986    385.25712     16.08488   -442.52315   -426.43827   -9753.2373    11823.172    24834.704   -65917.587      15.2149      13.1765      28.7324    5760.2466 
  978500      978.486    362.79416    15.147029   -441.58025   -426.43322   -9564.9191    12269.244    24552.638    -65516.64      15.2149      13.1765      28.7324    5760.2466 
  979000      978.986    376.79704    15.731663   -442.16157   -426.42991   -9437.0634    13430.629    25852.167   -67593.987      15.2149      13.1765      28.7324    5760.2466 
  979500      979.486     385.2963    16.086516   -442.51246   -426.42594    -9857.135    14286.091    24890.898   -68748.394      15.2149      13.1765      28.7324    5760.2466 
  980000      979.986    382.73275    15.979485    -442.4011   -426.42161   -9621.9178    14906.267    24005.345   -67777.366      15.2149      13.1765      28.7324    5760.2466 
  980500      980.486    375.74489    15.687735   -442.10439   -426.41666   -8302.0997    14935.963    28837.862   -68680.124      15.2149      13.1765      28.7324    5760.2466 
  981000      980.986    390.33291      16.2968   -442.70964   -426.41284   -9305.3786      13390.5    24120.572   -65427.207      15.2149      13.1765      28.7324    5760.2466 
  981500      981.486    394.54603    16.472702   -442.88128   -426.40858   -10469.653    14811.859    21308.993   -67529.811      15.2149      13.1765      28.7324    5760.2466 
  982000      981.986    392.87164    16.402794   -442.80685   -426.40406   -10719.823     13174.51    24826.183   -70160.161      15.2149      13.1765      28.7324    5760.2466 
  982500      982.486    378.62125    15.807826   -442.20592    -426.3981   -9197.9397    11717.804    24275.089   -63586.713      15.2149      13.1765      28.7324    5760.2466 
  983000      982.986    367.85765    15.358434    -441.7529   -426.39447   -9336.8111    14844.899    24878.385   -67733.718      15.2149      13.1765      28.7324    5760.2466 
  983500      983.486    384.41425     16.04969   -442.44017   -426.39048   -9122.3388    13101.766    28766.233   -69235.015      15.2149      13.1765      28.7324    5760.2466 
  984000      983.986    356.80721    14.897067   -441.28248   -426.38542   -10311.476    13335.549    23341.206   -67611.184      15.2149      13.1765      28.7324    5760.2466 
  984500      984.486    371.69287    15.518559       -441.9   -426.38144   -8815.7628    14878.887    28105.636   -69431.811      15.2149      13.1765      28.7324    5760.2466 
  985000      984.986    363.90567    15.193435    -441.5695   -426.37606   -9258.6816    15273.391    23199.456   -66248.892      15.2149      13.1765      28.7324    5760.2466 
  985500      985.486    377.58168    15.764423   -442.13549   -426.37107   -10472.036     13417.19    24984.233    -69817.53      15.2149      13.1765      28.7324    5760.2466 
  986000      985.986    358.99709    14.988497   -441.35439   -426.36589   -8525.5099    17116.534    24561.272   -67254.335      15.2149      13.1765      28.7324    5760.2466 
  986500      986.486    365.52068    15.260864    -441.6223   -426.36144   -9740.7196     14548.36    27558.907   -71329.426      15.2149      13.1765      28.7324    5760.2466 
  987000      986.986    366.11497    15.285676   -441.64193   -426.35626   -9262.2844    13909.369    27577.588    -69273.81      15.2149      13.1765      28.7324    5760.2466 
  987500      987.486    368.60213    15.389518    -441.7421   -426.35258   -8832.2382    13978.962    28297.275   -68772.951      15.2149      13.1765      28.7324    5760.2466 
  988000      987.986    369.57635    15.430192   -441.77793   -426.34774   -8661.1081    14384.299    28208.906   -68576.529      15.2149      13.1765      28.7324    5760.2466 
  988500      988.486    397.61926    16.601012   -442.94335   -426.34234   -9690.5695    15198.911    26270.591    -70541.21      15.2149      13.1765      28.7324    5760.2466 
  989000      988.986    380.80753    15.899105   -442.23638   -426.33727   -8945.8745     13847.28    30530.833   -71215.736      15.2149      13.1765      28.7324    5760.2466 
  989500      989.486    361.49695    15.092869   -441.42426   -426.33139   -9719.0847    13363.754    25081.279   -67602.286      15.2149      13.1765      28.7324    5760.2466 
  990000      989.986     380.8198    15.899618   -442.22696   -426.32734   -10094.962     13908.45    23290.891   -67484.227      15.2149      13.1765      28.7324    5760.2466 
  990500      990.486    364.95653     15.23731   -441.55964   -426.32233   -9343.9844    14397.805    26155.869   -68585.627      15.2149      13.1765      28.7324    5760.2466 
  991000      990.986     384.0409    16.034102   -442.35079   -426.31669    -9715.512     12259.36    23543.476   -64949.373      15.2149      13.1765      28.7324    5760.2466 
  991500      991.486    385.77964    16.106696   -442.41909   -426.31239   -9988.7327    15616.119    22894.881   -68477.197      15.2149      13.1765      28.7324    5760.2466 
  992000      991.986    371.49866     15.51045   -441.81739   -426.30694   -10084.104    12877.159    25117.628   -68247.098      15.2149      13.1765      28.7324    5760.2466 
  992500      992.486    370.30635     15.46067    -441.7619   -426.30123   -8650.6256    14501.973        28502    -68955.85      15.2149      13.1765      28.7324    5760.2466 
  993000      992.986     392.4124    16.383621   -442.68071   -426.29709   -10347.133    13524.315    27360.689   -71926.402      15.2149      13.1765      28.7324    5760.2466 
  993500      993.486    355.81444    14.855618   -441.14657   -426.29096   -8859.8065    16138.833    24017.017   -66735.269      15.2149      13.1765      28.7324    5760.2466 
  994000      993.986    397.30514    16.587898   -442.87357   -426.28568   -10605.848    13133.732    25093.724       -70045      15.2149      13.1765      28.7324    5760.2466 
  994500      994.486     379.4995    15.844494   -442.12455   -426.28006   -10521.734    12222.674    25267.253   -69055.128      15.2149      13.1765      28.7324    5760.2466 
  995000      994.986    379.86873    15.859909     -442.135   -426.27509   -9724.4888    14404.751    24655.137   -68233.355      15.2149      13.1765      28.7324    5760.2466 
  995500      995.486    404.83945    16.902463   -443.17241   -426.26995   -10349.141    14849.287    21637.879   -67534.588      15.2149      13.1765      28.7324    5760.2466 
  996000      995.986    368.39777    15.380985   -441.64531   -426.26432   -9552.9284    12749.637    24049.386   -65457.809      15.2149      13.1765      28.7324    5760.2466 
  996500      996.486     387.0032    16.157781   -442.41651   -426.25873   -9999.5026    15478.053    20146.194   -65622.755      15.2149      13.1765      28.7324    5760.2466 
  997000      996.986     388.0964    16.203423   -442.45728   -426.25386   -9835.6124    10629.488    25019.925    -65156.25      15.2149      13.1765      28.7324    5760.2466 
  997500      997.486    405.98264    16.950192   -443.19908   -426.24889   -10117.427    14012.375    23616.757   -67981.414      15.2149      13.1765      28.7324    5760.2466 
  998000      997.986     394.4401    16.468279   -442.71131   -426.24303   -9157.1381     13566.52    23508.011   -64545.945      15.2149      13.1765      28.7324    5760.2466 
  998500      998.486    378.38859    15.798112   -442.03545   -426.23734   -10084.655    15356.595    23571.957   -69182.517      15.2149      13.1765      28.7324    5760.2466 
  999000      998.986     363.0416     15.15736   -441.38814   -426.23078   -9334.0909    12566.743    24941.511   -65510.527      15.2149      13.1765      28.7324    5760.2466 
  999500      999.486    395.85496    16.527351   -442.75233   -426.22498   -9555.4631    14398.164    23613.875   -66678.428      15.2149      13.1765      28.7324    5760.2466 
 1000000      999.986     370.6933    15.476826   -441.69544   -426.21862   -9453.8007    13384.862    27221.442   -68967.706      15.2149      13.1765      28.7324    5760.2466 
 1000014         1000    383.51041    16.011953   -442.23101   -426.21906   -9719.4387    14361.157    25243.421   -68762.894      15.2149      13.1765      28.7324    5760.2466 
Loop time of 895.466 on 28 procs for 1000000 steps with 324 atoms

Performance: 96.486 ns/day, 0.249 hours/ns, 1116.737 timesteps/s
87.7% CPU use with 28 MPI tasks x no OpenMP threads

MPI task timing breakdown:
Section |  min time  |  avg time  |  max time  |%varavg| %total
---------------------------------------------------------------
Pair    | 728.42     | 772.49     | 808.4      |  77.3 | 86.27
Neigh   | 0.0038862  | 0.005368   | 0.0068825  |   1.1 |  0.00
Comm    | 69.383     | 106.45     | 150.49     | 209.6 | 11.89
Output  | 0.10033    | 0.10279    | 0.12301    |   1.3 |  0.01
Modify  | 7.5701     | 10.069     | 14.669     |  70.6 |  1.12
Other   |            | 6.348      |            |       |  0.71

Nlocal:    11.5714 ave 15 max 6 min
Histogram: 1 1 3 0 3 1 9 6 0 4
Nghost:    654.607 ave 704 max 617 min
Histogram: 6 4 2 0 2 5 2 3 1 3
Neighs:    716.214 ave 929 max 375 min
Histogram: 1 3 1 0 2 3 5 8 1 4
FullNghs:  1432.43 ave 1846 max 749 min
Histogram: 1 1 3 0 3 1 9 4 2 4

Total # of neighbors = 40108
Ave neighs/atom = 123.79
Neighbor list builds = 74
Dangerous builds = 0

write_restart   POSCAR_1x1x1.rest

#unfix    1
#undump   1
Total wall time: 0:14:55
