LAMMPS (7 Dec 2015)
#----------- Initialize Simulation ------------ restart01
#processors	2 2 2
units		metal
boundary	p p p     ## periodic boundary condition  on x y z axis ##
atom_style atomic
#atom_modify map array sort 0 0.0

read_data	POSCAR_1x1x1.lammps
  triclinic box = (0 0 0) to (15.2149 13.1765 28.7324) with tilt (-7.60743 0 0)
  2 by 2 by 7 MPI processor grid
  reading atoms ...
  324 atoms

#----------- Define Potential -----------------
pair_style meam
pair_coeff * * MgAlZn.library.meam Mg Al Zn MgAlZn.parameter.meam Mg Al Zn 	#1=Mg 2=Al 3=Zn	#atoms/mass

#----------- Neighbor List --------------------
neighbor 2.0 bin
neigh_modify delay 10 check yes

#--------------  Run a simulation (minimization) ---------------------------------------
minimize       1.0e-4   1.0e-6   100   1000          #結構優化的條件
WARNING: Resetting reneighboring criteria during minimization (../min.cpp:168)
Neighbor list info ...
  2 neighbor list requests
  update every 1 steps, delay 0 steps, check yes
  max neighbors/atom: 2000, page size: 100000
  master list distance cutoff = 8
  ghost atom cutoff = 8
  binsize = 4 -> bins = 6 4 8
Memory usage per processor = 8.65155 Mbytes
Step Temp E_pair E_mol TotEng Press 
       0            0   -697.70953            0   -697.70953    20464.492 
      15            0   -713.91351            0   -713.91351    18805.174 
Loop time of 0.0297624 on 28 procs for 15 steps with 324 atoms

98.5% CPU use with 28 MPI tasks x no OpenMP threads

Minimization stats:
  Stopping criterion = energy tolerance
  Energy initial, next-to-last, final = 
         -697.70953081     -713.854014248     -713.913508256
  Force two-norm initial, final = 23.3258 1.76113
  Force max component initial, final = 5.43339 0.346381
  Final line search alpha, max atom move = 0.114444 0.0396412
  Iterations, force evaluations = 15 29

MPI task timing breakdown:
Section |  min time  |  avg time  |  max time  |%varavg| %total
---------------------------------------------------------------
Pair    | 0.022016   | 0.024696   | 0.027321   |   0.8 | 82.98
Neigh   | 0          | 0          | 0          |   0.0 |  0.00
Comm    | 0.0015199  | 0.0040112  | 0.0067057  |   2.1 | 13.48
Output  | 0          | 0          | 0          |   0.0 |  0.00
Modify  | 0          | 0          | 0          |   0.0 |  0.00
Other   |            | 0.001055   |            |       |  3.54

Nlocal:    11.5714 ave 15 max 5 min
Histogram: 1 4 1 0 2 0 0 5 5 10
Nghost:    652.857 ave 713 max 602 min
Histogram: 5 2 5 2 1 2 4 1 2 4
Neighs:    722.25 ave 990 max 328 min
Histogram: 5 1 0 1 1 2 7 3 3 5
FullNghs:  1444.5 ave 1926 max 629 min
Histogram: 5 1 0 1 1 0 5 4 6 5

Total # of neighbors = 40446
Ave neighs/atom = 124.833
Neighbor list builds = 0
Dangerous builds = 0
velocity all  create 393.0 4928459 #rot yes dist gaussian

#--------------  Run a simulation (Relaxation)  ----------------------------------------
fix  1  all  nvt   temp  393.0  393.0  100				#damping constant
#fix  2  all  npt   temp  393.0  393.0  50 iso 0.0 0.0 1000.0
#fix  2  all deform 1 x final 0 15.6906 y final 0 13.5884 z final 0 25.2339 xy final -7.8452 units lattice
#fix  3  all  npt   temp  393.0  393.0  50 z 0.0 0.0 1000.0

#variable b equal 1
#fix 2 all efield  0.0  0.0  v_b
#compute pot all pe/atom


#----------- Output --------------------------
thermo	 500
timestep  0.001		#1.0 fs
thermo_style	custom step time temp ke pe etotal press pxx pyy pzz lx ly lz vol

dump 1 all custom 10000 dump.eq id type x y z
dump_modify 1 sort  id

run        1000000	#10000	 ps
Neighbor list info ...
  2 neighbor list requests
  update every 1 steps, delay 10 steps, check yes
  max neighbors/atom: 2000, page size: 100000
  master list distance cutoff = 8
  ghost atom cutoff = 8
  binsize = 4 -> bins = 6 4 8
Memory usage per processor = 7.5428 Mbytes
Step Time Temp KinEng PotEng TotEng Press Pxx Pyy Pzz Lx Ly Lz Volume 
      15            0          393    16.408154   -713.91351   -697.50535    21847.724    41124.044    43179.043   -18759.915      15.2149      13.1765      28.7324    5760.2466 
     500        0.485    225.04527    9.3958711   -706.89661   -697.50074    30487.544    49177.289    48826.662    -6541.318      15.2149      13.1765      28.7324    5760.2466 
    1000        0.985    229.55466    9.5841427   -707.08495   -697.50081    27474.634    46391.232     49179.87     -13147.2      15.2149      13.1765      28.7324    5760.2466 
    1500        1.485    227.62277    9.5034844   -707.00328    -697.4998    30016.141    49251.577    48664.651   -7867.8069      15.2149      13.1765      28.7324    5760.2466 
    2000        1.985    230.32937    9.6164879   -707.11573   -697.49925    28468.661    46503.124     45797.74   -6894.8822      15.2149      13.1765      28.7324    5760.2466 
    2500        2.485    218.04399    9.1035606   -706.60152   -697.49796    29834.834    49682.734    46186.234   -6364.4651      15.2149      13.1765      28.7324    5760.2466 
    3000        2.985    224.60205    9.3773663   -706.87445   -697.49709     28250.24     47956.84    45920.153   -9126.2725      15.2149      13.1765      28.7324    5760.2466 
    3500        3.485    230.62211    9.6287097    -707.1246   -697.49589    29388.265    48852.338    47479.279   -8166.8209      15.2149      13.1765      28.7324    5760.2466 
    4000        3.985    228.00694     9.519524    -707.0136   -697.49408    26807.865     45379.38    46152.836    -11108.62      15.2149      13.1765      28.7324    5760.2466 
    4500        4.485      234.549    9.7926617    -707.2852   -697.49254    30531.911    48892.963    48253.564   -5550.7924      15.2149      13.1765      28.7324    5760.2466 
    5000        4.985     218.1266    9.1070095   -706.59736   -697.49035    25833.192    44100.643    46861.237   -13462.305      15.2149      13.1765      28.7324    5760.2466 
    5500        5.485    228.35762    9.5341653   -707.02209   -697.48793    28919.231    49826.489    46721.885    -9790.682      15.2149      13.1765      28.7324    5760.2466 
    6000        5.985    232.45324    9.7051617    -707.1917   -697.48654    31571.184    51568.437    47941.361    -4796.245      15.2149      13.1765      28.7324    5760.2466 
    6500        6.485    222.67963    9.2971033   -706.78087   -697.48377    27367.986    47173.704    46660.825   -11730.571      15.2149      13.1765      28.7324    5760.2466 
    7000        6.985    229.59372    9.5857737   -707.06604   -697.48027    29389.825    47376.867    50577.051   -9784.4422      15.2149      13.1765      28.7324    5760.2466 
    7500        7.485    225.66772    9.4218589   -706.89984   -697.47798    31501.823    48632.036    48816.857   -2943.4243      15.2149      13.1765      28.7324    5760.2466 
    8000        7.985    221.60925    9.2524138   -706.72719   -697.47478    27683.382    45298.866    45225.681   -7474.4008      15.2149      13.1765      28.7324    5760.2466 
    8500        8.485    236.30263    9.8658773   -707.33776   -697.47189    29595.009    45147.533    48340.247   -4702.7529      15.2149      13.1765      28.7324    5760.2466 
    9000        8.985    224.05398    9.3544839   -706.82261   -697.46813    28573.464     47821.31    47192.575   -9293.4939      15.2149      13.1765      28.7324    5760.2466 
    9500        9.485     238.3983    9.9533738   -707.41809   -697.46472    29266.042    47605.156    47062.933   -6869.9628      15.2149      13.1765      28.7324    5760.2466 
   10000        9.985    226.57638    9.4597966   -706.92026   -697.46046    29859.192    46115.512    47866.503   -4404.4384      15.2149      13.1765      28.7324    5760.2466 
   10500       10.485     224.2281    9.3617534   -706.81783   -697.45607    28610.302    48614.163    43699.169   -6482.4265      15.2149      13.1765      28.7324    5760.2466 
   11000       10.985    250.24575    10.448017   -707.90092    -697.4529    30649.443    47301.182    47716.141   -3068.9951      15.2149      13.1765      28.7324    5760.2466 
   11500       11.485    209.22354    8.7352975   -706.18148   -697.44619    29115.635     49006.78    49633.593   -11293.467      15.2149      13.1765      28.7324    5760.2466 
   12000       11.985    232.44759    9.7049254   -707.14755   -697.44263    30338.403    48419.215    48426.378   -5830.3858      15.2149      13.1765      28.7324    5760.2466 
   12500       12.485     219.3209    9.1568727   -706.59414   -697.43727    29229.761    47301.227    49107.481   -8719.4237      15.2149      13.1765      28.7324    5760.2466 
   13000       12.985    233.28905    9.7400574    -707.1732   -697.43315    29655.946    47595.023    47428.688   -6055.8724      15.2149      13.1765      28.7324    5760.2466 
   13500       13.485    223.26645    9.3216037   -706.74851    -697.4269    29651.604    47272.778    48813.118   -7131.0852      15.2149      13.1765      28.7324    5760.2466 
   14000       13.985    228.06563    9.5219743   -706.94305   -697.42108    29915.428    49521.626    45944.199   -5719.5396      15.2149      13.1765      28.7324    5760.2466 
   14500       14.485    221.48433    9.2471981   -706.66257   -697.41537    29899.169    46463.634     48757.31   -5523.4368      15.2149      13.1765      28.7324    5760.2466 
   15000       14.985    224.42863    9.3701257   -706.77969   -697.40957    29218.204    47025.302     46130.05     -5500.74      15.2149      13.1765      28.7324    5760.2466 
   15500       15.485    223.69402    9.3394549   -706.74313   -697.40368    28272.627    48083.034    48147.072   -11412.224      15.2149      13.1765      28.7324    5760.2466 
   16000       15.985    228.31532    9.5323991   -706.92976   -697.39736    29554.446    45879.189    46103.285   -3319.1367      15.2149      13.1765      28.7324    5760.2466 
   16500       16.485    231.62925     9.670759   -707.06219   -697.39143    27477.444     46347.52     46585.15   -10500.338      15.2149      13.1765      28.7324    5760.2466 
   17000       16.985    220.99987    9.2269715   -706.61034   -697.38337    31318.393    48158.927    47494.907   -1698.6549      15.2149      13.1765      28.7324    5760.2466 
   17500       17.485     223.0384    9.3120821   -706.68849    -697.3764    28845.456    45469.777    47452.499   -6385.9062      15.2149      13.1765      28.7324    5760.2466 
   18000       17.985    241.37699    10.077737    -707.4479   -697.37016    29749.712    47720.456     48440.12   -6911.4406      15.2149      13.1765      28.7324    5760.2466 
   18500       18.485    228.39561    9.5357512   -706.89847   -697.36272    28826.906    46240.793    47229.148   -6989.2227      15.2149      13.1765      28.7324    5760.2466 
   19000       18.985    231.13714     9.650213   -707.00582   -697.35561    29946.372    51211.745    48481.848   -9854.4787      15.2149      13.1765      28.7324    5760.2466 
   19500       19.485    229.08434    9.5645066   -706.91195   -697.34744    28387.863    47913.924    47810.689   -10561.023      15.2149      13.1765      28.7324    5760.2466 
   20000       19.985    230.46953    9.6223395   -706.96217   -697.33984    30311.323    50357.795    46798.923   -6222.7489      15.2149      13.1765      28.7324    5760.2466 
   20500       20.485    231.31312    9.6575604   -706.98834   -697.33078    27901.695    46220.562    46645.397   -9160.8749      15.2149      13.1765      28.7324    5760.2466 
   21000       20.985    228.84414    9.5544778   -706.87838    -697.3239    31320.065    47681.268     50104.34   -3825.4117      15.2149      13.1765      28.7324    5760.2466 
   21500       21.485    226.94029    9.4749902     -706.789   -697.31401    27192.816    47251.138    45177.539    -10850.23      15.2149      13.1765      28.7324    5760.2466 
   22000       21.985      230.097    9.6067861    -706.9128   -697.30601    28851.213    48998.634    47717.132   -10162.128      15.2149      13.1765      28.7324    5760.2466 
   22500       22.485    240.39746    10.036841    -707.3345   -697.29766    28566.685    44417.596    48899.856   -7617.3967      15.2149      13.1765      28.7324    5760.2466 
   23000       22.985    240.17103    10.027387   -707.31492   -697.28753    28089.989    47006.092    49242.279   -11978.403      15.2149      13.1765      28.7324    5760.2466 
   23500       23.485    222.98094    9.3096834   -706.58783   -697.27815    28766.731    48937.293    47916.268   -10553.367      15.2149      13.1765      28.7324    5760.2466 
   24000       23.985    233.58254    9.7523108   -707.02153   -697.26922    30124.821    47990.757    46864.936   -4481.2284      15.2149      13.1765      28.7324    5760.2466 
   24500       24.485    221.62903    9.2532395   -706.51228   -697.25904    28401.492    48547.942    46316.915   -9660.3819      15.2149      13.1765      28.7324    5760.2466 
   25000       24.985    232.13387    9.6918273   -706.94178   -697.24996    30330.256    47856.059    46640.922    -3506.212      15.2149      13.1765      28.7324    5760.2466 
   25500       25.485    235.41436    9.8287913   -707.06839    -697.2396    26096.115    47243.129    47201.749   -16156.533      15.2149      13.1765      28.7324    5760.2466 
   26000       25.985    225.14396    9.3999917   -706.63001   -697.23002    28404.646    49019.824    44126.839   -7932.7243      15.2149      13.1765      28.7324    5760.2466 
   26500       26.485     216.4248    9.0359574    -706.2553   -697.21934    27992.898    45714.195    44901.737   -6637.2385      15.2149      13.1765      28.7324    5760.2466 
   27000       26.985    213.46292    8.9122962   -706.12145   -697.20915    29383.073    49301.405    47215.705   -8367.8915      15.2149      13.1765      28.7324    5760.2466 
   27500       27.485    233.87542     9.764539   -706.96374    -697.1992    29950.655     45600.14    49724.229   -5472.4059      15.2149      13.1765      28.7324    5760.2466 
   28000       27.985    224.01217     9.352738    -706.5405   -697.18776     26618.55    43864.203    45488.413   -9496.9642      15.2149      13.1765      28.7324    5760.2466 
   28500       28.485    217.26385    9.0709887    -706.2479   -697.17692    27702.263    43033.839    44596.369   -4523.4194      15.2149      13.1765      28.7324    5760.2466 
   29000       28.985    240.47321    10.040004   -707.20669   -697.16668    29097.229    47406.908    49310.228   -9425.4499      15.2149      13.1765      28.7324    5760.2466 
   29500       29.485    224.92229    9.3907364   -706.54603   -697.15529    28125.684    47769.779    46833.954   -10226.681      15.2149      13.1765      28.7324    5760.2466 
   30000       29.985    231.23693    9.6543795    -706.7985   -697.14412    30017.341    48988.789    48185.853   -7122.6187      15.2149      13.1765      28.7324    5760.2466 
   30500       30.485    239.18959    9.9864109   -707.11913   -697.13272    29808.631    50251.215    46721.777      -7547.1      15.2149      13.1765      28.7324    5760.2466 
   31000       30.985    222.19977    9.2770685   -706.39755   -697.12048     29129.17    49353.381    49644.844   -11610.715      15.2149      13.1765      28.7324    5760.2466 
   31500       31.485    234.05266    9.7719391   -706.88197   -697.11003    28183.376    47638.729    47434.076   -10522.676      15.2149      13.1765      28.7324    5760.2466 
   32000       31.985    222.55801    9.2920255   -706.38902   -697.09699    29490.571    50079.032    47985.478   -9592.7976      15.2149      13.1765      28.7324    5760.2466 
   32500       32.485    227.22781    9.4869943   -706.57167   -697.08468    29239.559    48037.471     49043.51   -9362.3063      15.2149      13.1765      28.7324    5760.2466 
   33000       32.985    235.30344    9.8241603   -706.89721   -697.07305    29260.828    46677.372     48525.43   -7420.3178      15.2149      13.1765      28.7324    5760.2466 
   33500       33.485    239.82456    10.012922   -707.07392   -697.06099     29592.63    48031.758    47524.227   -6778.0965      15.2149      13.1765      28.7324    5760.2466 
   34000       33.985    217.07217    9.0629862   -706.11086   -697.04787    30614.945    49619.363    46704.073   -4478.5994      15.2149      13.1765      28.7324    5760.2466 
   34500       34.485    238.50766    9.9579397   -706.99487   -697.03693    29983.818    49344.112    50695.808   -10088.466      15.2149      13.1765      28.7324    5760.2466 
   35000       34.985    230.26547    9.6138196   -706.63728   -697.02346    29666.978    48631.864    46213.527   -5844.4563      15.2149      13.1765      28.7324    5760.2466 
   35500       35.485    232.41808    9.7036934   -706.71417   -697.01048    28866.334    45265.689    47313.362   -5980.0498      15.2149      13.1765      28.7324    5760.2466 
   36000       35.985    225.71973    9.4240304    -706.4216   -696.99757    29764.054    46385.824    47952.815   -5046.4761      15.2149      13.1765      28.7324    5760.2466 
   36500       36.485    226.81365    9.4697027   -706.45546   -696.98576    29631.541    45692.922    49368.532   -6166.8312      15.2149      13.1765      28.7324    5760.2466 
   37000       36.985    223.83645    9.3454017   -706.31829   -696.97289    29840.745    46900.024      50925.7   -8303.4908      15.2149      13.1765      28.7324    5760.2466 
   37500       37.485    224.72427    9.3824689   -706.34167    -696.9592    28496.023     50936.32    43358.493   -8806.7451      15.2149      13.1765      28.7324    5760.2466 
   38000       37.985    238.14809    9.9429273    -706.8901   -696.94717     29053.22    47951.605    48296.737   -9088.6816      15.2149      13.1765      28.7324    5760.2466 
   38500       38.485    233.11117    9.7326309   -706.66642   -696.93379    29986.553    44959.015    47549.123   -2548.4797      15.2149      13.1765      28.7324    5760.2466 
   39000       38.985    231.66792    9.6723736   -706.59265   -696.92028    28378.994    49620.582    45338.598   -9822.1962      15.2149      13.1765      28.7324    5760.2466 
   39500       39.485     215.8219    9.0107859   -705.91803   -696.90724    28653.562    44235.139     49657.75   -7932.2029      15.2149      13.1765      28.7324    5760.2466 
   40000       39.985    220.51157    9.2065844   -706.10071   -696.89412    28996.872    46468.521    47874.045   -7351.9503      15.2149      13.1765      28.7324    5760.2466 
   40500       40.485    242.73964    10.134629   -707.01724   -696.88261    29948.991    47357.107    48968.324   -6478.4573      15.2149      13.1765      28.7324    5760.2466 
   41000       40.985    221.07845    9.2302523   -706.09827   -696.86802    24595.279    41612.953    44861.461   -12688.576      15.2149      13.1765      28.7324    5760.2466 
   41500       41.485    229.05786     9.563401   -706.41942   -696.85602    26938.703    46253.957    45359.118   -10796.966      15.2149      13.1765      28.7324    5760.2466 
   42000       41.985    232.94324    9.7256196   -706.56806   -696.84244    29370.205    45336.083    48927.727   -6153.1938      15.2149      13.1765      28.7324    5760.2466 
   42500       42.485    235.28251    9.8232863   -706.65282   -696.82953    31138.343    46954.005    52563.472   -6102.4484      15.2149      13.1765      28.7324    5760.2466 
   43000       42.985    230.05629    9.6050862   -706.42102   -696.81594    28574.565     48998.16    47933.515    -11207.98      15.2149      13.1765      28.7324    5760.2466 
   43500       43.485    241.60211    10.087136   -706.89007   -696.80294    30123.629    47536.783    50840.512   -8006.4072      15.2149      13.1765      28.7324    5760.2466 
   44000       43.985    231.67367    9.6726137   -706.46269   -696.79008    29044.718    46607.962    45797.332    -5271.139      15.2149      13.1765      28.7324    5760.2466 
   44500       44.485     227.8223    9.5118148   -706.28842   -696.77661    26633.212    45077.303    46990.577   -12168.245      15.2149      13.1765      28.7324    5760.2466 
   45000       44.985    233.04543    9.7298859   -706.49354   -696.76365    28569.068    47759.662    49657.613   -11710.069      15.2149      13.1765      28.7324    5760.2466 
   45500       45.485    232.41475    9.7035545    -706.4543   -696.75075    28222.875    46620.072    47064.434   -9015.8808      15.2149      13.1765      28.7324    5760.2466 
   46000       45.985    234.98769    9.8109775   -706.54858   -696.73761    30313.073    49829.516    47899.975   -6790.2711      15.2149      13.1765      28.7324    5760.2466 
   46500       46.485    233.05685    9.7303629   -706.45472   -696.72436    30235.478    50189.631    49815.561   -9298.7568      15.2149      13.1765      28.7324    5760.2466 
   47000       46.985    236.09378    9.8571579   -706.56888   -696.71173    27741.405    48204.033    44779.923   -9759.7406      15.2149      13.1765      28.7324    5760.2466 
   47500       47.485    230.00918    9.6031195   -706.30096   -696.69784    29077.548    51267.386    49162.627   -13197.369      15.2149      13.1765      28.7324    5760.2466 
   48000       47.985    251.78918    10.512457   -707.19834   -696.68588    29120.791    49461.481    46877.654   -8976.7629      15.2149      13.1765      28.7324    5760.2466 
   48500       48.485    232.35585    9.7010955   -706.37264   -696.67155    28152.782    47436.297    48769.099   -11747.051      15.2149      13.1765      28.7324    5760.2466 
   49000       48.985    252.93372    10.560243    -707.2208   -696.66056    28961.516    45367.665    49740.678   -8223.7934      15.2149      13.1765      28.7324    5760.2466 
   49500       49.485    241.79134    10.095037   -706.74229   -696.64725    28284.239    49005.054    48616.131    -12768.47      15.2149      13.1765      28.7324    5760.2466 
   50000       49.985    228.33143    9.5330716   -706.16722   -696.63415    28223.994    46847.841    49676.872    -11852.73      15.2149      13.1765      28.7324    5760.2466 
   50500       50.485    238.50929    9.9580076   -706.57996   -696.62195    29754.415    47846.406    48629.531     -7212.69      15.2149      13.1765      28.7324    5760.2466 
   51000       50.985    240.44796    10.038949   -706.64859   -696.60964    28814.867    44265.554    49698.767   -7519.7207      15.2149      13.1765      28.7324    5760.2466 
   51500       51.485    242.07678    10.106954   -706.70395   -696.59699    29203.034    49672.095    48078.988   -10141.982      15.2149      13.1765      28.7324    5760.2466 
   52000       51.985    238.16211    9.9435126   -706.52796   -696.58445    29693.397    48573.447    49527.854   -9021.1112      15.2149      13.1765      28.7324    5760.2466 
   52500       52.485    246.72782     10.30114   -706.87326   -696.57212     30885.87    47103.486    51720.595   -6166.4715      15.2149      13.1765      28.7324    5760.2466 
   53000       52.985    231.17358    9.6517345   -706.21132   -696.55959    29047.425    49718.143    47382.343   -9958.2111      15.2149      13.1765      28.7324    5760.2466 
   53500       53.485    228.01825    9.5199962   -706.06668   -696.54668    29378.172      46951.7    49971.355   -8788.5402      15.2149      13.1765      28.7324    5760.2466 
   54000       53.985    241.54186    10.084621   -706.61876   -696.53414    28897.861    45883.335    45972.084   -5161.8358      15.2149      13.1765      28.7324    5760.2466 
   54500       54.485    239.37669    9.9942228   -706.51652    -696.5223    28231.533    45789.511    46471.309   -7566.2211      15.2149      13.1765      28.7324    5760.2466 
   55000       54.985    220.28059    9.1969409   -705.70735   -696.51041     28887.14    48289.426    47512.716    -9140.721      15.2149      13.1765      28.7324    5760.2466 
   55500       55.485    230.35921    9.6177335   -706.11663    -696.4989    27758.485    45620.356    49473.733   -11818.634      15.2149      13.1765      28.7324    5760.2466 
   56000       55.985    233.36067    9.7430476   -706.23006   -696.48701    29873.301     49290.26    47077.941   -6748.2991      15.2149      13.1765      28.7324    5760.2466 
   56500       56.485    240.10297    10.024545   -706.49962   -696.47507    28147.683    46673.059    49122.764   -11352.774      15.2149      13.1765      28.7324    5760.2466 
   57000       56.985     224.2806    9.3639452   -705.82681   -696.46286    29347.842    44254.173    50337.257    -6547.904      15.2149      13.1765      28.7324    5760.2466 
   57500       57.485    247.70335    10.341869   -706.79414   -696.45227    30033.083    46635.019    49199.089   -5734.8595      15.2149      13.1765      28.7324    5760.2466 
   58000       57.985    246.05382       10.273   -706.71359   -696.44059    28338.148    50186.085    48887.674   -14059.314      15.2149      13.1765      28.7324    5760.2466 
   58500       58.485    244.39272    10.203647   -706.63301   -696.42936    29201.925    50807.412    51370.911   -14572.546      15.2149      13.1765      28.7324    5760.2466 
   59000       58.985    242.46164    10.123022    -706.5401   -696.41708    28671.509    46041.152    47283.256   -7309.8817      15.2149      13.1765      28.7324    5760.2466 
   59500       59.485    248.97927     10.39514   -706.80146   -696.40632    31646.902    51103.789    49946.016   -6109.0975      15.2149      13.1765      28.7324    5760.2466 
   60000       59.985    230.32199    9.6161798   -706.01002   -696.39384    28056.549    51154.047    43951.984   -10936.385      15.2149      13.1765      28.7324    5760.2466 
   60500       60.485    242.62256    10.129741   -706.51288   -696.38314    28085.027    47289.127    47159.076   -10193.122      15.2149      13.1765      28.7324    5760.2466 
   61000       60.985    241.86063     10.09793   -706.46935   -696.37142    28054.709    45143.627    45817.906   -6797.4068      15.2149      13.1765      28.7324    5760.2466 
   61500       61.485    240.71174    10.049962   -706.40981   -696.35984    28591.847    48216.659    47923.219   -10364.336      15.2149      13.1765      28.7324    5760.2466 
   62000       61.985    243.67093    10.173511   -706.52267   -696.34916    27139.994    45834.796    47451.219   -11866.033      15.2149      13.1765      28.7324    5760.2466 
   62500       62.485    230.86268    9.6387541   -705.97656   -696.33781    24387.377    45742.517    46349.803   -18930.188      15.2149      13.1765      28.7324    5760.2466 
   63000       62.985    244.39587    10.203778   -706.53205   -696.32828    30846.406    48509.832    51111.079   -7081.6927      15.2149      13.1765      28.7324    5760.2466 
   63500       63.485    245.92346    10.267557   -706.58375    -696.3162    30717.919    46771.209    48824.544   -3441.9954      15.2149      13.1765      28.7324    5760.2466 
   64000       63.985    234.76369     9.801625   -706.10567   -696.30404    27962.139    45225.097    45787.299     -7125.98      15.2149      13.1765      28.7324    5760.2466 
   64500       64.485    240.86124    10.056204   -706.34993   -696.29372    30133.813    47360.293    46768.243   -3727.0989      15.2149      13.1765      28.7324    5760.2466 
   65000       64.985    235.13424     9.817096   -706.09971   -696.28261    29265.061    47547.658    51057.081   -10809.555      15.2149      13.1765      28.7324    5760.2466 
   65500       65.485    237.19812    9.9032651   -706.17527     -696.272    26885.918    47280.775    48073.346   -14696.368      15.2149      13.1765      28.7324    5760.2466 
   66000       65.985    240.12229    10.025352   -706.28682   -696.26147    28119.797    44631.234    46626.289   -6898.1324      15.2149      13.1765      28.7324    5760.2466 
   66500       66.485    243.26695    10.156645   -706.40754   -696.25089    29062.868    44479.621    49122.601   -6413.6183      15.2149      13.1765      28.7324    5760.2466 
   67000       66.985    231.98067    9.6854312   -705.92476   -696.23933    26453.709    46993.806    45617.913   -13250.594      15.2149      13.1765      28.7324    5760.2466 
   67500       67.485    237.87125    9.9313688   -706.15916    -696.2278    30482.049     50048.67    50771.178   -9373.7017      15.2149      13.1765      28.7324    5760.2466 
   68000       67.985    245.93262    10.267939    -706.4863   -696.21836    27879.382    45198.042    49068.099   -10627.993      15.2149      13.1765      28.7324    5760.2466 
   68500       68.485    249.22579    10.405433   -706.61313    -696.2077    30024.611     49767.26    46714.244    -6407.672      15.2149      13.1765      28.7324    5760.2466 
   69000       68.985     242.5559    10.126958   -706.32339   -696.19643      28817.5    44279.666    47514.652    -5341.818      15.2149      13.1765      28.7324    5760.2466 
   69500       69.485    241.36787    10.077356   -706.26292   -696.18557    28804.388    46196.377    48449.011    -8232.223      15.2149      13.1765      28.7324    5760.2466 
   70000       69.985    244.69631    10.216322   -706.39074   -696.17442    29658.174    48136.991    50222.502   -9384.9714      15.2149      13.1765      28.7324    5760.2466 
   70500       70.485    245.76829    10.261078   -706.42523   -696.16415    29339.362    47335.974    46984.496   -6302.3834      15.2149      13.1765      28.7324    5760.2466 
   71000       70.985    242.27572     10.11526   -706.26848   -696.15322    28496.194     47591.84    46740.733   -8843.9903      15.2149      13.1765      28.7324    5760.2466 
   71500       71.485    247.71369    10.342301   -706.48433   -696.14203    29072.262    45090.376    48042.239   -5915.8295      15.2149      13.1765      28.7324    5760.2466 
   72000       71.985    241.57222    10.085888   -706.21683   -696.13094    29204.431    48291.984    48401.499   -9080.1895      15.2149      13.1765      28.7324    5760.2466 
   72500       72.485    236.78387    9.8859695   -706.00661   -696.12064    28052.486    44221.558    48667.797   -8731.8971      15.2149      13.1765      28.7324    5760.2466 
   73000       72.985    235.05711    9.8138755   -705.92419   -696.11031    29096.084    47545.367    48661.593   -8918.7084      15.2149      13.1765      28.7324    5760.2466 
   73500       73.485    238.62069    9.9626587   -706.06224   -696.09959    28314.365    46941.225    48062.145   -10060.275      15.2149      13.1765      28.7324    5760.2466 
   74000       73.985    237.15432    9.9014364   -705.99044     -696.089    27085.567    45430.988    49190.979   -13365.264      15.2149      13.1765      28.7324    5760.2466 
   74500       74.485    249.10239     10.40028   -706.47925   -696.07897    32121.273    48245.233    51827.405   -3708.8186      15.2149      13.1765      28.7324    5760.2466 
   75000       74.985    232.54536    9.7090077   -705.77629   -696.06728    27482.519    45659.712    48249.761   -11461.918      15.2149      13.1765      28.7324    5760.2466 
   75500       75.485    236.53781    9.8756966   -705.93294   -696.05725    24908.066    43795.499    45492.497   -14563.799      15.2149      13.1765      28.7324    5760.2466 
   76000       75.985    235.04128    9.8132147   -705.86027   -696.04705    23964.201     44707.32    46838.853    -19653.57      15.2149      13.1765      28.7324    5760.2466 
   76500       76.485    228.33146    9.5330728    -705.5695   -696.03643    30371.216    50255.896    47416.379   -6558.6285      15.2149      13.1765      28.7324    5760.2466 
   77000       76.985    244.09537    10.191232   -706.21751   -696.02627    29347.096    48768.217    47268.651   -7995.5803      15.2149      13.1765      28.7324    5760.2466 
   77500       77.485    236.71699    9.8831776   -705.89837   -696.01519    26416.428    45877.597    44329.298    -10957.61      15.2149      13.1765      28.7324    5760.2466 
   78000       77.985    255.81546    10.680558   -706.68553   -696.00497    30611.062    49187.726    48548.181   -5902.7191      15.2149      13.1765      28.7324    5760.2466 
   78500       78.485    248.60963    10.379707   -706.37287   -695.99317    30111.374    48208.346    52581.744   -10455.967      15.2149      13.1765      28.7324    5760.2466 
   79000       78.985    229.87795    9.5976405   -705.57971   -695.98207    28051.081    44500.066    50814.459   -11161.282      15.2149      13.1765      28.7324    5760.2466 
   79500       79.485    243.01352    10.146064   -706.11755   -695.97149    30644.481     47450.58    49464.662   -4981.7971      15.2149      13.1765      28.7324    5760.2466 
   80000       79.985     237.9604    9.9350909   -705.89523   -695.96014    27268.416    46804.067    48913.298   -13912.119      15.2149      13.1765      28.7324    5760.2466 
   80500       80.485    236.29067    9.8653779   -705.81478    -695.9494    23763.498    46836.082    44025.783   -19571.371      15.2149      13.1765      28.7324    5760.2466 
   81000       80.985    244.48716     10.20759   -706.14651   -695.93892     32491.22    52324.701    50451.911   -5302.9527      15.2149      13.1765      28.7324    5760.2466 
   81500       81.485    244.36601    10.202532   -706.12981   -695.92728    27221.773    46430.431    46588.794   -11353.905      15.2149      13.1765      28.7324    5760.2466 
   82000       81.985    253.11989    10.568015   -706.48474   -695.91672     30308.76    49394.432    49431.856   -7900.0096      15.2149      13.1765      28.7324    5760.2466 
   82500       82.485    241.26421    10.073028   -705.97857   -695.90554      28639.7    47349.482     45772.63   -7203.0103      15.2149      13.1765      28.7324    5760.2466 
   83000       82.985    223.13983     9.316317   -705.20888   -695.89257    29266.197    51228.624    48623.642   -12053.674      15.2149      13.1765      28.7324    5760.2466 
   83500       83.485    252.40887     10.53833   -706.42075   -695.88242     29170.06     44226.28    49098.252   -5814.3529      15.2149      13.1765      28.7324    5760.2466 
   84000       83.985    248.91782    10.392575   -706.26405   -695.87147    25699.018    43632.986    45843.534   -12379.467      15.2149      13.1765      28.7324    5760.2466 
   84500       84.485    251.83169    10.514232   -706.37497   -695.86074    29594.787    51116.467    49717.589   -12049.696      15.2149      13.1765      28.7324    5760.2466 
   85000       84.985    252.51259     10.54266   -706.39132   -695.84866    29016.783    48526.244    49709.957   -11185.852      15.2149      13.1765      28.7324    5760.2466 
   85500       85.485     237.6786    9.9233256   -705.76046   -695.83713     27841.37    47088.705    49469.864   -13034.459      15.2149      13.1765      28.7324    5760.2466 
   86000       85.985    248.32194    10.367696   -706.19374   -695.82604    28087.485    44697.775    45832.275   -6267.5951      15.2149      13.1765      28.7324    5760.2466 
   86500       86.485    226.84513     9.471017   -705.28464   -695.81362    27520.078    46906.686     47022.22   -11368.673      15.2149      13.1765      28.7324    5760.2466 
   87000       86.985    240.02323    10.021216   -705.82438   -695.80316    30551.551    49779.355     49290.66   -7415.3633      15.2149      13.1765      28.7324    5760.2466 
   87500       87.485    254.38953    10.621024   -706.41363   -695.79261    28532.839    45965.135    47101.187   -7467.8063      15.2149      13.1765      28.7324    5760.2466 
   88000       87.985    240.43028    10.038211   -705.81737   -695.77916    27933.696    45062.505    49710.886   -10972.303      15.2149      13.1765      28.7324    5760.2466 
   88500       88.485     244.6797    10.215629   -705.98347   -695.76784    28007.257    44011.724    47988.619     -7978.57      15.2149      13.1765      28.7324    5760.2466 
   89000       88.985    251.90522    10.517302   -706.27389   -695.75659    30441.748    48967.061     50731.15   -8372.9688      15.2149      13.1765      28.7324    5760.2466 
   89500       89.485    238.75039    9.9680739   -705.71229   -695.74422    28762.913     46018.91    49240.481    -8970.651      15.2149      13.1765      28.7324    5760.2466 
   90000       89.985    258.74269    10.802773   -706.53636   -695.73359    29847.759    48088.634    49798.706   -8344.0635      15.2149      13.1765      28.7324    5760.2466 
   90500       90.485    244.93557    10.226312   -705.94598   -695.71967    27201.541    46579.367    47723.612   -12698.355      15.2149      13.1765      28.7324    5760.2466 
   91000       90.985     250.2216    10.447009   -706.15529   -695.70828    31127.397    49748.611    52892.433   -9258.8522      15.2149      13.1765      28.7324    5760.2466 
   91500       91.485    245.47163    10.248693   -705.94442   -695.69572    25042.405    46408.146    46617.113   -17898.043      15.2149      13.1765      28.7324    5760.2466 
   92000       91.985    230.71664    9.6326564   -705.31673   -695.68407     24304.16    46423.619    44378.687   -17889.825      15.2149      13.1765      28.7324    5760.2466 
   92500       92.485    239.35254    9.9932143   -705.66595   -695.67274    26186.759    48387.978    48117.007   -17944.709      15.2149      13.1765      28.7324    5760.2466 
   93000       92.985     233.7966    9.7612482   -705.42142   -695.66018    23235.609     43388.41    49087.184   -22768.767      15.2149      13.1765      28.7324    5760.2466 
   93500       93.485    246.99888    10.312457   -705.96145   -695.64899    25641.204    45653.852    43444.616   -12174.856      15.2149      13.1765      28.7324    5760.2466 
   94000       93.985    257.12202    10.735108   -706.37209   -695.63698    31805.442    48503.768    50758.503   -3845.9468      15.2149      13.1765      28.7324    5760.2466 
   94500       94.485     237.4211    9.9125747   -705.53669   -695.62412    24239.404    45463.673    46345.758   -19091.218      15.2149      13.1765      28.7324    5760.2466 
   95000       94.985    236.58956    9.8778571   -705.48961   -695.61175    24462.298    46035.393    46632.317   -19280.816      15.2149      13.1765      28.7324    5760.2466 
   95500       95.485    231.53183    9.6666918   -705.26668   -695.59999     26369.81    45037.572    45626.228    -11554.37      15.2149      13.1765      28.7324    5760.2466 
   96000       95.985    230.86368    9.6387957   -705.22688   -695.58808    26937.899    48293.638    49720.148    -17200.09      15.2149      13.1765      28.7324    5760.2466 
   96500       96.485    254.00876    10.605127   -706.18169   -695.57657    29426.653    47968.793      48486.5   -8175.3337      15.2149      13.1765      28.7324    5760.2466 
   97000       96.985    242.94242    10.143095   -705.70586   -695.56276    28222.082    47268.091     46722.53   -9324.3756      15.2149      13.1765      28.7324    5760.2466 
   97500       97.485     250.2447    10.447973    -705.9982   -695.55023    27537.683    46563.012    45245.934   -9195.8963      15.2149      13.1765      28.7324    5760.2466 
   98000       97.985    251.52835    10.501567   -706.03913   -695.53756    29440.888     48633.22    48143.316   -8453.8729      15.2149      13.1765      28.7324    5760.2466 
   98500       98.485    246.63436    10.297238   -705.82184    -695.5246     26018.86    44143.161    45420.855   -11507.434      15.2149      13.1765      28.7324    5760.2466 
   99000       98.985    245.65328    10.256277   -705.76765   -695.51137     28978.42    47632.933    45624.652   -6322.3239      15.2149      13.1765      28.7324    5760.2466 
   99500       99.485    234.56035    9.7931353    -705.2916   -695.49847    24587.187    48065.189    42882.602    -17186.23      15.2149      13.1765      28.7324    5760.2466 
  100000       99.985    232.22292    9.6955456   -705.18101   -695.48546    28042.754    48068.465    46640.928   -10581.131      15.2149      13.1765      28.7324    5760.2466 
  100500      100.485     247.8548    10.348192   -705.82141   -695.47322    29194.394    48948.712     44766.35   -6131.8798      15.2149      13.1765      28.7324    5760.2466 
  101000      100.985    235.88643    9.8485007   -705.30786   -695.45936    24952.026    45271.609    46818.037   -17233.568      15.2149      13.1765      28.7324    5760.2466 
  101500      101.485    249.17662     10.40338   -705.85013   -695.44675    30053.653    46263.906    49221.607   -5324.5557      15.2149      13.1765      28.7324    5760.2466 
  102000      101.985    241.07848    10.065274   -705.49836   -695.43309    26652.477    48304.226    50081.273   -18428.067      15.2149      13.1765      28.7324    5760.2466 
  102500      102.485    245.45825    10.248134   -705.66839   -695.42026    26418.186    45141.333     46572.21   -12458.986      15.2149      13.1765      28.7324    5760.2466 
  103000      102.985    251.97049    10.520027   -705.92711   -695.40708    31063.229    48767.325    51507.252    -7084.891      15.2149      13.1765      28.7324    5760.2466 
  103500      103.485    249.90044      10.4336    -705.8273    -695.3937     27052.17    46655.804    46505.134   -12004.429      15.2149      13.1765      28.7324    5760.2466 
  104000      103.985    251.65487    10.506849   -705.88653   -695.37968    25372.764    44963.337    46817.064   -15662.111      15.2149      13.1765      28.7324    5760.2466 
  104500      104.485     238.7511    9.9681037   -705.33434   -695.36623    28796.225    47380.188    44191.622   -5183.1348      15.2149      13.1765      28.7324    5760.2466 
  105000      104.985    235.31222    9.8245266    -705.1764   -695.35187    25983.278    48395.201    45175.296   -15620.664      15.2149      13.1765      28.7324    5760.2466 
  105500      105.485    254.56139    10.628199   -705.96837   -695.34017    26015.284    45849.079     44688.26   -12491.486      15.2149      13.1765      28.7324    5760.2466 
  106000      105.985    244.29142    10.199418   -705.52618   -695.32676    29121.295    48007.694    49706.343   -10350.154      15.2149      13.1765      28.7324    5760.2466 
  106500      106.485    242.76216    10.135569   -705.44779   -695.31222    25876.785    48008.242    46397.614   -16775.501      15.2149      13.1765      28.7324    5760.2466 
  107000      106.985    241.43365    10.080103   -705.37865   -695.29855    27960.448    47653.267    49194.846    -12966.77      15.2149      13.1765      28.7324    5760.2466 
  107500      107.485    255.98393    10.687592   -705.97256   -695.28497    28598.309    45500.157    50148.642   -9853.8719      15.2149      13.1765      28.7324    5760.2466 
  108000      107.985    234.89357    9.8070477   -705.07794   -695.27089    24464.551    46635.388     45131.27   -18373.006      15.2149      13.1765      28.7324    5760.2466 
  108500      108.485    233.70386    9.7573759   -705.01469   -695.25732    22936.294    40742.552      43931.1   -15864.771      15.2149      13.1765      28.7324    5760.2466 
  109000      108.985    256.48522    10.708521   -705.95363   -695.24511    29398.626    46845.127    47693.093   -6342.3416      15.2149      13.1765      28.7324    5760.2466 
  109500      109.485    249.62168    10.421961   -705.65235   -695.23039    25792.992     46495.41     48040.55   -17156.985      15.2149      13.1765      28.7324    5760.2466 
  110000      109.985    260.44627    10.873899   -706.09083   -695.21694    26540.891    48092.919    45614.624    -14084.87      15.2149      13.1765      28.7324    5760.2466 
  110500      110.485    256.94122     10.72756   -705.93048   -695.20292    28424.461    48876.832    49947.014   -13550.463      15.2149      13.1765      28.7324    5760.2466 
  111000      110.985    254.45698     10.62384   -705.81297   -695.18913    29352.442    48885.394    48352.674   -9180.7401      15.2149      13.1765      28.7324    5760.2466 
  111500      111.485    247.98472    10.353617   -705.52778   -695.17417    28072.122    47593.478    48525.685   -11902.796      15.2149      13.1765      28.7324    5760.2466 
  112000      111.985    267.97759    11.188339   -706.34783   -695.15949    31141.735    47918.853    49008.619   -3502.2685      15.2149      13.1765      28.7324    5760.2466 
  112500      112.485    260.34589    10.869708   -706.01537   -695.14566    26604.773    44857.474    44995.042   -10038.197      15.2149      13.1765      28.7324    5760.2466 
  113000      112.985    265.77617    11.096428    -706.2273   -695.13087    27306.512    47078.143    47444.249   -12602.856      15.2149      13.1765      28.7324    5760.2466 
  113500      113.485    245.56063    10.252408   -705.36859   -695.11618     28894.52    48189.812    49062.447   -10568.699      15.2149      13.1765      28.7324    5760.2466 
  114000      113.985    248.43316     10.37234   -705.47457   -695.10223    28845.903    45709.078    47166.291   -6337.6612      15.2149      13.1765      28.7324    5760.2466 
  114500      114.485    241.25363    10.072587   -705.15949    -695.0869    28053.855    46339.172    48357.319   -10534.927      15.2149      13.1765      28.7324    5760.2466 
  115000      114.985    258.64132    10.798541   -705.87168   -695.07314    28661.432    48461.947    46549.866   -9027.5157      15.2149      13.1765      28.7324    5760.2466 
  115500      115.485    257.52971     10.75213   -705.81076   -695.05863    29461.917    51122.629     47907.75   -10644.627      15.2149      13.1765      28.7324    5760.2466 
  116000      115.985    252.12051     10.52629   -705.56999    -695.0437    27350.383    47502.389    48988.517   -14439.758      15.2149      13.1765      28.7324    5760.2466 
  116500      116.485    254.23605    10.614616   -705.64397   -695.02935    28496.793    48219.783    47563.105   -10292.511      15.2149      13.1765      28.7324    5760.2466 
  117000      116.985    252.02045    10.522113   -705.53683   -695.01472    26729.473    46542.649    46506.673   -12860.903      15.2149      13.1765      28.7324    5760.2466 
  117500      117.485    269.56285    11.254526    -706.2543   -694.99977    29230.481     48790.75    49373.483   -10472.789      15.2149      13.1765      28.7324    5760.2466 
  118000      117.985    248.51842    10.375899   -705.36035   -694.98445    28880.795    47473.577    47421.732   -8252.9254      15.2149      13.1765      28.7324    5760.2466 
  118500      118.485    265.12348    11.069178   -706.03946   -694.97028    29688.448    47975.572    47667.053   -6577.2826      15.2149      13.1765      28.7324    5760.2466 
  119000      118.985    235.92633    9.8501664   -704.80525   -694.95508    25104.109    46515.623     44515.22   -15718.516      15.2149      13.1765      28.7324    5760.2466 
  119500      119.485    239.41712    9.9959106   -704.93569   -694.93978    24857.742    46788.805    43756.942    -15972.52      15.2149      13.1765      28.7324    5760.2466 
  120000      119.985      247.307    10.325321    -705.2513   -694.92598    21980.328    41852.528    42324.459   -18236.003      15.2149      13.1765      28.7324    5760.2466 
  120500      120.485    243.24357    10.155669   -705.06756    -694.9119    23755.056    42099.752    44522.811   -15357.397      15.2149      13.1765      28.7324    5760.2466 
  121000      120.985    237.89208    9.9322386    -704.8288   -694.89656    28216.013    49436.393    47406.678   -12195.031      15.2149      13.1765      28.7324    5760.2466 
  121500      121.485    257.18649      10.7378   -705.62022   -694.88242    27970.242    50357.179    49085.635   -15532.089      15.2149      13.1765      28.7324    5760.2466 
  122000      121.985    240.02706    10.021376   -704.88909   -694.86771    22056.462    42532.537    44450.874   -20814.026      15.2149      13.1765      28.7324    5760.2466 
  122500      122.485    259.86122    10.849473   -705.70347     -694.854    23838.296    43234.666    47636.682   -19356.461      15.2149      13.1765      28.7324    5760.2466 
  123000      122.985    253.69771     10.59214   -705.43096   -694.83882    26916.166    46436.548    46790.598   -12478.648      15.2149      13.1765      28.7324    5760.2466 
  123500      123.485    256.80553    10.721895   -705.54592   -694.82402     28357.97    48884.351     48458.99   -12269.431      15.2149      13.1765      28.7324    5760.2466 
  124000      123.985    251.19807    10.487777    -705.2955   -694.80773    30884.105    49307.539    48741.789   -5397.0135      15.2149      13.1765      28.7324    5760.2466 
  124500      124.485    263.78267    11.013197   -705.80716   -694.79396    25366.685    45776.103    45543.198   -15219.245      15.2149      13.1765      28.7324    5760.2466 
  125000      124.985    250.84593    10.473075   -705.25129   -694.77822    27885.722    45726.027    47145.032   -9213.8919      15.2149      13.1765      28.7324    5760.2466 
  125500      125.485       256.74    10.719159   -705.48269   -694.76353    29129.762    51852.942    46178.818   -10642.475      15.2149      13.1765      28.7324    5760.2466 
  126000      125.985    253.78985    10.595987   -705.34442   -694.74844    26145.281    45803.281    44135.882    -11503.32      15.2149      13.1765      28.7324    5760.2466 
  126500      126.485    237.59235    9.9197246   -704.65183    -694.7321    26810.764     48999.29    46708.612   -15275.609      15.2149      13.1765      28.7324    5760.2466 
  127000      126.985    259.04066    10.815214   -705.53277   -694.71755     27720.16    49859.503    46193.706   -12892.729      15.2149      13.1765      28.7324    5760.2466 
  127500      127.485      247.506     10.33363   -705.03594   -694.70231    26182.892    46062.162     47049.91   -14563.395      15.2149      13.1765      28.7324    5760.2466 
  128000      127.985    255.81299    10.680455   -705.36741   -694.68696    22621.304    46471.271    44425.285   -23032.644      15.2149      13.1765      28.7324    5760.2466 
  128500      128.485    257.34632    10.744473   -705.41679   -694.67232      27840.1    43569.413    47611.295   -7660.4072      15.2149      13.1765      28.7324    5760.2466 
  129000      128.985    267.31598    11.160717   -705.81871     -694.658    28728.521    47227.213    46849.045   -7890.6966      15.2149      13.1765      28.7324    5760.2466 
  129500      129.485    237.82919    9.9296129   -704.57055   -694.64094    23873.703     45137.85    45818.239   -19334.981      15.2149      13.1765      28.7324    5760.2466 
  130000      129.985    252.62753    10.547459   -705.17446     -694.627     25019.94    44188.008    47199.886   -16328.073      15.2149      13.1765      28.7324    5760.2466 
  130500      130.485    245.86674    10.265189   -704.87703   -694.61184    24213.322    44402.481    46743.883   -18506.399      15.2149      13.1765      28.7324    5760.2466 
  131000      130.985     246.4068    10.287737   -704.88485   -694.59711    24025.192    45435.329    41271.069   -14630.821      15.2149      13.1765      28.7324    5760.2466 
  131500      131.485    231.40754    9.6615023   -704.24234   -694.58084    24247.857    41516.108    45335.039   -14107.575      15.2149      13.1765      28.7324    5760.2466 
  132000      131.985    263.49073    11.001009   -705.56845   -694.56744    23060.503    46529.951    45112.619    -22461.06      15.2149      13.1765      28.7324    5760.2466 
  132500      132.485     251.9284     10.51827    -705.0703   -694.55203    23413.912    43209.978    45299.199   -18267.442      15.2149      13.1765      28.7324    5760.2466 
  133000      132.985    251.63326    10.505947   -705.04289   -694.53694    23458.614    44799.868    47968.974       -22393      15.2149      13.1765      28.7324    5760.2466 
  133500      133.485    242.25933    10.114576   -704.63634   -694.52177    22140.723    40137.209    45898.651   -19613.692      15.2149      13.1765      28.7324    5760.2466 
  134000      133.985    267.53603    11.169904   -705.67777   -694.50787    25807.336    46331.542    48387.727   -17297.262      15.2149      13.1765      28.7324    5760.2466 
  134500      134.485    259.92891    10.852299   -705.34412   -694.49182    28870.975    48449.431    48527.341   -10363.848      15.2149      13.1765      28.7324    5760.2466 
  135000      134.985    249.57739    10.420112   -704.89492    -694.4748    26621.292    42969.964    45126.104    -8232.192      15.2149      13.1765      28.7324    5760.2466 
  135500      135.485    259.72121    10.843627   -705.30393    -694.4603     22966.63    44734.806    42811.979   -18646.896      15.2149      13.1765      28.7324    5760.2466 
  136000      135.985    238.01177    9.9372357   -704.38185   -694.44461    20976.405    42061.667    42967.081   -22099.535      15.2149      13.1765      28.7324    5760.2466 
  136500      136.485    243.11385    10.150253    -704.5797   -694.42944     24955.97    44022.116    47329.593     -16483.8      15.2149      13.1765      28.7324    5760.2466 
  137000      136.985    239.57309    10.002422   -704.41633   -694.41391    23635.093    43893.911     44666.22   -17654.851      15.2149      13.1765      28.7324    5760.2466 
  137500      137.485    263.60159    11.005637   -705.40587   -694.40024    25004.271    46309.821     47031.26   -18328.267      15.2149      13.1765      28.7324    5760.2466 
  138000      137.985    254.41844    10.622231   -705.00636   -694.38413    23833.487    42823.737    45902.869   -17226.146      15.2149      13.1765      28.7324    5760.2466 
  138500      138.485    270.34554    11.287204     -705.656    -694.3688    24209.344    45885.714    43211.531   -16469.212      15.2149      13.1765      28.7324    5760.2466 
  139000      138.985     257.4219    10.747629   -705.10129   -694.35366    27063.895    46133.477    48889.958    -13831.75      15.2149      13.1765      28.7324    5760.2466 
  139500      139.485    256.73033    10.718755   -705.05584   -694.33708    26110.746    44799.815    48685.801   -15153.377      15.2149      13.1765      28.7324    5760.2466 
  140000      139.985     259.1721    10.820701   -705.14216   -694.32146    27364.939    49637.788    45050.182   -12593.152      15.2149      13.1765      28.7324    5760.2466 
  140500      140.485    254.94648    10.644277   -704.95052   -694.30624    29695.711    46991.524    46329.563   -4233.9528      15.2149      13.1765      28.7324    5760.2466 
  141000      140.985    260.19498    10.863408   -705.15276   -694.28935    26014.546    45882.808    48012.469   -15851.637      15.2149      13.1765      28.7324    5760.2466 
  141500      141.485    251.53183    10.501712   -704.77526   -694.27355    23490.769    44347.351    44116.801   -17991.846      15.2149      13.1765      28.7324    5760.2466 
  142000      141.985    249.19399    10.404105   -704.66325   -694.25914    22909.917    43801.403    43457.948     -18529.6      15.2149      13.1765      28.7324    5760.2466 
  142500      142.485    254.87658    10.641359   -704.88423   -694.24287    26405.579    46545.291    45792.856    -13121.41      15.2149      13.1765      28.7324    5760.2466 
  143000      142.985     261.2388    10.906988   -705.13427   -694.22728    28789.553    48931.207    47563.842    -10126.39      15.2149      13.1765      28.7324    5760.2466 
  143500      143.485    264.02104    11.023149   -705.23443   -694.21128     26264.09    44396.608    42741.977   -8346.3133      15.2149      13.1765      28.7324    5760.2466 
  144000      143.985    254.44444    10.623317   -704.81845   -694.19513    29972.938    49088.517    48560.359   -7730.0611      15.2149      13.1765      28.7324    5760.2466 
  144500      144.485    250.02914    10.438973   -704.61706   -694.17808    27964.349    49183.888    49790.337   -15081.178      15.2149      13.1765      28.7324    5760.2466 
  145000      144.985    259.95309    10.853308   -705.01643   -694.16312    24076.985    45556.659    46281.865   -19607.569      15.2149      13.1765      28.7324    5760.2466 
  145500      145.485    255.82487    10.680951   -704.82866   -694.14771    24215.971    46087.259    45379.392   -18818.739      15.2149      13.1765      28.7324    5760.2466 
  146000      145.985    256.42004      10.7058   -704.83782   -694.13202    23500.006    45422.587    44346.707   -19269.275      15.2149      13.1765      28.7324    5760.2466 
  146500      146.485    251.79962    10.512893   -704.62905   -694.11616    24147.371    41432.622    46474.365   -15464.874      15.2149      13.1765      28.7324    5760.2466 
  147000      146.985     253.9694    10.603483   -704.70424   -694.10076    22639.929    44560.774    43601.488   -20242.477      15.2149      13.1765      28.7324    5760.2466 
  147500      147.485    244.17111    10.194395   -704.27911   -694.08472     24371.92    45169.432    45052.104   -17105.776      15.2149      13.1765      28.7324    5760.2466 
  148000      147.985    260.50791    10.876473   -704.94711   -694.07063    23055.424    45440.287    42816.282   -19090.297      15.2149      13.1765      28.7324    5760.2466 
  148500      148.485    254.95258    10.644532   -704.69839   -694.05385    25278.472     48591.89    45510.403   -18266.877      15.2149      13.1765      28.7324    5760.2466 
  149000      148.985     259.2497    10.823941   -704.86209   -694.03815    23185.767    42596.146    45953.288   -18992.135      15.2149      13.1765      28.7324    5760.2466 
  149500      149.485    254.59673    10.629675   -704.65295   -694.02328    27040.715     47348.56    47499.406    -13725.82      15.2149      13.1765      28.7324    5760.2466 
  150000      149.985    269.32034    11.244401   -705.25156   -694.00716    31139.068    48284.595     51083.26   -5950.6506      15.2149      13.1765      28.7324    5760.2466 
  150500      150.485    267.09885    11.151651   -705.14204   -693.99039    27571.701    46737.437    49367.056   -13389.389      15.2149      13.1765      28.7324    5760.2466 
  151000      150.985    255.79858    10.679853   -704.65409   -693.97423    23699.149    43412.631    45391.822   -17707.005      15.2149      13.1765      28.7324    5760.2466 
  151500      151.485    252.57776    10.545381   -704.50387   -693.95849     23846.23    42973.414    44593.406   -16028.131      15.2149      13.1765      28.7324    5760.2466 
  152000      151.985    268.71984    11.219329   -705.16185   -693.94252    24664.463    44622.356    45272.167   -15901.135      15.2149      13.1765      28.7324    5760.2466 
  152500      152.485    244.64117     10.21402   -704.13999   -693.92597     26115.03    49137.029    45989.119   -16781.057      15.2149      13.1765      28.7324    5760.2466 
  153000      152.985    263.67387    11.008655   -704.91857   -693.90991    25799.816    43869.075    48080.394   -14550.022      15.2149      13.1765      28.7324    5760.2466 
  153500      153.485    272.18088    11.363831   -705.25743    -693.8936    25570.795    43308.801    44315.573   -10911.988      15.2149      13.1765      28.7324    5760.2466 
  154000      153.985    263.53118    11.002697   -704.88081   -693.87812    24545.205    42426.105    48077.267   -16867.756      15.2149      13.1765      28.7324    5760.2466 
  154500      154.485    248.63609    10.380812   -704.24275   -693.86194    24166.455    44671.077    47216.488   -19388.201      15.2149      13.1765      28.7324    5760.2466 
  155000      154.985    257.36908    10.745424   -704.59112    -693.8457    24938.203    44851.757    46551.062   -16588.211      15.2149      13.1765      28.7324    5760.2466 
  155500      155.485    271.55564    11.337727   -705.16741   -693.82968    25014.261    42634.265    48128.361   -15719.843      15.2149      13.1765      28.7324    5760.2466 
  156000      155.985    263.16618    10.987458   -704.80042   -693.81296    22985.461    42029.025     47073.74   -20146.382      15.2149      13.1765      28.7324    5760.2466 
  156500      156.485    267.65161    11.174729   -704.97159   -693.79687    25931.187    44183.747    47067.551   -13457.735      15.2149      13.1765      28.7324    5760.2466 
  157000      156.985     266.7841     11.13851   -704.91945   -693.78094    25095.956    46964.834    46087.083   -17764.049      15.2149      13.1765      28.7324    5760.2466 
  157500      157.485    266.43153     11.12379   -704.88804   -693.76425    24594.481    43272.721    49516.936   -19006.215      15.2149      13.1765      28.7324    5760.2466 
  158000      157.985    265.05706    11.066404   -704.81461    -693.7482    25520.965    46112.919    49032.158   -18582.182      15.2149      13.1765      28.7324    5760.2466 
  158500      158.485    283.46671    11.835026   -705.56838   -693.73335    25425.221    44381.534    45801.552   -13907.425      15.2149      13.1765      28.7324    5760.2466 
  159000      158.985    251.68345    10.508042   -704.22332   -693.71528    25240.345     46419.28    46598.951   -17297.196      15.2149      13.1765      28.7324    5760.2466 
  159500      159.485    274.89579    11.477181   -705.17596   -693.69878    22885.714     42426.27    48409.462   -22178.592      15.2149      13.1765      28.7324    5760.2466 
  160000      159.985    265.12215    11.069122   -704.75137   -693.68225    25061.959    45645.457    47842.735   -18302.315      15.2149      13.1765      28.7324    5760.2466 
  160500      160.485    250.45124    10.456596   -704.12226   -693.66566     24033.86    42822.957    47650.068   -18371.444      15.2149      13.1765      28.7324    5760.2466 
  161000      160.985    264.56556    11.045884   -704.69625   -693.65037    25878.841    45249.755    46924.278   -14537.509      15.2149      13.1765      28.7324    5760.2466 
  161500      161.485    260.21017    10.864042   -704.49838   -693.63434    24493.588    42956.424    48442.765   -17918.425      15.2149      13.1765      28.7324    5760.2466 
  162000      161.985    277.40054    11.581757   -705.19922   -693.61746    25846.506    42198.627    48446.742   -13105.852      15.2149      13.1765      28.7324    5760.2466 
  162500      162.485    272.15653    11.362814   -704.96429   -693.60147    24288.095    42666.865    44557.269   -14359.849      15.2149      13.1765      28.7324    5760.2466 
  163000      162.985    276.53005    11.545414   -705.13042     -693.585    25763.699    46008.187    46982.717   -15699.807      15.2149      13.1765      28.7324    5760.2466 
  163500      163.485    263.61432    11.006169   -704.57468   -693.56851    24146.086    42233.574    44982.397   -14777.714      15.2149      13.1765      28.7324    5760.2466 
  164000      163.985    273.83377    11.432841    -704.9845   -693.55166    26015.995    46873.153    48570.277   -17395.443      15.2149      13.1765      28.7324    5760.2466 
  164500      164.485    281.34633    11.746498   -705.28227   -693.53578    24590.293    45414.008     44292.43   -15935.559      15.2149      13.1765      28.7324    5760.2466 
  165000      164.985    270.71651    11.302692   -704.82142   -693.51873    24794.098    44695.428    47032.126    -17345.26      15.2149      13.1765      28.7324    5760.2466 
  165500      165.485    283.16008    11.822224    -705.3243   -693.50208    25035.506    44375.541    48831.729   -18100.752      15.2149      13.1765      28.7324    5760.2466 
  166000      165.985    283.94164    11.854855   -705.34094   -693.48608    31549.809    46231.397    50005.796   -1587.7659      15.2149      13.1765      28.7324    5760.2466 
  166500      166.485     261.7562     10.92859   -704.39673   -693.46814    26705.811    44928.662    50326.239   -15137.469      15.2149      13.1765      28.7324    5760.2466 
  167000      166.985    263.06037    10.983041   -704.43524    -693.4522    24362.696    44823.431    45833.774   -17569.116      15.2149      13.1765      28.7324    5760.2466 
  167500      167.485    271.62016    11.340421   -704.77638   -693.43596    27005.911    45099.988    48133.235   -12215.491      15.2149      13.1765      28.7324    5760.2466 
  168000      167.985    273.87002    11.434354   -704.85374   -693.41939    24917.795    44841.705    45711.424   -15799.745      15.2149      13.1765      28.7324    5760.2466 
  168500      168.485    264.69698    11.051371   -704.45381   -693.40244    26293.879    42915.897    45935.374   -9969.6352      15.2149      13.1765      28.7324    5760.2466 
  169000      168.985    266.44841    11.124495   -704.51023   -693.38574     25089.36     42839.21    48982.343   -16553.473      15.2149      13.1765      28.7324    5760.2466 
  169500      169.485    268.20636    11.197891   -704.56737   -693.36948    25149.663    43239.959    48420.929   -16211.899      15.2149      13.1765      28.7324    5760.2466 
  170000      169.985    281.15091    11.738339   -705.09137   -693.35303    22383.799    41821.913     46114.71   -20785.227      15.2149      13.1765      28.7324    5760.2466 
  170500      170.485    253.65921    10.590533   -703.92673    -693.3362    24789.661    44402.524    46927.392   -16960.933      15.2149      13.1765      28.7324    5760.2466 
  171000      170.985    267.06918    11.150412   -704.46998   -693.31957    24907.948      44121.1    45721.316   -15118.571      15.2149      13.1765      28.7324    5760.2466 
  171500      171.485    265.28901    11.076089   -704.37901   -693.30293    23355.105    44858.156    46255.688   -21048.531      15.2149      13.1765      28.7324    5760.2466 
  172000      171.985    273.59245    11.422766   -704.70905   -693.28628    24307.974    46461.042    45651.265   -19188.385      15.2149      13.1765      28.7324    5760.2466 
  172500      172.485    255.14283    10.652475   -703.92186   -693.26938    24250.364     42841.56    47473.125   -17563.593      15.2149      13.1765      28.7324    5760.2466 
  173000      172.985    286.68018    11.969192   -705.22291   -693.25372    24831.096    44884.954    44999.644   -15391.309      15.2149      13.1765      28.7324    5760.2466 
  173500      173.485    272.11797    11.361205    -704.5983    -693.2371     25834.95    45554.623    48878.758   -16928.531      15.2149      13.1765      28.7324    5760.2466 
  174000      173.985    266.71456    11.135607   -704.35556   -693.21995    26968.068    46732.578    46150.483   -11978.856      15.2149      13.1765      28.7324    5760.2466 
  174500      174.485    283.09194    11.819379   -705.02224   -693.20287     26774.64      46662.4    48163.226   -14501.705      15.2149      13.1765      28.7324    5760.2466 
  175000      174.985    284.52559    11.879236   -705.06565   -693.18641    26027.227    43271.928    49132.788   -14323.036      15.2149      13.1765      28.7324    5760.2466 
  175500      175.485    275.41014    11.498656   -704.66818   -693.16952    24273.141    46848.653    43574.947   -17604.176      15.2149      13.1765      28.7324    5760.2466 
  176000      175.985    261.64336    10.923879   -704.07619   -693.15232    26270.301    46723.707    46152.786   -14065.591      15.2149      13.1765      28.7324    5760.2466 
  176500      176.485    281.83498      11.7669   -704.90377   -693.13687    23938.916    44970.733    48541.919   -21695.905      15.2149      13.1765      28.7324    5760.2466 
  177000      176.985    268.38522    11.205358   -704.32386    -693.1185    24400.241    47260.238    47943.427   -22002.942      15.2149      13.1765      28.7324    5760.2466 
  177500      177.485    275.86374    11.517594   -704.62022   -693.10263    25865.617    43897.623    49748.191   -16048.963      15.2149      13.1765      28.7324    5760.2466 
  178000      177.985    289.97654    12.106818   -705.19325   -693.08644    24963.248    43909.285    46956.558   -15976.099      15.2149      13.1765      28.7324    5760.2466 
  178500      178.485    252.86749    10.557477   -703.62614   -693.06866     23920.71    43607.021    48693.028    -20537.92      15.2149      13.1765      28.7324    5760.2466 
  179000      178.985    258.81429    10.805762   -703.85753   -693.05177    25035.744    43182.321    48883.463    -16958.55      15.2149      13.1765      28.7324    5760.2466 
  179500      179.485    266.46312    11.125109   -704.16048   -693.03538    23408.473    43006.294    47453.907   -20234.782      15.2149      13.1765      28.7324    5760.2466 
  180000      179.985    265.02241    11.064958   -704.08367   -693.01871     21935.22    40219.051    45997.161   -20410.553      15.2149      13.1765      28.7324    5760.2466 
  180500      180.485    262.00632    10.939033   -703.94153    -693.0025    23917.205    43868.474    45644.161    -17761.02      15.2149      13.1765      28.7324    5760.2466 
  181000      180.985    273.56668     11.42169   -704.40703   -692.98534    23507.344    44281.624     45789.97   -19549.562      15.2149      13.1765      28.7324    5760.2466 
  181500      181.485    280.52525    11.712217   -704.68093   -692.96871    26849.426     44381.12     50264.45   -14097.291      15.2149      13.1765      28.7324    5760.2466 
  182000      181.985    272.61517    11.381963   -704.33316    -692.9512     26052.07    48105.636    46107.798   -16057.225      15.2149      13.1765      28.7324    5760.2466 
  182500      182.485    261.69563    10.926061   -703.86033   -692.93427    23377.478    37785.896    50094.931   -17748.394      15.2149      13.1765      28.7324    5760.2466 
  183000      182.985    275.93692     11.52065   -704.43934   -692.91869    25560.074     45927.07    48936.408   -18183.256      15.2149      13.1765      28.7324    5760.2466 
  183500      183.485    275.03831    11.483132   -704.38461   -692.90148    23076.771    43447.461    45634.221   -19851.368      15.2149      13.1765      28.7324    5760.2466 
  184000      183.985    273.56083    11.421446   -704.30577   -692.88432    29730.588    45719.005    51109.528     -7636.77      15.2149      13.1765      28.7324    5760.2466 
  184500      184.485    275.73623    11.512271   -704.37921   -692.86694    26278.287    44528.909    47325.721   -13019.768      15.2149      13.1765      28.7324    5760.2466 
  185000      184.985    265.28279    11.075829   -703.92511   -692.84928    24443.128    42941.865    44702.809    -14315.29      15.2149      13.1765      28.7324    5760.2466 
  185500      185.485    272.44712    11.374947     -704.208   -692.83306    24279.802    42654.015    50032.333   -19846.943      15.2149      13.1765      28.7324    5760.2466 
  186000      185.985    284.62999    11.883594   -704.70061   -692.81702     24911.57    41748.043    47694.785   -14708.119      15.2149      13.1765      28.7324    5760.2466 
  186500      186.485    292.49416    12.211931   -705.01248   -692.80054    26238.013    48072.273    47411.555   -16769.788      15.2149      13.1765      28.7324    5760.2466 
  187000      186.985     284.0099    11.857705   -704.64089   -692.78318    24244.125    44358.823    45237.415   -16863.862      15.2149      13.1765      28.7324    5760.2466 
  187500      187.485    273.80258    11.431539   -704.19611   -692.76457     24833.81    42844.466    46653.191   -14996.226      15.2149      13.1765      28.7324    5760.2466 
  188000      187.985    273.40575    11.414971   -704.16235   -692.74738    24772.216    48708.464    47343.064   -21734.881      15.2149      13.1765      28.7324    5760.2466 
  188500      188.485    294.28453    12.286681   -705.01884   -692.73216    24611.743    42435.185    49595.021   -18194.977      15.2149      13.1765      28.7324    5760.2466 
  189000      188.985     278.4131    11.624033   -704.33805   -692.71401     23870.88     46544.33    44262.493   -19194.184      15.2149      13.1765      28.7324    5760.2466 
  189500      189.485    261.73468    10.927692   -703.62412   -692.69643    23630.921    40520.571    49118.066   -18745.876      15.2149      13.1765      28.7324    5760.2466 
  190000      189.985    290.41951    12.125313   -704.80627   -692.68096    26528.765    45776.681    48300.206   -14490.591      15.2149      13.1765      28.7324    5760.2466 
  190500      190.485    266.27337    11.117187   -703.78029    -692.6631    23891.518    45143.811    46147.084   -19616.342      15.2149      13.1765      28.7324    5760.2466 
  191000      190.985    274.24196    11.449884   -704.09566   -692.64578    25685.441    44512.794    45987.321   -13443.792      15.2149      13.1765      28.7324    5760.2466 
  191500      191.485    278.93198    11.645696   -704.27481   -692.62912    25511.239    40739.856    48838.873   -13045.012      15.2149      13.1765      28.7324    5760.2466 
  192000      191.985    268.79026    11.222269   -703.83445   -692.61218    25848.939     46777.78    45698.607    -14929.57      15.2149      13.1765      28.7324    5760.2466 
  192500      192.485    277.70525    11.594479   -704.18959   -692.59511    24989.318    41756.145    48973.269    -15761.46      15.2149      13.1765      28.7324    5760.2466 
  193000      192.985    269.18851    11.238897   -703.81605   -692.57715    27179.952    44967.943    45874.386   -9302.4726      15.2149      13.1765      28.7324    5760.2466 
  193500      193.485    278.52111    11.628542   -704.18818   -692.55964    24646.393    42574.174    45667.108   -14302.104      15.2149      13.1765      28.7324    5760.2466 
  194000      193.985    290.83534    12.142674   -704.68661   -692.54393    26057.331    47399.677    48949.702   -18177.384      15.2149      13.1765      28.7324    5760.2466 
  194500      194.485    287.46694     12.00204   -704.52791   -692.52587     26642.75     45066.85    48377.485   -13516.085      15.2149      13.1765      28.7324    5760.2466 
  195000      194.985    274.61715    11.465548   -703.97403   -692.50848    24045.281    45623.702    46589.004   -20076.864      15.2149      13.1765      28.7324    5760.2466 
  195500      195.485    280.56191    11.713748   -704.20591   -692.49217    24691.542    44793.725    46953.199   -17672.299      15.2149      13.1765      28.7324    5760.2466 
  196000      195.985    285.39472    11.915523   -704.39056   -692.47504    25156.381    42210.913    48879.805   -15621.576      15.2149      13.1765      28.7324    5760.2466 
  196500      196.485    287.19243    11.990579   -704.44855   -692.45797    24608.125    47438.306    46529.362   -20143.294      15.2149      13.1765      28.7324    5760.2466 
  197000      196.985    287.37068    11.998021   -704.43831   -692.44029    24396.017    45602.846    46801.758   -19216.553      15.2149      13.1765      28.7324    5760.2466 
  197500      197.485    293.59153    12.257748   -704.68043   -692.42268    27138.821    46435.584    47816.151    -12835.27      15.2149      13.1765      28.7324    5760.2466 
  198000      197.985    291.48623     12.16985   -704.57465    -692.4048    24710.353    46173.475    49278.718   -21321.133      15.2149      13.1765      28.7324    5760.2466 
  198500      198.485    277.56333    11.588554   -703.97539   -692.38683    26216.031    43435.394     46429.81    -11217.11      15.2149      13.1765      28.7324    5760.2466 
  199000      198.985    297.88022    12.436805   -704.80679   -692.36999    27023.817    47584.889    46477.592   -12991.029      15.2149      13.1765      28.7324    5760.2466 
  199500      199.485    274.35413    11.454567   -703.80636   -692.35179     22977.06    42639.795    44109.557   -17818.171      15.2149      13.1765      28.7324    5760.2466 
  200000      199.985    286.21886    11.949931   -704.28551   -692.33558    23874.742      43818.1    45723.362   -17917.235      15.2149      13.1765      28.7324    5760.2466 
  200500      200.485    281.44736    11.750716   -704.06872     -692.318    26365.885    46960.998    47447.122   -15310.466      15.2149      13.1765      28.7324    5760.2466 
  201000      200.985    296.04907    12.360353   -704.66107   -692.30072    23074.422    44625.108    44195.186   -19597.029      15.2149      13.1765      28.7324    5760.2466 
  201500      201.485    267.51063    11.168844   -703.45177   -692.28293    26448.788    45717.291    48343.416   -14714.345      15.2149      13.1765      28.7324    5760.2466 
  202000      201.985    292.08271    12.194753   -704.46081   -692.26606    24789.129    44392.924     48239.18   -18264.718      15.2149      13.1765      28.7324    5760.2466 
  202500      202.485    274.44383    11.458312   -703.70682   -692.24851    25538.772    44721.523    47369.991   -15475.199      15.2149      13.1765      28.7324    5760.2466 
  203000      202.985    277.02986    11.566281   -703.79753   -692.23125    23516.523    44744.709     44312.79   -18507.931      15.2149      13.1765      28.7324    5760.2466 
  203500      203.485    296.57512    12.382316    -704.5968   -692.21449    25003.443    45899.174    46569.816   -17458.662      15.2149      13.1765      28.7324    5760.2466 
  204000      203.985    282.99111    11.815169   -704.01149   -692.19632    25755.176    45116.331    48759.617    -16610.42      15.2149      13.1765      28.7324    5760.2466 
  204500      204.485    282.86681     11.80998   -703.98843   -692.17845    25400.245    43634.753    48779.296   -16213.314      15.2149      13.1765      28.7324    5760.2466 
  205000      204.985    302.65833    12.636296   -704.79867   -692.16237     25682.93    43542.603    49292.953   -15786.767      15.2149      13.1765      28.7324    5760.2466 
  205500      205.485    286.14778    11.946964   -704.09143   -692.14446    25906.834    49075.476    48054.856   -19409.828      15.2149      13.1765      28.7324    5760.2466 
  206000      205.985     281.3096    11.744965   -703.87121   -692.12624    29231.326    45407.596    48938.294   -6651.9114      15.2149      13.1765      28.7324    5760.2466 
  206500      206.485     285.8896    11.936184   -704.04539    -692.1092    24776.982    45104.932     45472.01   -16245.997      15.2149      13.1765      28.7324    5760.2466 
  207000      206.985    275.11754     11.48644   -703.57751   -692.09107    26143.249    45769.674    45728.089   -13068.015      15.2149      13.1765      28.7324    5760.2466 
  207500      207.485    299.80781    12.517284   -704.59047   -692.07319    24289.369    43782.579    49540.126   -20454.598      15.2149      13.1765      28.7324    5760.2466 
  208000      207.985    285.56505    11.922634   -703.97811   -692.05547    26030.454    47299.369    47121.594   -16329.601      15.2149      13.1765      28.7324    5760.2466 
  208500      208.485    288.56819    12.048018   -704.08566   -692.03764    24060.511    43028.221    46800.802   -17647.491      15.2149      13.1765      28.7324    5760.2466 
  209000      208.985    292.39966    12.207986   -704.22846   -692.02048    26062.407    44282.814    46782.208     -12877.8      15.2149      13.1765      28.7324    5760.2466 
  209500      209.485    285.60559    11.924327    -703.9277   -692.00337    27716.972    43969.906    48217.961   -9036.9511      15.2149      13.1765      28.7324    5760.2466 
  210000      209.985    283.53067    11.837697   -703.82222   -691.98452    25064.918    43737.784    46033.612   -14576.642      15.2149      13.1765      28.7324    5760.2466 
  210500      210.485     284.6989    11.886472   -703.85411   -691.96764     24700.42    44609.833    47369.713   -17878.287      15.2149      13.1765      28.7324    5760.2466 
  211000      210.985    281.35659    11.746926   -703.69636   -691.94943    26676.078    46800.256    50450.805   -17222.825      15.2149      13.1765      28.7324    5760.2466 
  211500      211.485    296.60825    12.383699   -704.31631   -691.93262     25797.86    43242.828    47808.709   -13657.958      15.2149      13.1765      28.7324    5760.2466 
  212000      211.985     301.1521     12.57341   -704.48863   -691.91522    24233.784    45397.336    44583.224    -17279.21      15.2149      13.1765      28.7324    5760.2466 
[...]
  948500      948.485    364.53561    15.219736   -699.59592   -684.37618    22588.442    46006.219    42836.655   -21077.549      15.2149      13.1765      28.7324    5760.2466 
  949000      948.985    372.10872    15.535921   -699.90899   -684.37307     22800.46    41167.806    47886.604    -20653.03      15.2149      13.1765      28.7324    5760.2466 
  949500      949.485    370.83825    15.482878   -699.85395   -684.37107    22399.157    45768.843    44810.803   -23382.174      15.2149      13.1765      28.7324    5760.2466 
  950000      949.985    354.93447    14.818878   -699.18576   -684.36688    22295.099    44897.171    42547.767    -20559.64      15.2149      13.1765      28.7324    5760.2466 
  950500      950.485    377.82837    15.774722    -700.1397   -684.36498    23505.386    43650.535    48281.478   -21415.854      15.2149      13.1765      28.7324    5760.2466 
  951000      950.985    357.45894    14.924278   -699.28525   -684.36097    23535.162    43862.976    46964.892   -20222.381      15.2149      13.1765      28.7324    5760.2466 
  951500      951.485    367.94629    15.362136   -699.71975   -684.35761    22749.485    44494.397     49232.03   -25477.972      15.2149      13.1765      28.7324    5760.2466 
  952000      951.985     359.0745    14.991729    -699.3459   -684.35417    22948.898    43253.512      44360.4   -18767.219      15.2149      13.1765      28.7324    5760.2466 
  952500      952.485    391.87062    16.361001   -700.71349   -684.35249    23049.296    44069.899    44760.588   -19682.598      15.2149      13.1765      28.7324    5760.2466 
  953000      952.985    398.87241    16.653333   -701.00299   -684.34966    23731.143    45689.068    47601.747   -22097.386      15.2149      13.1765      28.7324    5760.2466 
  953500      953.485    367.17104    15.329768   -699.67589   -684.34612    23491.981    47467.796    44750.001   -21741.853      15.2149      13.1765      28.7324    5760.2466 
  954000      953.985    390.16918    16.289964   -700.63297     -684.343    22749.909    45656.696    40367.521   -17774.489      15.2149      13.1765      28.7324    5760.2466 
  954500      954.485    363.24408    15.165813   -699.50472   -684.33891    22775.583     44463.12    45520.944   -21657.314      15.2149      13.1765      28.7324    5760.2466 
  955000      954.985    381.68104    15.935575   -700.27068    -684.3351    24579.006    46925.141     47236.09   -20424.212      15.2149      13.1765      28.7324    5760.2466 
  955500      955.485    386.18496    16.123619   -700.45554   -684.33192    23744.468     43805.73    47312.681   -19885.005      15.2149      13.1765      28.7324    5760.2466 
  956000      955.985    369.17042    15.413244   -699.74071   -684.32747    21526.155    42539.445    47425.329    -25386.31      15.2149      13.1765      28.7324    5760.2466 
  956500      956.485    362.39116    15.130203   -699.45455   -684.32435    22514.955    42032.691    51740.569   -26228.396      15.2149      13.1765      28.7324    5760.2466 
  957000      956.985    389.16014    16.247835    -700.5682   -684.32036     24539.58    46024.133    48962.245   -21367.639      15.2149      13.1765      28.7324    5760.2466 
  957500      957.485    344.63269    14.388769   -698.70383   -684.31506    21834.414    44196.159    45104.566   -23797.484      15.2149      13.1765      28.7324    5760.2466 
  958000      957.985    381.07579    15.910305   -700.22335   -684.31304    22103.553    41892.668    43954.712   -19536.721      15.2149      13.1765      28.7324    5760.2466 
  958500      958.485    374.12564     15.62013   -699.92899   -684.30886    27667.679    48565.263    45704.426   -11266.651      15.2149      13.1765      28.7324    5760.2466 
  959000      958.985    399.18955    16.666574   -700.97273   -684.30616    21906.882    43581.358    47278.183   -25138.895      15.2149      13.1765      28.7324    5760.2466 
  959500      959.485    378.04318    15.783691   -700.08447   -684.30078    22542.333    44182.101    43011.899   -19567.002      15.2149      13.1765      28.7324    5760.2466 
  960000      959.985    348.83453      14.5642   -698.86069   -684.29649    22998.838    43454.232    46549.414   -21007.132      15.2149      13.1765      28.7324    5760.2466 
  960500      960.485    391.45312     16.34357   -700.63821   -684.29464    22873.715    43535.822    48093.972   -23008.648      15.2149      13.1765      28.7324    5760.2466 
  961000      960.985    377.67916    15.768493   -700.05728   -684.28879    23963.461    42694.887    49801.118   -20605.622      15.2149      13.1765      28.7324    5760.2466 
  961500      961.485    384.61419    16.058037   -700.34354    -684.2855    20369.558    40621.705    46195.201   -25708.231      15.2149      13.1765      28.7324    5760.2466 
  962000      961.985    373.63267    15.599548   -699.88015    -684.2806    23730.769    47198.639    45401.502   -21407.832      15.2149      13.1765      28.7324    5760.2466 
  962500      962.485    356.38956     14.87963   -699.15678   -684.27715     24116.15    46035.729    45454.505   -19141.784      15.2149      13.1765      28.7324    5760.2466 
  963000      962.985    349.47395    14.590896   -698.86372   -684.27283    22396.234    43625.243    47786.749   -24223.289      15.2149      13.1765      28.7324    5760.2466 
  963500      963.485     358.0846      14.9504   -699.21847   -684.26807    23169.063    49325.998    42643.842    -22462.65      15.2149      13.1765      28.7324    5760.2466 
  964000      963.985     370.2826    15.459679     -699.725   -684.26532    21837.891    42965.171    48265.598   -25717.097      15.2149      13.1765      28.7324    5760.2466 
  964500      964.485    378.72533    15.812171   -700.07275   -684.26058    21024.771    43846.266    46185.347   -26957.301      15.2149      13.1765      28.7324    5760.2466 
  965000      964.985    385.62682    16.100316   -700.35734   -684.25703    20393.305    42369.238     46983.85   -28173.173      15.2149      13.1765      28.7324    5760.2466 
  965500      965.485    362.04344    15.115685   -699.36608   -684.25039    23862.487    46183.607    47174.466   -21770.614      15.2149      13.1765      28.7324    5760.2466 
  966000      965.985    389.69669    16.270237   -700.51891   -684.24868    23034.179     40233.06    45838.138   -16968.662      15.2149      13.1765      28.7324    5760.2466 
  966500      966.485    381.38603    15.923258   -700.16772   -684.24446    23733.263    45634.937    44220.482   -18655.631      15.2149      13.1765      28.7324    5760.2466 
  967000      966.985    389.59857     16.26614   -700.50468   -684.23854    23640.036    45623.812    46596.291   -21299.997      15.2149      13.1765      28.7324    5760.2466 
  967500      967.485    391.33194     16.33851   -700.57316   -684.23465     22242.05     44041.52    45641.108   -22956.479      15.2149      13.1765      28.7324    5760.2466 
  968000      967.985    396.99781    16.575066   -700.80636    -684.2313     24447.97    45712.148    48118.964   -20487.203      15.2149      13.1765      28.7324    5760.2466 
  968500      968.485    396.23729    16.543314   -700.76903   -684.22572    23036.445    48491.552    46292.165   -25674.382      15.2149      13.1765      28.7324    5760.2466 
  969000      968.985    374.51306    15.636305   -699.85681   -684.22051    24050.198    50860.271    46918.452    -25628.13      15.2149      13.1765      28.7324    5760.2466 
  969500      969.485     381.8063    15.940805   -700.15671    -684.2159    23661.601    45561.455    47150.617   -21727.269      15.2149      13.1765      28.7324    5760.2466 
  970000      969.985    369.61148    15.431659   -699.64186    -684.2102    23516.762    44759.415     51853.71   -26062.838      15.2149      13.1765      28.7324    5760.2466 
  970500      970.485    364.99557     15.23894   -699.44388   -684.20494    26011.236      46428.7    47206.528   -15601.519      15.2149      13.1765      28.7324    5760.2466 
  971000      970.985    372.05051    15.533491   -699.73433   -684.20083    23305.992    47206.223     49006.41   -26294.657      15.2149      13.1765      28.7324    5760.2466 
  971500      971.485    363.28696    15.167604   -699.36224   -684.19463    23268.773     46390.16    47125.616   -23709.457      15.2149      13.1765      28.7324    5760.2466 
  972000      971.985    382.03979    15.950553   -700.14155   -684.19099    23553.068    43361.638    46456.915    -19159.35      15.2149      13.1765      28.7324    5760.2466 
  972500      972.485    380.11179    15.870058   -700.05716   -684.18711    23385.219    43273.179    48632.444   -21749.965      15.2149      13.1765      28.7324    5760.2466 
  973000      972.985    360.26783    15.041552    -699.2221   -684.18055    23359.986     43340.01    50030.434   -23290.487      15.2149      13.1765      28.7324    5760.2466 
  973500      973.485    386.85713    16.151683   -700.32962   -684.17794    22229.218    42993.658    44232.149   -20538.153      15.2149      13.1765      28.7324    5760.2466 
  974000      973.985    364.71945    15.227412   -699.39855   -684.17114    22720.857      45054.1    48789.581   -25681.109      15.2149      13.1765      28.7324    5760.2466 
  974500      974.485    383.17934    15.998131    -700.1649   -684.16677     26099.53    43736.701    47958.856   -13396.966      15.2149      13.1765      28.7324    5760.2466 
  975000      974.985    370.79543     15.48109   -699.64322   -684.16213    24493.602    44754.519    46944.824   -18218.537      15.2149      13.1765      28.7324    5760.2466 
  975500      975.485    388.51309     16.22082   -700.37721   -684.15639    24426.722    41785.753    45893.968   -14399.557      15.2149      13.1765      28.7324    5760.2466 
  976000      975.985    378.86978    15.818203   -699.96904   -684.15083    22305.341    46676.704    45015.634   -24776.314      15.2149      13.1765      28.7324    5760.2466 
  976500      976.485    380.32639    15.879017   -700.02444   -684.14542    24306.459    45119.515    47144.858   -19344.996      15.2149      13.1765      28.7324    5760.2466 
  977000      976.985     390.6952    16.311926   -700.45312   -684.14119    23714.276    45982.265    43308.214    -18147.65      15.2149      13.1765      28.7324    5760.2466 
  977500      977.485    368.16635    15.371323   -699.50626   -684.13494    23405.749    42392.119    45152.964   -17327.837      15.2149      13.1765      28.7324    5760.2466 
  978000      977.985    373.26195     15.58407   -699.71437    -684.1303    19946.146    38669.464    45056.273   -23887.298      15.2149      13.1765      28.7324    5760.2466 
  978500      978.485    385.64001    16.100866   -700.22671   -684.12584    22344.031    44454.934    44992.502   -22415.343      15.2149      13.1765      28.7324    5760.2466 
  979000      978.985    372.49069    15.551869   -699.67099   -684.11912    20869.151    41631.993     45338.21   -24362.751      15.2149      13.1765      28.7324    5760.2466 
  979500      979.485     387.0755      16.1608   -700.27528   -684.11449    21789.689    41530.472    47086.951   -23248.355      15.2149      13.1765      28.7324    5760.2466 
  980000      979.985    383.72893    16.021077   -700.13095   -684.10988    24620.195    47322.061    45355.452   -18816.926      15.2149      13.1765      28.7324    5760.2466 
  980500      980.485    368.89965    15.401939   -699.50593   -684.10399      20630.6    44634.045    44429.585    -27171.83      15.2149      13.1765      28.7324    5760.2466 
  981000      980.985    378.59465    15.806715   -699.90562    -684.0989    22626.753    49147.634    43192.246   -24459.622      15.2149      13.1765      28.7324    5760.2466 
  981500      981.485    380.95353    15.905201   -699.99787   -684.09267    21959.204    44209.904     46767.46    -25099.75      15.2149      13.1765      28.7324    5760.2466 
  982000      981.985    370.86368    15.483939   -699.57035   -684.08641    23539.939    45044.169    51813.073   -26237.426      15.2149      13.1765      28.7324    5760.2466 
  982500      982.485    393.46909    16.427738   -700.51056   -684.08282    24458.469    47880.344    47796.736   -22301.673      15.2149      13.1765      28.7324    5760.2466 
  983000      982.985    375.11123    15.661279   -699.73698   -684.07571    23666.391    44892.631    51309.015   -25202.473      15.2149      13.1765      28.7324    5760.2466 
  983500      983.485    367.84097    15.357738   -699.42782   -684.07009    22403.424    45654.868    46093.398   -24537.993      15.2149      13.1765      28.7324    5760.2466 
  984000      983.985    363.06915     15.15851   -699.22229   -684.06378    22876.422    43087.145    48313.122       -22771      15.2149      13.1765      28.7324    5760.2466 
  984500      984.485    347.21822    14.496717   -698.55426   -684.05754    24532.792    47119.919    44856.408   -18377.951      15.2149      13.1765      28.7324    5760.2466 
  985000      984.985    377.40711    15.757134   -699.81058   -684.05345    24770.699    43982.276    47455.111    -17125.29      15.2149      13.1765      28.7324    5760.2466 
  985500      985.485    374.82718     15.64942    -699.6965   -684.04708    23354.698    44016.139    48218.544    -22170.59      15.2149      13.1765      28.7324    5760.2466 
  986000      985.985    375.98186    15.697629   -699.73906   -684.04144    23607.823    47903.067    43665.857   -20745.454      15.2149      13.1765      28.7324    5760.2466 
  986500      986.485    376.23841     15.70834   -699.74309   -684.03475    21396.183    47335.007    42824.192   -25970.651      15.2149      13.1765      28.7324    5760.2466 
  987000      986.985    379.56537    15.847244   -699.87675   -684.02951     24861.77    45328.718    46426.099   -17169.507      15.2149      13.1765      28.7324    5760.2466 
  987500      987.485    370.20687    15.456517    -699.4786   -684.02209    24787.122    41919.351    47205.761   -14763.745      15.2149      13.1765      28.7324    5760.2466 
  988000      987.985    387.59708    16.182576   -700.19994   -684.01736    24744.444    44983.412    49867.934   -20618.014      15.2149      13.1765      28.7324    5760.2466 
  988500      988.485    368.54496    15.387131   -699.39725   -684.01012    21341.984    43778.153    44417.493   -24169.693      15.2149      13.1765      28.7324    5760.2466 
  989000      988.985     371.9102    15.527633   -699.53214    -684.0045    23302.617    45499.731    48839.565   -24431.444      15.2149      13.1765      28.7324    5760.2466 
  989500      989.485    368.63324    15.390816   -699.38865   -683.99784    23402.236    41486.005    47519.376   -18798.674      15.2149      13.1765      28.7324    5760.2466 
  990000      989.985    384.30157    16.044985   -700.03768   -683.99269    22953.741    45896.659    44533.995   -21569.432      15.2149      13.1765      28.7324    5760.2466 
  990500      990.485    390.79797    16.316217     -700.303   -683.98678    24616.605    44117.427    47945.582   -18213.194      15.2149      13.1765      28.7324    5760.2466 
  991000      990.985    374.45509    15.633884   -699.61325   -683.97936    23111.979    47947.997    42519.496   -21131.557      15.2149      13.1765      28.7324    5760.2466 
  991500      991.485    364.36439    15.212587   -699.18604   -683.97345    23729.797    46212.259    46406.532   -21429.399      15.2149      13.1765      28.7324    5760.2466 
  992000      991.985    375.56477    15.680215   -699.64766   -683.96744    22780.951     46113.54    45997.591   -23768.277      15.2149      13.1765      28.7324    5760.2466 
  992500      992.485    384.65095    16.059572   -700.02033   -683.96076    22812.027    44956.364    45703.613   -22223.896      15.2149      13.1765      28.7324    5760.2466 
  993000      992.985    356.05629    14.865716   -698.81939   -683.95368    23114.137    47160.116    45698.127   -23515.833      15.2149      13.1765      28.7324    5760.2466 
  993500      993.485    386.84662    16.151244   -700.10008   -683.94883    21898.638    47461.514    44519.545   -26285.146      15.2149      13.1765      28.7324    5760.2466 
  994000      993.985    385.54592    16.096938   -700.03931   -683.94238    22385.053    42823.759    46103.951    -21772.55      15.2149      13.1765      28.7324    5760.2466 
  994500      994.485    376.15721     15.70495   -699.64063   -683.93568    23708.271    50267.253    41632.506   -20774.945      15.2149      13.1765      28.7324    5760.2466 
  995000      994.985    387.76571    16.189617   -700.11906   -683.92944    24514.895    45068.722    48522.429   -20046.465      15.2149      13.1765      28.7324    5760.2466 
  995500      995.485    374.78329    15.647587   -699.57055   -683.92297    23563.902    45469.641    50839.301   -25617.235      15.2149      13.1765      28.7324    5760.2466 
  996000      995.985    377.89242    15.777397    -699.6943   -683.91691    22978.286    43307.748    43883.633   -18256.523      15.2149      13.1765      28.7324    5760.2466 
  996500      996.485    378.86261    15.817903   -699.72881   -683.91091    22697.691    44246.768     42790.77   -18944.467      15.2149      13.1765      28.7324    5760.2466 
  997000      996.985    369.57067    15.429955   -699.33175   -683.90179    22247.247    46847.142    43076.879   -23182.279      15.2149      13.1765      28.7324    5760.2466 
  997500      997.485    378.27494    15.793367   -699.68921   -683.89585    25731.956     45080.92    49552.327    -17437.38      15.2149      13.1765      28.7324    5760.2466 
  998000      997.985    391.46346    16.344002    -700.2343    -683.8903    22732.573    42585.935     45010.08   -19398.296      15.2149      13.1765      28.7324    5760.2466 
  998500      998.485    396.82407    16.567812   -700.45204   -683.88423    21373.059    41961.591    44007.311   -21849.725      15.2149      13.1765      28.7324    5760.2466 
  999000      998.985    378.01492    15.782511   -699.65914   -683.87663    25961.471    43812.794    46532.859   -12461.239      15.2149      13.1765      28.7324    5760.2466 
  999500      999.485    368.17242    15.371576   -699.24109   -683.86952    22761.351    44483.916    46217.061   -22416.923      15.2149      13.1765      28.7324    5760.2466 
 1000000      999.985      374.646    15.641855   -699.50461   -683.86276    23082.172    46421.417    46216.827   -23391.727      15.2149      13.1765      28.7324    5760.2466 
 1000015         1000    372.31333    15.544464   -699.40717   -683.86271     22872.22    47365.744    44108.822   -22857.906      15.2149      13.1765      28.7324    5760.2466 
Loop time of 994.761 on 28 procs for 1000000 steps with 324 atoms

Performance: 86.855 ns/day, 0.276 hours/ns, 1005.266 timesteps/s
89.5% CPU use with 28 MPI tasks x no OpenMP threads

MPI task timing breakdown:
Section |  min time  |  avg time  |  max time  |%varavg| %total
---------------------------------------------------------------
Pair    | 749.79     | 837.01     | 931.28     | 146.0 | 84.14
Neigh   | 0          | 0          | 0          |   0.0 |  0.00
Comm    | 53.445     | 141.92     | 230.62     | 354.5 | 14.27
Output  | 0.099822   | 0.10174    | 0.11877    |   1.1 |  0.01
Modify  | 4.49       | 10.61      | 36.209     | 320.1 |  1.07
Other   |            | 5.12       |            |       |  0.51

Nlocal:    11.5714 ave 15 max 5 min
Histogram: 1 2 3 1 1 0 1 5 4 10
Nghost:    649.214 ave 710 max 598 min
Histogram: 5 1 5 3 2 2 2 2 2 4
Neighs:    726.143 ave 1018 max 323 min
Histogram: 2 4 1 0 2 4 5 2 3 5
FullNghs:  1452.29 ave 1945 max 628 min
Histogram: 1 4 2 0 1 1 3 6 4 6

Total # of neighbors = 40664
Ave neighs/atom = 125.506
Neighbor list builds = 0
Dangerous builds = 0

write_restart   POSCAR_1x1x1.rest

#unfix    1
#undump   1
Total wall time: 0:16:34
