LAMMPS (7 Dec 2015)
#----------- Initialize Simulation ------------ restart01
#processors	2 2 2
units		metal
boundary	p p p     ## periodic boundary condition  on x y z axis ##
atom_style atomic
#atom_modify map array sort 0 0.0

read_data	POSCAR_1x1x1.lammps
  triclinic box = (0 0 0) to (15.2149 13.1765 28.7324) with tilt (-7.60743 0 0)
  2 by 2 by 7 MPI processor grid
  reading atoms ...
  324 atoms

#----------- Define Potential -----------------
pair_style meam
pair_coeff * * MgAlZn.library.meam Mg Al Zn MgAlZn.parameter.meam Mg Al Zn 	#1=Mg 2=Al 3=Zn	#atoms/mass

#----------- Neighbor List --------------------
neighbor 2.0 bin
neigh_modify delay 10 check yes

#--------------  Run a simulation (minimization) ---------------------------------------
minimize       1.0e-4   1.0e-6   100   1000          #結構優化的條件
WARNING: Resetting reneighboring criteria during minimization (../min.cpp:168)
Neighbor list info ...
  2 neighbor list requests
  update every 1 steps, delay 0 steps, check yes
  max neighbors/atom: 2000, page size: 100000
  master list distance cutoff = 8
  ghost atom cutoff = 8
  binsize = 4 -> bins = 6 4 8
Memory usage per processor = 8.65253 Mbytes
Step Temp E_pair E_mol TotEng Press 
       0            0   -640.35061            0   -640.35061    19129.525 
      15            0   -657.01837            0   -657.01837    19592.816 
Loop time of 0.0273997 on 28 procs for 15 steps with 324 atoms

88.1% CPU use with 28 MPI tasks x no OpenMP threads

Minimization stats:
  Stopping criterion = energy tolerance
  Energy initial, next-to-last, final = 
        -640.350614823     -656.955756501     -657.018368808
  Force two-norm initial, final = 24.9272 1.83725
  Force max component initial, final = 3.172 0.576579
  Final line search alpha, max atom move = 0.13044 0.0752088
  Iterations, force evaluations = 15 29

MPI task timing breakdown:
Section |  min time  |  avg time  |  max time  |%varavg| %total
---------------------------------------------------------------
Pair    | 0.021211   | 0.023142   | 0.024889   |   0.6 | 84.46
Neigh   | 0          | 0          | 0          |   0.0 |  0.00
Comm    | 0.0015041  | 0.0032537  | 0.0051592  |   1.7 | 11.87
Output  | 0          | 0          | 0          |   0.0 |  0.00
Modify  | 0          | 0          | 0          |   0.0 |  0.00
Other   |            | 0.001004   |            |       |  3.66

Nlocal:    11.5714 ave 16 max 6 min
Histogram: 2 1 2 1 5 1 4 2 6 4
Nghost:    646.857 ave 695 max 614 min
Histogram: 7 5 0 3 3 2 0 3 2 3
Neighs:    720.964 ave 1008 max 371 min
Histogram: 2 1 3 2 4 4 2 3 5 2
FullNghs:  1441.93 ave 1974 max 760 min
Histogram: 2 1 3 2 3 4 2 3 5 3

Total # of neighbors = 40374
Ave neighs/atom = 124.611
Neighbor list builds = 0
Dangerous builds = 0
velocity all  create 393.0 4928459 #rot yes dist gaussian

#--------------  Run a simulation (Relaxation)  ----------------------------------------
fix  1  all  nvt   temp  393.0  393.0  100				#damping constant
#fix  2  all  npt   temp  393.0  393.0  50 iso 0.0 0.0 1000.0
#fix  2  all deform 1 x final 0 15.6906 y final 0 13.5884 z final 0 25.2339 xy final -7.8452 units lattice
#fix  3  all  npt   temp  393.0  393.0  50 z 0.0 0.0 1000.0

#variable b equal 1
#fix 2 all efield  0.0  0.0  v_b
#compute pot all pe/atom


#----------- Output --------------------------
thermo	 500
timestep  0.001		#1.0 fs
thermo_style	custom step time temp ke pe etotal press pxx pyy pzz lx ly lz vol

dump 1 all custom 10000 dump.eq id type x y z
dump_modify 1 sort  id

run        1000000	#10000	 ps
Neighbor list info ...
  2 neighbor list requests
  update every 1 steps, delay 10 steps, check yes
  max neighbors/atom: 2000, page size: 100000
  master list distance cutoff = 8
  ghost atom cutoff = 8
  binsize = 4 -> bins = 6 4 8
Memory usage per processor = 7.54312 Mbytes
Step Time Temp KinEng PotEng TotEng Press Pxx Pyy Pzz Lx Ly Lz Volume 
      15            0          393    16.408154   -657.01837   -640.61022    22635.366    40747.882     43878.11   -16719.893      15.2149      13.1765      28.7324    5760.2466 
     500        0.485    219.33299    9.1573775   -649.76199   -640.60461    21643.951    42847.797    46447.212   -24363.155      15.2149      13.1765      28.7324    5760.2466 
    1000        0.985    213.13055    8.8984194   -649.50225   -640.60383    21051.141    44599.044    46787.655   -28233.277      15.2149      13.1765      28.7324    5760.2466 
    1500        1.485    208.37165    8.6997304   -649.30286   -640.60313    21242.499    43714.058    47673.963   -27660.525      15.2149      13.1765      28.7324    5760.2466 
    2000        1.985      210.874    8.8042061   -649.40702   -640.60281    21574.964    43007.014    48859.092   -27141.214      15.2149      13.1765      28.7324    5760.2466 
    2500        2.485    208.57342    8.7081547   -649.30991   -640.60176    22290.929    43315.434    48272.626   -24715.273      15.2149      13.1765      28.7324    5760.2466 
    3000        2.985    202.94274    8.4730677   -649.07357    -640.6005    22020.137    46127.503    47083.693   -27150.785      15.2149      13.1765      28.7324    5760.2466 
    3500        3.485    215.98114    9.0174345   -649.61648   -640.59905    20458.839    45253.947    45544.422   -29421.854      15.2149      13.1765      28.7324    5760.2466 
    4000        3.985    203.09298    8.4793403   -649.07683   -640.59749    23253.216    46135.924    48157.886    -24534.16      15.2149      13.1765      28.7324    5760.2466 
    4500        4.485    209.07811    8.7292259   -649.32499   -640.59577    20599.437    45164.618    47773.144   -31139.452      15.2149      13.1765      28.7324    5760.2466 
    5000        4.985    221.35749    9.2419027   -649.83637   -640.59446    20311.246    43787.719    48289.869    -31143.85      15.2149      13.1765      28.7324    5760.2466 
    5500        5.485    210.53258    8.7899514   -649.38202   -640.59207    22287.966    44322.582    49515.627   -26974.312      15.2149      13.1765      28.7324    5760.2466 
    6000        5.985      220.801    9.2186683   -649.80886   -640.59019    21344.869    46490.115    46394.928   -28850.435      15.2149      13.1765      28.7324    5760.2466 
    6500        6.485    210.87627    8.8043006   -649.39153   -640.58723    21650.025    44618.508    45875.584   -25544.016      15.2149      13.1765      28.7324    5760.2466 
    7000        6.985    206.67726    8.6289877   -649.21343   -640.58444    22149.559    42958.938    46728.224   -23238.485      15.2149      13.1765      28.7324    5760.2466 
    7500        7.485    224.13026    9.3576684   -649.93997    -640.5823    20700.211    41492.308    47573.984    -26965.66      15.2149      13.1765      28.7324    5760.2466 
    8000        7.985    193.07915    8.0612529   -648.63859   -640.57734    20761.782    45730.799     44568.38   -28013.833      15.2149      13.1765      28.7324    5760.2466 
    8500        8.485    207.79809    8.6757834   -649.25046   -640.57467    21748.664    46555.324    46294.444   -27603.776      15.2149      13.1765      28.7324    5760.2466 
    9000        8.985    216.24387    9.0284037   -649.60004   -640.57164    21503.117    40201.135    48895.874   -24587.658      15.2149      13.1765      28.7324    5760.2466 
    9500        9.485     199.6007     8.333534   -648.90056   -640.56702    20855.193    45600.274    42974.345   -26009.041      15.2149      13.1765      28.7324    5760.2466 
   10000        9.985    215.24798    8.9868241   -649.55091   -640.56408     22240.13    43559.982    46969.304   -23808.897      15.2149      13.1765      28.7324    5760.2466 
   10500       10.485    202.70844    8.4632856   -649.02302   -640.55973    19618.855    42209.032    46445.936   -29798.403      15.2149      13.1765      28.7324    5760.2466 
   11000       10.985    222.05342    9.2709585    -649.8266   -640.55564    20557.952    41303.738    46693.365   -26323.248      15.2149      13.1765      28.7324    5760.2466 
   11500       11.485    217.07041    9.0629126   -649.61323   -640.55032    20742.311    44203.377    46493.484   -28469.929      15.2149      13.1765      28.7324    5760.2466 
   12000       11.985    208.65087     8.711388   -649.25687   -640.54548    20163.052    43614.651    48173.575   -31299.071      15.2149      13.1765      28.7324    5760.2466 
   12500       12.485    207.86872    8.6787324   -649.21931   -640.54057    20192.788    41150.791    47589.159   -28161.585      15.2149      13.1765      28.7324    5760.2466 
   13000       12.985    214.40761     8.951738   -649.48698   -640.53524    20626.018    42962.564    49298.411   -30382.923      15.2149      13.1765      28.7324    5760.2466 
   13500       13.485    205.02815    8.5601358   -649.08955   -640.52941    21744.456    45297.488    47450.648    -27514.77      15.2149      13.1765      28.7324    5760.2466 
   14000       13.985     224.8286    9.3868251   -649.91116   -640.52434    20280.538    40991.316    49627.196   -29776.898      15.2149      13.1765      28.7324    5760.2466 
   14500       14.485    213.44199    8.9114221    -649.4294   -640.51798    21490.122    41057.697    52677.477   -29264.807      15.2149      13.1765      28.7324    5760.2466 
   15000       14.985     205.3132    8.5720371   -649.08387   -640.51183    20634.684    39239.458    49691.299   -27026.704      15.2149      13.1765      28.7324    5760.2466 
   15500       15.485    210.05013    8.7698085   -649.27587   -640.50606     19522.23     39965.15    48498.149    -29896.61      15.2149      13.1765      28.7324    5760.2466 
   16000       15.985     212.7326    8.8818044   -649.38162   -640.49982    22214.906    44066.594    49742.902   -27164.778      15.2149      13.1765      28.7324    5760.2466 
   16500       16.485    214.26975    8.9459821   -649.43863   -640.49264    22009.106    43360.835    48817.623    -26151.14      15.2149      13.1765      28.7324    5760.2466 
   17000       16.985    203.62276    8.5014592   -648.98724   -640.48578    21783.211    43201.306    47711.807   -25563.481      15.2149      13.1765      28.7324    5760.2466 
   17500       17.485    209.17848    8.7334162   -649.21208   -640.47866    20830.961    41896.666    47622.704   -27026.488      15.2149      13.1765      28.7324    5760.2466 
   18000       17.985    203.11975    8.4804581   -648.95202   -640.47156    22590.815    44215.344    46768.619   -23211.517      15.2149      13.1765      28.7324    5760.2466 
   18500       18.485    212.51163    8.8725786   -649.33648    -640.4639      20054.7    41643.173    47529.515   -29008.588      15.2149      13.1765      28.7324    5760.2466 
   19000       18.985    213.96058     8.933074   -649.38952   -640.45644    21340.281    41342.016     48340.23   -25661.403      15.2149      13.1765      28.7324    5760.2466 
   19500       19.485    205.34927    8.5735428    -649.0216   -640.44805    20533.311    47014.419    47490.894   -32905.381      15.2149      13.1765      28.7324    5760.2466 
   20000       19.985    215.13418    8.9820729   -649.42335   -640.44128    22291.594    47439.813    43841.532   -24406.562      15.2149      13.1765      28.7324    5760.2466 
   20500       20.485    213.11337    8.8977022   -649.33006   -640.43235    21910.829    44821.529    45576.898   -24665.941      15.2149      13.1765      28.7324    5760.2466 
   21000       20.985    214.23732    8.9446281   -649.36886   -640.42423    22015.817     41528.98    50291.479   -25773.007      15.2149      13.1765      28.7324    5760.2466 
   21500       21.485    209.95736    8.7659352   -649.18122   -640.41528    21389.309    43957.308    48056.833   -27846.214      15.2149      13.1765      28.7324    5760.2466 
   22000       21.985    203.28978    8.4875569   -648.89398   -640.40642    21285.695    39495.755    49740.433   -25379.103      15.2149      13.1765      28.7324    5760.2466 
   22500       22.485     214.1363    8.9404102   -649.33781    -640.3974    22532.979    42615.909    50202.264   -25219.236      15.2149      13.1765      28.7324    5760.2466 
   23000       22.985    206.22145    8.6099574   -648.99836    -640.3884    20513.863    44621.733    49167.183   -32247.327      15.2149      13.1765      28.7324    5760.2466 
   23500       23.485    222.11592    9.2735677   -649.65236   -640.37879    21750.731    42480.522    49643.537   -26871.865      15.2149      13.1765      28.7324    5760.2466 
   24000       23.985    212.64441    8.8781225   -649.24744   -640.36932    21023.779    46206.773    46777.677   -29913.112      15.2149      13.1765      28.7324    5760.2466 
   24500       24.485    222.64905    9.2958264   -649.65625   -640.36043     22339.23    44625.547    47577.508   -25185.363      15.2149      13.1765      28.7324    5760.2466 
   25000       24.985    221.77615    9.2593818   -649.60926   -640.34988    22300.843     47569.07    49180.575   -29847.116      15.2149      13.1765      28.7324    5760.2466 
   25500       25.485    217.02535     9.061031   -649.40097   -640.33994    22502.263    39678.932    51129.723   -23301.867      15.2149      13.1765      28.7324    5760.2466 
   26000       25.985    210.38782    8.7839076   -649.11301    -640.3291    20634.868    43721.268    49913.863   -31730.526      15.2149      13.1765      28.7324    5760.2466 
   26500       26.485    218.15475     9.108185   -649.42792   -640.31973    21190.701    42805.181    46549.097   -25782.174      15.2149      13.1765      28.7324    5760.2466 
   27000       26.985    207.70065    8.6717153   -648.97982   -640.30811    22550.686    42547.121    45419.639   -20314.702      15.2149      13.1765      28.7324    5760.2466 
   27500       27.485     206.2545    8.6113373   -648.90905   -640.29771    21306.678    42121.613    45512.475   -23714.054      15.2149      13.1765      28.7324    5760.2466 
   28000       27.985    219.37016    9.1589294   -649.44606   -640.28713    21435.969    40109.065    46962.724   -22763.882      15.2149      13.1765      28.7324    5760.2466 
   28500       28.485     223.5003    9.3313668   -649.60813   -640.27676    21486.417    42763.263    47551.041   -25855.052      15.2149      13.1765      28.7324    5760.2466 
   29000       28.985    216.51461    9.0397073   -649.30485   -640.26514    21036.239    42679.846    47192.898   -26764.027      15.2149      13.1765      28.7324    5760.2466 
   29500       29.485    217.84179    9.0951184   -649.34912     -640.254    20903.977     43065.17     50296.18   -30649.417      15.2149      13.1765      28.7324    5760.2466 
   30000       29.985    225.50563    9.4150915   -649.65801   -640.24291    21621.398    41034.841    49146.167   -25316.814      15.2149      13.1765      28.7324    5760.2466 
   30500       30.485    218.18776     9.109563   -649.34005   -640.23049    21019.856    42042.953    49090.006   -28073.391      15.2149      13.1765      28.7324    5760.2466 
   31000       30.985    214.33838    8.9488476   -649.16766   -640.21881     20877.48    43106.778    45222.135   -25696.471      15.2149      13.1765      28.7324    5760.2466 
   31500       31.485    210.79624    8.8009594   -649.00841   -640.20745    21631.211    43638.295    49753.846   -28498.508      15.2149      13.1765      28.7324    5760.2466 
   32000       31.985    214.40896    8.9517942   -649.14742   -640.19562    20408.597    42698.499    46229.271   -27701.979      15.2149      13.1765      28.7324    5760.2466 
   32500       32.485    214.05545    8.9370347   -649.12117   -640.18413    20703.491    40289.804    46971.196   -25150.526      15.2149      13.1765      28.7324    5760.2466 
   33000       32.985    213.30962    8.9058955   -649.07744   -640.17154    20418.115    42239.621    47630.981   -28616.257      15.2149      13.1765      28.7324    5760.2466 
   33500       33.485    225.19273    9.4020276   -649.56172   -640.15969    20927.239    42779.955    49984.118   -29982.357      15.2149      13.1765      28.7324    5760.2466 
   34000       33.985    218.43226    9.1197712   -649.26662   -640.14685    20829.335    41466.808    47496.263   -26475.066      15.2149      13.1765      28.7324    5760.2466 
   34500       34.485    210.64203    8.7945209   -648.92923   -640.13471    20332.992    40649.303    47974.976   -27625.302      15.2149      13.1765      28.7324    5760.2466 
   35000       34.985    215.03795    8.9780553   -649.10065   -640.12259    20820.284    39723.392    49036.032   -26298.573      15.2149      13.1765      28.7324    5760.2466 
   35500       35.485    218.17455    9.1090115   -649.21917   -640.11016    20420.671      43154.9    49385.648   -31278.533      15.2149      13.1765      28.7324    5760.2466 
   36000       35.985    227.82812    9.5120578   -649.61026    -640.0982    21543.326    42141.058    49505.818   -27016.898      15.2149      13.1765      28.7324    5760.2466 
   36500       36.485    219.08934    9.1472049   -649.23214   -640.08494    19707.255    39804.044      47690.3   -28372.578      15.2149      13.1765      28.7324    5760.2466 
   37000       36.985    219.99293    9.1849306   -649.25747   -640.07254    22028.442    44637.799     46589.78   -25142.254      15.2149      13.1765      28.7324    5760.2466 
   37500       37.485     216.7704    9.0503869   -649.10977   -640.05938     21765.74    42511.025    50171.627   -27385.432      15.2149      13.1765      28.7324    5760.2466 
   38000       37.985    216.55976    9.0415923    -649.0884   -640.04681    21925.953    41350.088    48497.015   -24069.246      15.2149      13.1765      28.7324    5760.2466 
   38500       38.485    222.36924     9.284144   -649.31836   -640.03422    21348.016    41592.319    46521.199    -24069.47      15.2149      13.1765      28.7324    5760.2466 
   39000       38.985    200.67267    8.3782899   -648.39866   -640.02037    21867.969    42823.205     47666.94   -24886.236      15.2149      13.1765      28.7324    5760.2466 
   39500       39.485    216.62031    9.0441204   -649.05244   -640.00832    22138.531    42651.083    45265.749   -21501.237      15.2149      13.1765      28.7324    5760.2466 
   40000       39.985    211.31712    8.8227066   -648.81826   -639.99555    20860.442    44829.693     44443.28   -26691.646      15.2149      13.1765      28.7324    5760.2466 
   40500       40.485    214.84893    8.9701633   -648.95297   -639.98281     23094.02    39756.153    50171.562   -20645.656      15.2149      13.1765      28.7324    5760.2466 
   41000       40.985    207.43815    8.6607556   -648.63045   -639.96969    21698.343     43681.76    47738.384   -26325.114      15.2149      13.1765      28.7324    5760.2466 
   41500       41.485    221.28256     9.238774   -649.19655   -639.95778    22370.207    41221.916    48683.301   -22794.596      15.2149      13.1765      28.7324    5760.2466 
   42000       41.985    218.80254    9.1352306    -649.0803   -639.94506    23472.465    41609.081     49154.63   -20346.317      15.2149      13.1765      28.7324    5760.2466 
   42500       42.485    215.08328     8.979948   -648.91173   -639.93179    20504.386    41811.189    47308.245   -27606.275      15.2149      13.1765      28.7324    5760.2466 
   43000       42.985    211.58087    8.8337185   -648.75282    -639.9191    21198.584    43416.287    46587.576    -26408.11      15.2149      13.1765      28.7324    5760.2466 
   43500       43.485    211.75038    8.8407959    -648.7472    -639.9064    21007.441    45181.456    48559.004   -30718.135      15.2149      13.1765      28.7324    5760.2466 
   44000       43.985    209.63267    8.7523791   -648.64603   -639.89365    20694.042    41337.683    46948.148   -26203.704      15.2149      13.1765      28.7324    5760.2466 
   44500       44.485    212.80213    8.8847075   -648.76544   -639.88073     20562.04    42564.881    49090.561   -29969.323      15.2149      13.1765      28.7324    5760.2466 
   45000       44.985    226.66187    9.4633657   -649.33272   -639.86935    22125.938    40760.827    54336.781   -28719.793      15.2149      13.1765      28.7324    5760.2466 
   45500       45.485    221.46884    9.2465513   -649.10228   -639.85573    21097.277    44665.652    49298.945   -30672.764      15.2149      13.1765      28.7324    5760.2466 
   46000       45.985    223.33806    9.3245933    -649.1675   -639.84291    22718.943    43682.005    53268.609   -28793.785      15.2149      13.1765      28.7324    5760.2466 
   46500       46.485    214.91707    8.9730084   -648.80351    -639.8305    20212.505    45568.364    49117.172   -34048.021      15.2149      13.1765      28.7324    5760.2466 
   47000       46.985    233.78301    9.7606809   -649.57955   -639.81887    21156.667     43662.04    48837.573   -29029.611      15.2149      13.1765      28.7324    5760.2466 
   47500       47.485    226.10456    9.4400974   -649.24615   -639.80605    20994.855    40365.744     46883.18    -24264.36      15.2149      13.1765      28.7324    5760.2466 
   48000       47.985    221.14041    9.2328392   -649.02622   -639.79338    20442.014    40928.233    46357.141   -25959.332      15.2149      13.1765      28.7324    5760.2466 
   48500       48.485    228.63488    9.5457409   -649.32675   -639.78101     21722.43    41204.358    50471.178   -26508.248      15.2149      13.1765      28.7324    5760.2466 
   49000       48.985    221.38106    9.2428864   -649.01189   -639.76901    19931.738    42773.667    47534.461   -30512.913      15.2149      13.1765      28.7324    5760.2466 
   49500       49.485    230.62094    9.6286612   -649.38559   -639.75693    21149.001    41012.641     47766.29   -25331.927      15.2149      13.1765      28.7324    5760.2466 
   50000       49.985    230.39519    9.6192359   -649.36394   -639.74471    21528.195    43630.699    48192.841   -27238.954      15.2149      13.1765      28.7324    5760.2466 
   50500       50.485    214.62131    8.9606601   -648.69234   -639.73168     23345.65    44455.157    50066.153    -24484.36      15.2149      13.1765      28.7324    5760.2466 
   51000       50.985      228.955    9.5591062   -649.27998   -639.72087    20154.361    44339.677    45480.516    -29357.11      15.2149      13.1765      28.7324    5760.2466 
   51500       51.485    210.95101    8.8074212   -648.51536   -639.70794    20897.304    45172.091    47323.202   -29803.382      15.2149      13.1765      28.7324    5760.2466 
   52000       51.985    214.62827    8.9609506   -648.65683   -639.69588    21006.658    43525.746    48634.133   -29139.905      15.2149      13.1765      28.7324    5760.2466 
   52500       52.485    219.90731    9.1813559    -648.8659   -639.68455    20603.521    41652.576    46673.282   -26515.294      15.2149      13.1765      28.7324    5760.2466 
   53000       52.985    228.25701    9.5299644   -649.20321   -639.67325    20872.197    41424.455    48359.592   -27167.456      15.2149      13.1765      28.7324    5760.2466 
   53500       53.485    221.29472    9.2392816   -648.89995   -639.66066    21998.327    45412.718    47591.838   -27009.576      15.2149      13.1765      28.7324    5760.2466 
   54000       53.985    227.66906    9.5054171   -649.15574   -639.65033    22624.224    46933.663    47904.636   -26965.627      15.2149      13.1765      28.7324    5760.2466 
   54500       54.485    215.74702    9.0076595   -648.64557   -639.63791    20272.138    39207.454    47879.927   -26270.968      15.2149      13.1765      28.7324    5760.2466 
   55000       54.985    226.21766    9.4448195   -649.07118   -639.62636    20806.358    43024.119    44782.975   -25388.021      15.2149      13.1765      28.7324    5760.2466 
   55500       55.485    233.69537    9.7570217   -649.37147   -639.61445    21697.996    43135.532    46690.633   -24732.177      15.2149      13.1765      28.7324    5760.2466 
   56000       55.985    230.65952    9.6302719   -649.23409   -639.60382    20854.155    42984.237    48193.748   -28615.521      15.2149      13.1765      28.7324    5760.2466 
   56500       56.485    208.06283    8.6868368   -648.27838   -639.59155     21565.36    44787.563    42560.073   -22651.557      15.2149      13.1765      28.7324    5760.2466 
   57000       56.985    229.95884    9.6010177   -649.18225   -639.58123    21769.021    43435.912    45933.113   -24061.962      15.2149      13.1765      28.7324    5760.2466 
   57500       57.485    218.40517    9.1186399   -648.68816   -639.56952    21524.159    44060.501    45332.148   -24820.173      15.2149      13.1765      28.7324    5760.2466 
   58000       57.985    221.09378    9.2308924   -648.78931   -639.55842    20763.103    44350.837    46254.439   -28315.965      15.2149      13.1765      28.7324    5760.2466 
   58500       58.485    217.72997    9.0904499    -648.6373   -639.54685    20589.105    44085.283    46974.249   -29292.219      15.2149      13.1765      28.7324    5760.2466 
   59000       58.985    216.64663    9.0452194   -648.58158   -639.53637    20845.576    44179.946    48830.748   -30473.966      15.2149      13.1765      28.7324    5760.2466 
   59500       59.485    222.70638      9.29822    -648.8236   -639.52538    23135.657    44078.695    48239.571   -22911.295      15.2149      13.1765      28.7324    5760.2466 
   60000       59.985    229.62606    9.5871238   -649.10241   -639.51529     20070.08    43584.398    46666.711   -30040.869      15.2149      13.1765      28.7324    5760.2466 
   60500       60.485    226.51618    9.4572833   -648.96103   -639.50375    22803.845    43374.832    51145.786   -26109.082      15.2149      13.1765      28.7324    5760.2466 
   61000       60.985    224.92407    9.3908109   -648.88332   -639.49251    22792.731    44691.377    50042.357    -26355.54      15.2149      13.1765      28.7324    5760.2466 
   61500       61.485    224.05711    9.3546145   -648.83678   -639.48217    19936.926    42001.171    47733.828    -29924.22      15.2149      13.1765      28.7324    5760.2466 
   62000       61.985    216.52545      9.04016   -648.51182   -639.47166    20127.349    44432.554    46084.999   -30135.505      15.2149      13.1765      28.7324    5760.2466 
   62500       62.485    214.72136    8.9648371    -648.4249   -639.46007    20716.328    48001.048    46699.375   -32551.441      15.2149      13.1765      28.7324    5760.2466 
   63000       62.985    224.98966    9.3935491   -648.84325   -639.44971    21367.537    45608.147    45932.677   -27438.214      15.2149      13.1765      28.7324    5760.2466 
   63500       63.485    217.56584    9.0835973   -648.52238   -639.43878    19951.587    42145.315    45238.139   -27528.692      15.2149      13.1765      28.7324    5760.2466 
   64000       63.985    229.46334    9.5803301    -649.0091   -639.42877    20856.199    43636.639    47127.423   -28195.466      15.2149      13.1765      28.7324    5760.2466 
   64500       64.485      239.972    10.019078   -649.43767    -639.4186    21626.878     43792.71     46467.96   -25380.035      15.2149      13.1765      28.7324    5760.2466 
   65000       64.985    220.87799     9.221883   -648.63017   -639.40829    22659.101     42713.56    54067.785   -28804.042      15.2149      13.1765      28.7324    5760.2466 
   65500       65.485    218.72445    9.1319704   -648.52811   -639.39614    21855.813    41102.781    46546.623   -22081.964      15.2149      13.1765      28.7324    5760.2466 
   66000       65.985    222.54231      9.29137   -648.67752   -639.38615    20163.884    42747.889    46403.519   -28659.755      15.2149      13.1765      28.7324    5760.2466 
   66500       66.485      221.668    9.2548666    -648.6303   -639.37543    21340.871    42022.897    49057.695    -27057.98      15.2149      13.1765      28.7324    5760.2466 
   67000       66.985    231.79757    9.6777866   -649.04333   -639.36555    20381.508     42218.17    45927.557   -27001.204      15.2149      13.1765      28.7324    5760.2466 
   67500       67.485    230.69409    9.6317153   -648.98664   -639.35492     22626.27    48056.375    47461.205   -27638.769      15.2149      13.1765      28.7324    5760.2466 
   68000       67.985     230.6243    9.6288012    -648.9731    -639.3443    21352.749    43707.253    49148.649   -28797.655      15.2149      13.1765      28.7324    5760.2466 
   68500       68.485    206.13325    8.6062749   -647.93918   -639.33291    20412.267    42021.007    49598.394     -30382.6      15.2149      13.1765      28.7324    5760.2466 
   69000       68.985     223.3082    9.3233466    -648.6466   -639.32325    21950.752    40416.594    48954.503   -23518.841      15.2149      13.1765      28.7324    5760.2466 
   69500       69.485    213.09755    8.8970417    -648.2087   -639.31166    21179.605    41222.217      52889.5   -30572.903      15.2149      13.1765      28.7324    5760.2466 
   70000       69.985    232.17869    9.6936987   -648.99566   -639.30196    21782.275     45623.24    50273.154   -30549.569      15.2149      13.1765      28.7324    5760.2466 
   70500       70.485    228.04487    9.5211076   -648.81183   -639.29073    21860.029    40043.271    49905.436   -24368.621      15.2149      13.1765      28.7324    5760.2466 
   71000       70.985    223.94516    9.3499403   -648.63021   -639.28027    20948.818    42518.031    48518.755   -28190.334      15.2149      13.1765      28.7324    5760.2466 
   71500       71.485    228.16344     9.526058   -648.79599   -639.26993    19506.526    40778.523      48256.3   -30515.246      15.2149      13.1765      28.7324    5760.2466 
   72000       71.985    240.25829     10.03103   -649.29083    -639.2598    22175.973     42277.93    50879.242   -26629.253      15.2149      13.1765      28.7324    5760.2466 
   72500       72.485     232.8409    9.7213467   -648.97045   -639.24911    21193.564    42728.969    47743.257   -26891.532      15.2149      13.1765      28.7324    5760.2466 
   73000       72.985    216.54579    9.0410092   -648.27838   -639.23737    23238.225    45570.027    49499.611   -25354.963      15.2149      13.1765      28.7324    5760.2466 
   73500       73.485    223.17733    9.3178825   -648.54543   -639.22755    22445.567    42962.645    51046.972   -26672.916      15.2149      13.1765      28.7324    5760.2466 
   74000       73.985    244.04204    10.189006   -649.40622   -639.21721    22086.993     44856.75    51571.598   -30167.369      15.2149      13.1765      28.7324    5760.2466 
   74500       74.485    234.67978    9.7981217   -649.00398   -639.20586    22533.887    41602.943    49915.232   -23916.513      15.2149      13.1765      28.7324    5760.2466 
   75000       74.985    230.70003     9.631963   -648.82638   -639.19442    21113.658    39270.652    49736.779   -25666.457      15.2149      13.1765      28.7324    5760.2466 
   75500       75.485    231.52289    9.6663186   -648.85074   -639.18442    21506.409      43950.2    51384.448   -30815.419      15.2149      13.1765      28.7324    5760.2466 
   76000       75.985    229.37168    9.5765033   -648.74933   -639.17283    21639.173    40040.751     49607.68    -24730.91      15.2149      13.1765      28.7324    5760.2466 
   76500       76.485    238.40245    9.9535471   -649.11687   -639.16332    21844.867    45475.062    48897.154   -28837.615      15.2149      13.1765      28.7324    5760.2466 
   77000       76.985    237.21577     9.904002   -649.05672   -639.15272    22482.405    42437.944     49202.05   -24192.778      15.2149      13.1765      28.7324    5760.2466 
   77500       77.485    224.24863    9.3626106   -648.50381    -639.1412    20963.266    40816.315    50948.146   -28874.663      15.2149      13.1765      28.7324    5760.2466 
   78000       77.985    240.30221    10.032864   -649.16291   -639.13004    23204.808    44712.504    48637.211   -23735.292      15.2149      13.1765      28.7324    5760.2466 
   78500       78.485    224.22855    9.3617721   -648.48031   -639.11854    22024.025    41924.686    47472.714   -23325.324      15.2149      13.1765      28.7324    5760.2466 
   79000       78.985    232.13943    9.6920596   -648.79968   -639.10762    21517.113     42364.23    48324.649   -26137.539      15.2149      13.1765      28.7324    5760.2466 
   79500       79.485    230.00966    9.6031397   -648.69957   -639.09643    22217.043    43081.133    50411.495   -26841.498      15.2149      13.1765      28.7324    5760.2466 
   80000       79.985    235.17471    9.8187856   -648.90454   -639.08576    21998.834    48321.581    49448.534   -31773.614      15.2149      13.1765      28.7324    5760.2466 
   80500       80.485     234.4708    9.7893965    -648.8644     -639.075    21359.359    40889.613     48017.72   -24829.255      15.2149      13.1765      28.7324    5760.2466 
   81000       80.985    235.34608    9.8259405   -648.88963   -639.06369    21500.296    43788.229    49730.408   -29017.751      15.2149      13.1765      28.7324    5760.2466 
   81500       81.485    229.03793    9.5625687    -648.6148   -639.05224    20966.026    37790.296    50840.217   -25732.434      15.2149      13.1765      28.7324    5760.2466 
   82000       81.985    230.76627    9.6347285   -648.67623    -639.0415    20966.056    43194.257    49187.188   -29483.278      15.2149      13.1765      28.7324    5760.2466 
   82500       82.485    222.41706    9.2861405   -648.31577   -639.02963    21350.343    39724.287     47971.45   -23644.707      15.2149      13.1765      28.7324    5760.2466 
   83000       82.985    232.94689    9.7257717   -648.74384   -639.01807    21350.788    43117.367    48555.845   -27620.847      15.2149      13.1765      28.7324    5760.2466 
   83500       83.485    234.79937    9.8031146   -648.81053   -639.00741    21253.436    39218.535    47749.477   -23207.704      15.2149      13.1765      28.7324    5760.2466 
   84000       83.985    236.95933    9.8932955   -648.88887   -638.99557     23934.43    43876.346    51319.115   -23392.172      15.2149      13.1765      28.7324    5760.2466 
   84500       84.485    229.69618    9.5900512   -648.57359   -638.98354    22250.581    44129.063    48792.297   -26169.618      15.2149      13.1765      28.7324    5760.2466 
   85000       84.985    227.55093    9.5004852   -648.47228   -638.97179      21684.8    42949.767    52310.654   -30206.023      15.2149      13.1765      28.7324    5760.2466 
   85500       85.485    249.89417    10.433338   -649.39436   -638.96102     22609.26    42283.246    51002.723   -25458.189      15.2149      13.1765      28.7324    5760.2466 
   86000       85.985    246.36481    10.285984     -649.235   -638.94902    23100.966    42418.792     53135.99   -26251.883      15.2149      13.1765      28.7324    5760.2466 
   86500       86.485    238.08434    9.9402658    -648.8781   -638.93783    20884.494    43994.795    47004.431   -28345.744      15.2149      13.1765      28.7324    5760.2466 
   87000       86.985    246.77385    10.303061    -649.2288   -638.92574    22087.017    39595.293    51836.555   -25170.797      15.2149      13.1765      28.7324    5760.2466 
   87500       87.485    229.28884    9.5730445   -648.48638   -638.91334    21392.864    39755.834    48106.705   -23683.949      15.2149      13.1765      28.7324    5760.2466 
   88000       87.985     227.3969    9.4940539   -648.39472   -638.90067    21792.818    44138.064    47153.267   -25912.877      15.2149      13.1765      28.7324    5760.2466 
   88500       88.485    226.12732    9.4410477   -648.32946   -638.88841    19742.401    42756.404    49525.938   -33055.137      15.2149      13.1765      28.7324    5760.2466 
   89000       88.985    235.15864    9.8181147   -648.69547   -638.87736    22337.631    44847.234    49002.947   -26837.289      15.2149      13.1765      28.7324    5760.2466 
   89500       89.485    231.35772    9.6594223    -648.5247   -638.86528    21065.664    45551.747    50639.699   -32994.452      15.2149      13.1765      28.7324    5760.2466 
   90000       89.985    239.99955    10.020227   -648.87347   -638.85324    20703.676    43526.254    47644.638   -29059.863      15.2149      13.1765      28.7324    5760.2466 
   90500       90.485    214.66459    8.9624672   -647.80244   -638.83998    21807.767    41740.233    53318.594   -29635.526      15.2149      13.1765      28.7324    5760.2466 
   91000       90.985    216.50452    9.0392862   -647.86683   -638.82754    21554.814    43676.708    49340.342    -28352.61      15.2149      13.1765      28.7324    5760.2466 
   91500       91.485    228.25982    9.5300817   -648.34581   -638.81573    21866.449    43274.188    46865.555   -24540.398      15.2149      13.1765      28.7324    5760.2466 
   92000       91.985    245.47456    10.248815   -649.05313   -638.80431     22012.89    45179.923    48065.976    -27207.23      15.2149      13.1765      28.7324    5760.2466 
   92500       92.485    241.06235    10.064601   -648.85671   -638.79211    21769.949    44333.486     49450.48   -28474.121      15.2149      13.1765      28.7324    5760.2466 
   93000       92.985    232.53162    9.7084339   -648.48688   -638.77845    20365.673    43482.082    49440.195   -31825.258      15.2149      13.1765      28.7324    5760.2466 
   93500       93.485    210.95662    8.8076556   -647.57273   -638.76507    22009.112    42173.069    46976.668   -23122.401      15.2149      13.1765      28.7324    5760.2466 
   94000       93.985    244.07841    10.190524   -648.94403   -638.75351    20780.963    41771.169     47754.84   -27183.119      15.2149      13.1765      28.7324    5760.2466 
   94500       94.485    229.67532    9.5891805   -648.33061   -638.74143    21608.246    42194.617    47345.587   -24715.465      15.2149      13.1765      28.7324    5760.2466 
   95000       94.985     236.1821    9.8608453   -648.58855   -638.72771    22072.214    43265.342    52577.711    -29626.41      15.2149      13.1765      28.7324    5760.2466 
   95500       95.485    232.70366    9.7156167   -648.43078   -638.71516    21994.855    43703.106    48516.419    -26234.96      15.2149      13.1765      28.7324    5760.2466 
   96000       95.985    222.85542    9.3044428   -648.00726   -638.70281    21947.714     41727.06    51209.905   -27093.823      15.2149      13.1765      28.7324    5760.2466 
   96500       96.485    227.07192    9.4804859   -648.16981   -638.68933    21570.994    42784.151    46305.623   -24376.792      15.2149      13.1765      28.7324    5760.2466 
   97000       96.985    221.44401    9.2455147   -647.92131    -638.6758    21595.569    43041.656    50395.487   -28650.436      15.2149      13.1765      28.7324    5760.2466 
   97500       97.485    239.71687    10.008426   -648.67289   -638.66446    21255.912    44949.668    47232.005   -28413.936      15.2149      13.1765      28.7324    5760.2466 
   98000       97.985    234.20428    9.7782691   -648.42952   -638.65125    23675.307    43165.064    52235.078   -24374.221      15.2149      13.1765      28.7324    5760.2466 
   98500       98.485    231.87372     9.680966   -648.31806    -638.6371    21248.198    44562.573     49027.06   -29845.039      15.2149      13.1765      28.7324    5760.2466 
   99000       98.985    240.24034    10.030281   -648.65513   -638.62485    22516.304    45496.797    47388.866   -25336.751      15.2149      13.1765      28.7324    5760.2466 
   99500       99.485    247.27944    10.324171   -648.93667    -638.6125    21718.911    44245.318    46246.529   -25335.115      15.2149      13.1765      28.7324    5760.2466 
  100000       99.985    234.32019    9.7831085   -648.38161   -638.59851     21856.95    44954.497    48023.052   -27406.698      15.2149      13.1765      28.7324    5760.2466 
  100500      100.485     232.7507    9.7175806   -648.30279   -638.58521     21279.03    46095.607     46809.94   -29068.456      15.2149      13.1765      28.7324    5760.2466 
  101000      100.985    231.54513    9.6672468   -648.23887   -638.57162    21076.209    43988.884    47207.116   -27967.374      15.2149      13.1765      28.7324    5760.2466 
  101500      101.485    248.70909     10.38386   -648.94258   -638.55872    21657.151    42486.406    47745.637   -25260.589      15.2149      13.1765      28.7324    5760.2466 
  102000      101.985    235.72173    9.8416241   -648.38663   -638.54501    20199.018    41906.598    50119.856   -31429.399      15.2149      13.1765      28.7324    5760.2466 
  102500      102.485    236.39583    9.8697688     -648.401   -638.53123     20650.24    47981.201    46928.169   -32958.649      15.2149      13.1765      28.7324    5760.2466 
  103000      102.985    233.26037    9.7388598   -648.25599   -638.51713    21210.823     43247.37    47638.874   -27253.776      15.2149      13.1765      28.7324    5760.2466 
  103500      103.485    244.89053    10.224431   -648.72874   -638.50431    19387.266    42451.952    45917.871   -30208.024      15.2149      13.1765      28.7324    5760.2466 
  104000      103.985    239.18714    9.9863086   -648.47616   -638.48985    20382.823    43827.802    48671.615   -31350.948      15.2149      13.1765      28.7324    5760.2466 
  104500      104.485     230.8155    9.6367842   -648.11373   -638.47695    20558.849    43808.316    49287.657   -31419.427      15.2149      13.1765      28.7324    5760.2466 
  105000      104.985    247.59402    10.337304   -648.80101    -638.4637    22843.663    46167.891    49246.881   -26883.782      15.2149      13.1765      28.7324    5760.2466 
  105500      105.485    225.44152    9.4124151   -647.86108   -638.44867    21962.641    43420.492    47912.309   -25444.877      15.2149      13.1765      28.7324    5760.2466 
  106000      105.985    220.82601    9.2197128   -647.65411   -638.43439    21957.259    42978.222    48214.863   -25321.307      15.2149      13.1765      28.7324    5760.2466 
  106500      106.485    249.25982    10.406854   -648.82859   -638.42174    22629.482    44438.677    50807.068   -27357.298      15.2149      13.1765      28.7324    5760.2466 
  107000      106.985    253.12119     10.56807   -648.97558   -638.40751    21157.901    43428.403    48995.283   -28949.983      15.2149      13.1765      28.7324    5760.2466 
  107500      107.485    230.76797    9.6347996    -648.0275    -638.3927    21729.839    43557.156    47968.147   -26335.787      15.2149      13.1765      28.7324    5760.2466 
  108000      107.985    257.14206    10.735945   -649.11576   -638.37981    20529.624    44357.533    46930.438     -29699.1      15.2149      13.1765      28.7324    5760.2466 
  108500      108.485    241.75718    10.093611   -648.45882   -638.36521    20774.161    43589.611    47694.649   -28961.776      15.2149      13.1765      28.7324    5760.2466 
  109000      108.985    238.16773    9.9437474   -648.29563   -638.35188     22861.26    41430.494    49893.001   -22739.714      15.2149      13.1765      28.7324    5760.2466 
  109500      109.485    239.72964    10.008959   -648.34568   -638.33673    21869.519    44407.542    48260.438   -27059.422      15.2149      13.1765      28.7324    5760.2466 
  110000      109.985    248.29908    10.366742   -648.68981   -638.32307    23384.354    40955.204    48479.725   -19281.866      15.2149      13.1765      28.7324    5760.2466 
  110500      110.485    244.89533    10.224631    -648.5329   -638.30827    20882.356    43735.228    50428.109   -31516.269      15.2149      13.1765      28.7324    5760.2466 
  111000      110.985    240.08394    10.023751   -648.31664   -638.29289    21907.988    47578.744    46895.449    -28750.23      15.2149      13.1765      28.7324    5760.2466 
  111500      111.485    257.21337    10.738922   -649.01852    -638.2796    21398.681      44444.5    45225.192   -25473.648      15.2149      13.1765      28.7324    5760.2466 
  112000      111.985     232.4904     9.706713   -647.97055   -638.26384    22529.814    45244.562    48311.333   -25966.452      15.2149      13.1765      28.7324    5760.2466 
  112500      112.485    244.51221    10.208636   -648.45842   -638.24979    22371.394    45668.009    47981.012   -26534.837      15.2149      13.1765      28.7324    5760.2466 
  113000      112.985     250.9246     10.47636   -648.71244   -638.23608    22202.466    45001.714     47863.38   -26257.697      15.2149      13.1765      28.7324    5760.2466 
  113500      113.485    242.48762    10.124107   -648.34557   -638.22146    20756.956    42975.659    48664.021   -29368.813      15.2149      13.1765      28.7324    5760.2466 
  114000      113.985    248.05452    10.356531   -648.56362   -638.20709    21825.463    46502.418     47427.56   -28453.589      15.2149      13.1765      28.7324    5760.2466 
  114500      114.485    245.35504    10.243825   -648.43588   -638.19206    21809.193    43265.109    49172.763   -27010.292      15.2149      13.1765      28.7324    5760.2466 
  115000      114.985    246.86784    10.306986   -648.48403   -638.17705    21903.557     43998.21     48183.89   -26471.428      15.2149      13.1765      28.7324    5760.2466 
  115500      115.485    240.08044    10.023605    -648.1854   -638.16179    22970.708     45879.45    46778.749   -23746.073      15.2149      13.1765      28.7324    5760.2466 
  116000      115.985    239.89783    10.015981   -648.16367   -638.14768    22317.159    44530.956    49356.653   -26936.132      15.2149      13.1765      28.7324    5760.2466 
  116500      116.485     233.9363    9.7670807   -647.89975   -638.13267    20278.543    45818.605    47454.234   -32437.211      15.2149      13.1765      28.7324    5760.2466 
  117000      116.985    244.56855    10.210988   -648.32935   -638.11836    22313.485    41563.681    53601.643    -28224.87      15.2149      13.1765      28.7324    5760.2466 
  117500      117.485    239.48364    9.9986877   -648.10195   -638.10327    22513.373    46332.045    52133.597   -30925.522      15.2149      13.1765      28.7324    5760.2466 
  118000      117.985    231.13159    9.6499813   -647.73799   -638.08801    21918.521    44225.239    49133.059   -27602.736      15.2149      13.1765      28.7324    5760.2466 
  118500      118.485    239.88411    10.015408   -648.08854   -638.07313    21477.279    42946.094    47309.403    -25823.66      15.2149      13.1765      28.7324    5760.2466 
  119000      118.985    231.88261    9.6813372   -647.73903   -638.05769    21924.338    43775.651    44404.997   -22407.635      15.2149      13.1765      28.7324    5760.2466 
  119500      119.485    254.88354    10.641649   -648.68583   -638.04418    23219.169    43545.739    50477.938   -24366.172      15.2149      13.1765      28.7324    5760.2466 
  120000      119.985    233.94719    9.7675355    -647.7956   -638.02806    20681.061     43954.91     49779.77   -31691.498      15.2149      13.1765      28.7324    5760.2466 
  120500      120.485    244.78132    10.219871   -648.23392   -638.01404    21776.427    41272.904    51524.395   -27468.017      15.2149      13.1765      28.7324    5760.2466 
  121000      120.985     255.8282     10.68109    -648.6807   -637.99961    21104.387    45331.172    46800.851   -28818.863      15.2149      13.1765      28.7324    5760.2466 
  121500      121.485    239.51091    9.9998265   -647.98315   -637.98332    21059.892    43138.735    46926.133   -26885.192      15.2149      13.1765      28.7324    5760.2466 
  122000      121.985    240.53411    10.042546   -648.01171   -637.96916     21455.89    43058.077    46962.833   -25653.239      15.2149      13.1765      28.7324    5760.2466 
  122500      122.485    229.73139    9.5915212   -647.54446   -637.95294    21848.592    44785.535    46971.675   -26211.433      15.2149      13.1765      28.7324    5760.2466 
  123000      122.985    250.92222     10.47626   -648.41463   -637.93837    21248.918     41955.63    52121.803    -30330.68      15.2149      13.1765      28.7324    5760.2466 
  123500      123.485    249.61253    10.421579   -648.34548    -637.9239    20598.029    40678.213    50026.367   -28910.493      15.2149      13.1765      28.7324    5760.2466 
  124000      123.985    243.72241    10.175661   -648.08315   -637.90748    20954.247    43620.742    43758.976   -24516.979      15.2149      13.1765      28.7324    5760.2466 
  124500      124.485    245.09029    10.232771   -648.12568    -637.8929    22077.523    40916.064    49546.634   -24230.129      15.2149      13.1765      28.7324    5760.2466 
  125000      124.985    236.20023    9.8616022   -647.73872   -637.87712    22560.294    43538.671    49933.967   -25791.758      15.2149      13.1765      28.7324    5760.2466 
  125500      125.485    246.06554    10.273489    -648.1351   -637.86161    21153.383    42804.597    46834.372   -26178.821      15.2149      13.1765      28.7324    5760.2466 
  126000      125.985    258.61431    10.797413   -648.64427   -637.84685    22045.142    45498.327    49049.607   -28412.507      15.2149      13.1765      28.7324    5760.2466 
  126500      126.485    230.31512    9.6158927   -647.44628   -637.83039    21272.575    43267.415    50350.832   -29800.523      15.2149      13.1765      28.7324    5760.2466 
  127000      126.985    244.56153    10.210695   -648.02688   -637.81618    21088.794    38395.215    52196.878   -27325.711      15.2149      13.1765      28.7324    5760.2466 
  127500      127.485    235.58921    9.8360914   -647.63591   -637.79982    20540.573    43059.263    51038.241   -32475.785      15.2149      13.1765      28.7324    5760.2466 
  128000      127.985    235.90684    9.8493529   -647.63376   -637.78441    23128.751    43962.406    50013.777   -24589.931      15.2149      13.1765      28.7324    5760.2466 
  128500      128.485    254.43526    10.622933   -648.39239   -637.76946    20424.375    44195.477    50660.845   -33583.198      15.2149      13.1765      28.7324    5760.2466 
  129000      128.985    236.02669    9.8543566   -647.60805   -637.75369     21523.45    41145.081    46936.252   -23510.981      15.2149      13.1765      28.7324    5760.2466 
  129500      129.485    249.99618    10.437597   -648.17548   -637.73788    22286.191    45250.831    49327.424   -27719.682      15.2149      13.1765      28.7324    5760.2466 
  130000      129.985    244.64744    10.214282    -647.9381   -637.72382    20787.589    43522.855    47567.865   -28727.954      15.2149      13.1765      28.7324    5760.2466 
  130500      130.485    242.58301     10.12809   -647.83556   -637.70747    21958.902    40417.479    48525.214   -23065.988      15.2149      13.1765      28.7324    5760.2466 
  131000      130.985    238.19999    9.9450941   -647.63664   -637.69154    21923.685    39834.024    47831.781    -21894.75      15.2149      13.1765      28.7324    5760.2466 
  131500      131.485    247.98565    10.353656   -648.03108   -637.67742    21562.589    41242.285    51495.058   -28049.577      15.2149      13.1765      28.7324    5760.2466 
  132000      131.985    252.94316    10.560637   -648.22182   -637.66118    20736.922    43038.906    52427.747   -33255.885      15.2149      13.1765      28.7324    5760.2466 
  132500      132.485    249.81135     10.42988   -648.07585   -637.64597    20764.142    38342.787    45900.064   -21950.425      15.2149      13.1765      28.7324    5760.2466 
  133000      132.985    253.27923    10.574668   -648.20478   -637.63011    21631.451    42027.913     49312.68   -26446.239      15.2149      13.1765      28.7324    5760.2466 
  133500      133.485    257.41178    10.747206   -648.36159   -637.61439    22053.464    44353.497    50171.961   -28365.068      15.2149      13.1765      28.7324    5760.2466 
  134000      133.985    247.59581    10.337379   -647.93573   -637.59835    21444.069    42394.493    47510.105   -25572.389      15.2149      13.1765      28.7324    5760.2466 
  134500      134.485    252.14389    10.527266   -648.11118   -637.58392    22585.881    44006.513    49177.336   -25426.207      15.2149      13.1765      28.7324    5760.2466 
  135000      134.985    239.26309    9.9894795   -647.55697   -637.56749    22591.707    42564.804    49808.375   -24598.058      15.2149      13.1765      28.7324    5760.2466 
  135500      135.485    256.87311    10.724716   -648.27596   -637.55124    21230.789    41800.013     53857.29   -31964.937      15.2149      13.1765      28.7324    5760.2466 
  136000      135.985    251.04492    10.481383   -648.01688   -637.53549    20924.675    43527.977    49608.958   -30362.911      15.2149      13.1765      28.7324    5760.2466 
  136500      136.485     236.5554    9.8764307   -647.39574    -637.5193    22279.257    44196.764     49908.32   -27267.312      15.2149      13.1765      28.7324    5760.2466 
  137000      136.985    259.31867    10.826821   -648.33127   -637.50444    21137.396    43725.032    49939.211   -30252.055      15.2149      13.1765      28.7324    5760.2466 
  137500      137.485    249.29968    10.408517   -647.89774   -637.48922    22438.815    45090.185    48564.381   -26338.121      15.2149      13.1765      28.7324    5760.2466 
  138000      137.985    250.86177    10.473736   -647.94696   -637.47322    20741.981    43213.219    48921.621   -29908.898      15.2149      13.1765      28.7324    5760.2466 
  138500      138.485    249.69401    10.424981   -647.88222   -637.45724    21119.196      45016.2    49489.302   -31147.913      15.2149      13.1765      28.7324    5760.2466 
  139000      138.985     251.7847     10.51227   -647.95419   -637.44192    22684.323     45090.27    50806.382   -27843.684      15.2149      13.1765      28.7324    5760.2466 
  139500      139.485    252.11579    10.526093   -647.95162   -637.42552    20861.387    41034.775    51657.628   -30108.241      15.2149      13.1765      28.7324    5760.2466 
  140000      139.985    243.16681    10.152464   -647.56112   -637.40865    22184.701    44463.606    49846.769   -27756.272      15.2149      13.1765      28.7324    5760.2466 
  140500      140.485    251.97262    10.520116   -647.91382   -637.39371    22131.529    43930.753    52879.933     -30416.1      15.2149      13.1765      28.7324    5760.2466 
  141000      140.985    257.32545    10.743602   -648.12135   -637.37775    20890.013     40724.28    47546.924   -25601.165      15.2149      13.1765      28.7324    5760.2466 
  141500      141.485    258.11304    10.776485   -648.13873   -637.36225    20911.307    42330.326    47792.532   -27388.938      15.2149      13.1765      28.7324    5760.2466 
  142000      141.985    252.24793     10.53161   -647.87757   -637.34596    21632.314    41343.813    49972.403   -26419.273      15.2149      13.1765      28.7324    5760.2466 
  142500      142.485    256.79819    10.721588   -648.05122   -637.32963    24327.233    44792.781      51305.9   -23116.982      15.2149      13.1765      28.7324    5760.2466 
  143000      142.985    252.30589     10.53403   -647.84759   -637.31356    21693.811    42167.477    51255.194   -28341.238      15.2149      13.1765      28.7324    5760.2466 
  143500      143.485    261.25964    10.907858   -648.20594   -637.29808    22793.652    45574.096    52113.325   -29306.465      15.2149      13.1765      28.7324    5760.2466 
  144000      143.985    256.64282    10.715101   -647.99612   -637.28102    22187.891    42267.978    51787.839   -27492.144      15.2149      13.1765      28.7324    5760.2466 
  144500      144.485     252.5906    10.545917   -647.81161   -637.26569    21704.099    46186.594    51276.281   -32350.577      15.2149      13.1765      28.7324    5760.2466 
  145000      144.985    242.18444    10.111449   -647.35991   -637.24846     20747.66    42005.988    49708.255   -29471.264      15.2149      13.1765      28.7324    5760.2466 
  145500      145.485    243.66549    10.173284   -647.40598   -637.23269    21836.326    42750.972    49694.945   -26936.938      15.2149      13.1765      28.7324    5760.2466 
  146000      145.985     244.6636    10.214956   -647.43237   -637.21741    22202.233    45891.458    50003.072   -29287.831      15.2149      13.1765      28.7324    5760.2466 
  146500      146.485    257.94932    10.769649   -647.97106   -637.20141    21699.674    43535.784    49157.725   -27594.485      15.2149      13.1765      28.7324    5760.2466 
  147000      146.985    257.81212    10.763921   -647.94889   -637.18497     22792.85    43100.071      52230.8   -26952.322      15.2149      13.1765      28.7324    5760.2466 
  147500      147.485    250.97096    10.478295   -647.64687   -637.16857    21301.758    42956.245    49243.054   -28294.026      15.2149      13.1765      28.7324    5760.2466 
  148000      147.985    252.85125    10.556799   -647.70902   -637.15222    21312.181     42537.47    47120.988   -25721.915      15.2149      13.1765      28.7324    5760.2466 
  148500      148.485    240.91391    10.058403   -647.19375   -637.13535    22450.687    43554.331    49512.582   -25714.853      15.2149      13.1765      28.7324    5760.2466 
  149000      148.985    241.59392    10.086794   -647.20626   -637.11947    20883.898    42964.485     47248.65   -27561.442      15.2149      13.1765      28.7324    5760.2466 
  149500      149.485    265.56185     11.08748   -648.19125   -637.10377    21090.854    42898.418    49243.905   -28869.762      15.2149      13.1765      28.7324    5760.2466 
  150000      149.985    253.33169    10.576858   -647.66388   -637.08702    21626.325    42303.603    51071.239   -28495.868      15.2149      13.1765      28.7324    5760.2466 
  150500      150.485    268.98439    11.230375   -648.30171   -637.07133    22067.741    45228.571    51954.414   -30979.761      15.2149      13.1765      28.7324    5760.2466 
  151000      150.985    264.63486    11.048777   -648.10414   -637.05536    22065.583    43856.899    47596.802   -25256.951      15.2149      13.1765      28.7324    5760.2466 
  151500      151.485    259.02002    10.814352   -647.85269   -637.03833    21535.543    43586.756    51672.518   -30652.644      15.2149      13.1765      28.7324    5760.2466 
  152000      151.985    235.77625    9.8439006   -646.86553   -637.02163    20875.885    40187.185    51976.855   -29536.384      15.2149      13.1765      28.7324    5760.2466 
  152500      152.485    254.69225    10.633663   -647.63938   -637.00572    22096.429    42263.485    50206.417   -26180.615      15.2149      13.1765      28.7324    5760.2466 
  153000      152.985    255.14042    10.652374   -647.64161   -636.98923    21448.452    40308.712    52070.445     -28033.8      15.2149      13.1765      28.7324    5760.2466 
  153500      153.485    261.11216    10.901701   -647.87556   -636.97386    21220.444    43490.693    47950.787   -27780.147      15.2149      13.1765      28.7324    5760.2466 
  154000      153.985    266.56836    11.129503   -648.08711    -636.9576    22561.225    39996.687    51954.348    -24267.36      15.2149      13.1765      28.7324    5760.2466 
  154500      154.485    269.81944    11.265239    -648.2064   -636.94116    21049.989    45067.672    47428.425   -29346.129      15.2149      13.1765      28.7324    5760.2466 
  155000      154.985    253.45365     10.58195   -647.50609   -636.92414    21687.442    42575.555    51131.007   -28644.237      15.2149      13.1765      28.7324    5760.2466 
  155500      155.485    258.53766    10.794213   -647.70184   -636.90763    22348.744    42938.579    53285.685   -29178.031      15.2149      13.1765      28.7324    5760.2466 
  156000      155.985    233.50347    9.7490096   -646.63952   -636.89052    22332.574    44223.622    50810.825   -28036.723      15.2149      13.1765      28.7324    5760.2466 
  156500      156.485    250.91216     10.47584   -647.35051   -636.87467    22808.261    44251.556     50982.63   -26809.404      15.2149      13.1765      28.7324    5760.2466 
  157000      156.985    257.39766    10.746617   -647.60579   -636.85917    22707.836    39660.398    53102.309   -24639.198      15.2149      13.1765      28.7324    5760.2466 
  157500      157.485    258.63092    10.798106   -647.64038   -636.84228      20264.1    44150.175    49774.479   -33132.354      15.2149      13.1765      28.7324    5760.2466 
  158000      157.985    236.69315    9.8821821   -646.70715   -636.82497    21717.133    42644.388    51993.924   -29486.913      15.2149      13.1765      28.7324    5760.2466 
  158500      158.485    255.73365    10.677142   -647.48553   -636.80838     21847.21    41309.513    52218.596   -27986.479      15.2149      13.1765      28.7324    5760.2466 
  159000      158.985    251.90716    10.517383    -647.3095   -636.79212    20413.052    40048.951    50164.822   -28974.616      15.2149      13.1765      28.7324    5760.2466 
  159500      159.485    273.99458    11.439555   -648.21506    -636.7755    21996.406    42422.866     52910.39   -29344.039      15.2149      13.1765      28.7324    5760.2466 
  160000      159.985    266.19586    11.113951   -647.87301   -636.75906    22445.796    44331.859    50198.966   -27193.436      15.2149      13.1765      28.7324    5760.2466 
  160500      160.485    264.37285    11.037838   -647.77989   -636.74205     21625.58    43825.098    50499.983   -29448.341      15.2149      13.1765      28.7324    5760.2466 
  161000      160.985       243.12    10.150509   -646.87617   -636.72566      21035.1    44399.499    53930.574   -35224.775      15.2149      13.1765      28.7324    5760.2466 
  161500      161.485    262.93059    10.977622   -647.68672    -636.7091    22879.028    43723.265     50835.04    -25921.22      15.2149      13.1765      28.7324    5760.2466 
  162000      161.985    261.55058    10.920005   -647.61328   -636.69328    21380.685    43965.627    51692.434   -31516.005      15.2149      13.1765      28.7324    5760.2466 
  162500      162.485    257.37444    10.745647   -647.42204   -636.67639    22200.436    45696.301    48280.093   -27375.085      15.2149      13.1765      28.7324    5760.2466 
  163000      162.985    258.67419    10.799913   -647.45952   -636.65961     22425.25    43219.551    50665.235   -26609.035      15.2149      13.1765      28.7324    5760.2466 
  163500      163.485    261.81881    10.931204   -647.57414   -636.64293    20224.561    43899.054    50657.387   -33882.759      15.2149      13.1765      28.7324    5760.2466 
  164000      163.985     253.2848    10.574901   -647.20088   -636.62598    21814.923    42271.672    49262.366   -26089.268      15.2149      13.1765      28.7324    5760.2466 
  164500      164.485    259.20992    10.822281   -647.43198    -636.6097    23227.819    43392.086    50794.338   -24502.967      15.2149      13.1765      28.7324    5760.2466 
  165000      164.985    271.48973    11.334975   -647.92804   -636.59307    22411.854    42390.171    53507.856   -28662.464      15.2149      13.1765      28.7324    5760.2466 
  165500      165.485    265.79737    11.097313   -647.67323   -636.57591    21821.669    44071.112    45299.264   -23905.367      15.2149      13.1765      28.7324    5760.2466 
  166000      165.985    262.72078    10.968862   -647.52852   -636.55966    20843.948    44361.168    48433.891   -30263.215      15.2149      13.1765      28.7324    5760.2466 
  166500      166.485    275.66503    11.509298   -648.05301   -636.54371    22602.737    43363.402    49036.669   -24591.859      15.2149      13.1765      28.7324    5760.2466 
  167000      166.985    253.77658    10.595433   -647.12126   -636.52583    22637.167    44466.502    47561.008   -24116.009      15.2149      13.1765      28.7324    5760.2466 
  167500      167.485     273.0058    11.398273   -647.90845   -636.51018    22096.164    44718.156     51470.14   -29899.804      15.2149      13.1765      28.7324    5760.2466 
  168000      167.985    269.75487    11.262543    -647.7559   -636.49336    19773.467    43894.886    48573.732   -33148.217      15.2149      13.1765      28.7324    5760.2466 
  168500      168.485    271.95551    11.354422   -647.83064   -636.47622    22156.238    43441.699    51582.945   -28555.929      15.2149      13.1765      28.7324    5760.2466 
  169000      168.985    256.93693    10.727381   -647.18649   -636.45911     20671.71    45368.674    45404.999   -28758.544      15.2149      13.1765      28.7324    5760.2466 
  169500      169.485    271.52402    11.336407   -647.78041     -636.444    20015.892    42248.982    46341.061   -28542.367      15.2149      13.1765      28.7324    5760.2466 
  170000      169.985    258.70337    10.801131    -647.2276   -636.42646    21590.902    47784.655    49068.029   -32079.979      15.2149      13.1765      28.7324    5760.2466 
  170500      170.485    268.70162    11.218569   -647.62771   -636.40914    20768.651    44881.533    48530.069   -31105.648      15.2149      13.1765      28.7324    5760.2466 
  171000      170.985    265.78581     11.09683   -647.48939   -636.39256    20386.687    42794.676    48117.292   -29751.909      15.2149      13.1765      28.7324    5760.2466 
  171500      171.485    263.13746    10.986259   -647.36159   -636.37533    20749.823    42221.019    50600.874   -30572.422      15.2149      13.1765      28.7324    5760.2466 
  172000      171.985    272.45548    11.375296   -647.73391   -636.35862    21688.743    41892.222    48272.017   -25098.009      15.2149      13.1765      28.7324    5760.2466 
  172500      172.485    238.76811    9.9688137   -646.30999   -636.34118    20484.043    44417.317    49909.671   -32874.859      15.2149      13.1765      28.7324    5760.2466 
  173000      172.985    250.73236    10.468334   -646.79287   -636.32453    22151.882    44177.658    48001.475   -25723.488      15.2149      13.1765      28.7324    5760.2466 
  173500      173.485    254.23911    10.614744   -646.92245    -636.3077    21028.775    44648.985    47622.813   -29185.474      15.2149      13.1765      28.7324    5760.2466 
  174000      173.985    260.81795    10.889417   -647.18033   -636.29091    21837.367    42162.458     50635.14   -27285.497      15.2149      13.1765      28.7324    5760.2466 
  174500      174.485    268.25077    11.199745   -647.47349   -636.27375     21353.75    44649.257    49237.804   -29825.811      15.2149      13.1765      28.7324    5760.2466 
  175000      174.985    276.92927    11.562081   -647.81983   -636.25775    22188.709    43870.669    49753.236   -27057.778      15.2149      13.1765      28.7324    5760.2466 
  175500      175.485    266.76774    11.137827   -647.37914   -636.24132    21873.574    45505.521    48106.125   -27990.924      15.2149      13.1765      28.7324    5760.2466 
  176000      175.985    267.71151    11.177231   -647.40044   -636.22321    21161.217    45330.589    50463.177   -32310.114      15.2149      13.1765      28.7324    5760.2466 
  176500      176.485    269.07991    11.234362   -647.44082   -636.20645    19994.771    41404.509    50736.623   -32156.819      15.2149      13.1765      28.7324    5760.2466 
  177000      176.985    272.70048    11.385525   -647.57482   -636.18929    22567.901    48103.867    51610.723   -32010.889      15.2149      13.1765      28.7324    5760.2466 
  177500      177.485    278.63281    11.633206   -647.80545   -636.17225    21950.855    43358.957    51008.775   -28515.166      15.2149      13.1765      28.7324    5760.2466 
  178000      177.985    272.98878    11.397562   -647.55328   -636.15572     22481.83    45981.336    48571.404   -27107.251      15.2149      13.1765      28.7324    5760.2466 
  178500      178.485    268.39133    11.205614   -647.34319   -636.13758    22847.796    44665.953     47628.91   -23751.476      15.2149      13.1765      28.7324    5760.2466 
  179000      178.985    263.78561     11.01332   -647.13474   -636.12142    22767.223    44735.595    51311.171   -27745.097      15.2149      13.1765      28.7324    5760.2466 
  179500      179.485      269.558    11.254323   -647.35835   -636.10403    22134.572    45521.028    47335.187     -26452.5      15.2149      13.1765      28.7324    5760.2466 
  180000      179.985    250.44391     10.45629    -646.5425   -636.08621     22068.32    42491.486    51188.441   -27474.967      15.2149      13.1765      28.7324    5760.2466 
  180500      180.485    262.30219    10.951386   -647.02134   -636.06995    20720.208    42129.872    46660.445   -26629.692      15.2149      13.1765      28.7324    5760.2466 
  181000      180.985    251.77844    10.512008   -646.56416   -636.05215    21986.182    44097.943    51080.826   -29220.222      15.2149      13.1765      28.7324    5760.2466 
  181500      181.485    251.97846    10.520359   -646.55416    -636.0338    22208.196    42903.991    49601.038   -25880.442      15.2149      13.1765      28.7324    5760.2466 
  182000      181.985    275.33826    11.495655   -647.51383   -636.01817    21956.429    44810.394    53020.315   -31961.424      15.2149      13.1765      28.7324    5760.2466 
  182500      182.485    275.29134    11.493696   -647.49496   -636.00126    21662.718     44980.98    50200.907   -30193.733      15.2149      13.1765      28.7324    5760.2466 
  183000      182.985    263.63066    11.006851   -646.99001   -635.98316    21917.285    42343.104    51646.315   -28237.565      15.2149      13.1765      28.7324    5760.2466 
  183500      183.485    261.34416    10.911387   -646.87745   -635.96606    23170.933    44345.636    47503.258   -22336.094      15.2149      13.1765      28.7324    5760.2466 
  184000      183.985    256.97605    10.729014   -646.67829   -635.94928    22087.251    43645.457    49955.541   -27339.244      15.2149      13.1765      28.7324    5760.2466 
  184500      184.485    282.56852    11.797526   -647.73072    -635.9332    21047.334    42771.757    50085.912   -29715.666      15.2149      13.1765      28.7324    5760.2466 
  185000      184.985    281.82799    11.766608   -647.68229   -635.91568    23148.497    44793.317    48867.231   -24215.057      15.2149      13.1765      28.7324    5760.2466 
  185500      185.485    275.86542    11.517665   -647.41587    -635.8982    22212.916    41006.363    49113.286   -23480.901      15.2149      13.1765      28.7324    5760.2466 
  186000      185.985    265.96653    11.104376   -646.98442   -635.88004    23098.355    45831.002    51932.752   -28468.688      15.2149      13.1765      28.7324    5760.2466 
  186500      186.485     269.7953    11.264231   -647.12656   -635.86233    21662.894     40459.87    51127.284   -26598.473      15.2149      13.1765      28.7324    5760.2466 
  187000      186.985    261.30759     10.90986   -646.75424   -635.84438    22033.943    44737.741    50647.914   -29283.826      15.2149      13.1765      28.7324    5760.2466 
  187500      187.485    261.67689    10.925279   -646.75248    -635.8272     22846.67    47447.555    48342.333   -27249.877      15.2149      13.1765      28.7324    5760.2466 
  188000      187.985    281.53565    11.754403   -647.56555   -635.81115    20756.228    43632.287    46267.484   -27631.087      15.2149      13.1765      28.7324    5760.2466 
  188500      188.485    268.89389    11.226596   -647.01959     -635.793    21535.605    44369.498    50108.355   -29871.039      15.2149      13.1765      28.7324    5760.2466 
  189000      188.985     285.9809    11.939996   -647.71707   -635.77707    22116.938    43877.025    48240.196   -25766.408      15.2149      13.1765      28.7324    5760.2466 
  189500      189.485     272.3097     11.36921   -647.12763   -635.75842    22782.286    44623.695    51659.742    -27936.58      15.2149      13.1765      28.7324    5760.2466 
  190000      189.985    260.25778     10.86603   -646.60698   -635.74095    20773.463    45728.305    49817.775   -33225.691      15.2149      13.1765      28.7324    5760.2466 
  190500      190.485     279.9931    11.689999   -647.41446   -635.72446     22660.86    42823.153     54940.95   -29781.524      15.2149      13.1765      28.7324    5760.2466 
  191000      190.985    282.11251    11.778487   -647.48616   -635.70767    22270.151    44078.784    53316.157   -30584.487      15.2149      13.1765      28.7324    5760.2466 
  191500      191.485    285.49146    11.919561   -647.60947   -635.68991     21802.23    44107.805    45287.223   -23988.339      15.2149      13.1765      28.7324    5760.2466 
  192000      191.985    257.65289    10.757273   -646.42813   -635.67086    22707.495    45699.716    48729.359    -26306.59      15.2149      13.1765      28.7324    5760.2466 
  192500      192.485    285.92496    11.937661   -647.59301   -635.65535    22156.082    47293.317    52629.671   -33454.743      15.2149      13.1765      28.7324    5760.2466 
  193000      192.985    264.97743     11.06308   -646.69899   -635.63591    22546.368    47815.961    48278.832    -28455.69      15.2149      13.1765      28.7324    5760.2466 
  193500      193.485    258.08276     10.77522   -646.39346   -635.61824    21117.385    42482.692    53300.488   -32431.025      15.2149      13.1765      28.7324    5760.2466 
  194000      193.985    276.51574    11.544816   -647.14592    -635.6011    22042.311    43099.236    52310.636   -29282.937      15.2149      13.1765      28.7324    5760.2466 
  194500      194.485    278.58556    11.631233   -647.21563    -635.5844    22734.893    44531.423    48949.257   -25276.001      15.2149      13.1765      28.7324    5760.2466 
  195000      194.985    266.11211    11.110454   -646.67579   -635.56534    22335.145     44759.56    49153.698   -26907.822      15.2149      13.1765      28.7324    5760.2466 
  195500      195.485      281.777    11.764479   -647.31368    -635.5492    20857.351    44093.907    47108.017   -28629.872      15.2149      13.1765      28.7324    5760.2466 
  196000      195.985    278.11255    11.611485   -647.14293   -635.53145    22495.816    45148.913    49419.514   -27080.979      15.2149      13.1765      28.7324    5760.2466 
  196500      196.485    285.87405    11.935535   -647.44991   -635.51438    21304.242    45885.425    45489.678   -27462.378      15.2149      13.1765      28.7324    5760.2466 
  197000      196.985    274.04936    11.441842   -646.93811   -635.49627    20875.663     41350.82    48498.083   -27221.915      15.2149      13.1765      28.7324    5760.2466 
  197500      197.485    287.03285    11.983916   -647.46242    -635.4785    22123.934    41879.666     50918.61   -26426.473      15.2149      13.1765      28.7324    5760.2466 
  198000      197.985    276.00544     11.52351   -646.98455   -635.46104    21400.221    41922.914    51376.287   -29098.539      15.2149      13.1765      28.7324    5760.2466 
  198500      198.485    293.01174    12.233541   -647.67856   -635.44502    21612.017    40378.686    50361.084   -25903.719      15.2149      13.1765      28.7324    5760.2466 
  199000      198.985    277.95667    11.604976   -647.03131   -635.42633    22128.448    45743.916    50213.529     -29572.1      15.2149      13.1765      28.7324    5760.2466 
  199500      199.485    277.75058    11.596372   -647.00329   -635.40692    21705.321    44467.496    54512.922   -33864.453      15.2149      13.1765      28.7324    5760.2466 
  200000      199.985    276.58119    11.547549   -646.93686   -635.38931    22241.473    42779.811    54547.844   -30603.235      15.2149      13.1765      28.7324    5760.2466 
  200500      200.485    271.34153    11.328787       -646.7   -635.37121    22273.595    40957.074     53532.87   -27669.158      15.2149      13.1765      28.7324    5760.2466 
  201000      200.985    277.67463    11.593201   -646.94733   -635.35413    23259.845     43577.16    56575.557   -30373.184      15.2149      13.1765      28.7324    5760.2466 
  201500      201.485    294.90087    12.312414   -647.65001    -635.3376    22675.928    46229.079     49097.87   -27299.164      15.2149      13.1765      28.7324    5760.2466 
  202000      201.985    265.70893    11.093621   -646.41226   -635.31864    21596.285    41714.057    50877.371   -27802.573      15.2149      13.1765      28.7324    5760.2466 
  202500      202.485    292.00818    12.191641    -647.4927   -635.30106    21268.436     45552.64     48079.22   -29826.553      15.2149      13.1765      28.7324    5760.2466 
  203000      202.985     284.2418    11.867387   -647.15002   -635.28263    22127.631    44582.704    51392.964   -29592.774      15.2149      13.1765      28.7324    5760.2466 
  203500      203.485     269.1493     11.23726   -646.50102   -635.26376    21820.918    45372.948    50617.289   -30527.483      15.2149      13.1765      28.7324    5760.2466 
  204000      203.985    268.38643    11.205409   -646.45211   -635.24671    21865.893    43612.721    50661.885   -28676.928      15.2149      13.1765      28.7324    5760.2466 
  204500      204.485    262.94129    10.978069   -646.20717    -635.2291    21460.743    43543.925     47440.85   -26602.546      15.2149      13.1765      28.7324    5760.2466 
  205000      204.985    276.45658    11.542346   -646.75413   -635.21179    22522.296    43210.584    50012.258   -25655.954      15.2149      13.1765      28.7324    5760.2466 
  205500      205.485    283.82408    11.849947   -647.04407   -635.19412    21772.221    43792.458    48799.727   -27275.521      15.2149      13.1765      28.7324    5760.2466 
  206000      205.985    263.12745    10.985841   -646.16183   -635.17599     21239.33     44592.82    49463.354   -30338.184      15.2149      13.1765      28.7324    5760.2466 
  206500      206.485    285.75013    11.930361   -647.08863   -635.15827    22546.415    44410.754    50949.484   -27720.993      15.2149      13.1765      28.7324    5760.2466 
  207000      206.985    272.21643    11.365315   -646.50555   -635.14024    22505.998    44622.193    50062.711   -27166.909      15.2149      13.1765      28.7324    5760.2466 
  207500      207.485    259.51901    10.835185   -645.95672   -635.12153     21297.98    40923.332    50493.022   -27522.413      15.2149      13.1765      28.7324    5760.2466 
  208000      207.985    277.93384    11.604023   -646.70909   -635.10507    22200.141    43176.885    52280.382   -28856.844      15.2149      13.1765      28.7324    5760.2466 
  208500      208.485     278.6868     11.63546   -646.72143   -635.08597    20645.698     43883.45     48863.14   -30809.496      15.2149      13.1765      28.7324    5760.2466 
  209000      208.985    275.80258    11.515041   -646.58366   -635.06862    20378.924    43440.099    48025.143   -30328.468      15.2149      13.1765      28.7324    5760.2466 
  209500      209.485    268.23075    11.198909   -646.24892   -635.05001    21792.685    45470.128    47340.284   -27432.356      15.2149      13.1765      28.7324    5760.2466 
  210000      209.985    274.98766    11.481017   -646.51358   -635.03256    21560.949    45812.114    47569.399   -28698.666      15.2149      13.1765      28.7324    5760.2466 
  210500      210.485    271.69442    11.343521   -646.35811   -635.01459    22321.815    44709.841    46956.402   -24700.799      15.2149      13.1765      28.7324    5760.2466 
  211000      210.985     275.5966    11.506441   -646.50292   -634.99648     23909.87    44257.103    51083.825   -23611.316      15.2149      13.1765      28.7324    5760.2466 
  211500      211.485    291.04184    12.151296   -647.13108   -634.97978    23524.608    49078.085    51232.778   -29737.039      15.2149      13.1765      28.7324    5760.2466 
  212000      211.985    265.58485     11.08844   -646.04926   -634.96082    20869.138    43902.076    47693.567   -28988.228      15.2149      13.1765      28.7324    5760.2466 
[...]
  948500      948.485    367.90665     15.36048   -642.63274   -627.27226    23901.705    49502.403    48028.105   -25825.393      15.2149      13.1765      28.7324    5760.2466 
  949000      948.985      358.632    14.973254   -642.24293   -627.26968    22662.903    46266.902    54877.262   -33155.456      15.2149      13.1765      28.7324    5760.2466 
  949500      949.485    369.88033    15.442883   -642.71284   -627.26996     22760.42    47883.927    46594.112   -26196.779      15.2149      13.1765      28.7324    5760.2466 
  950000      949.985    360.64554    15.057321    -642.3273   -627.26998    22873.216     45767.53    47984.098    -25131.98      15.2149      13.1765      28.7324    5760.2466 
  950500      950.485     369.8297     15.44077    -642.7101   -627.26933    22421.992    41984.751    49352.221   -24070.997      15.2149      13.1765      28.7324    5760.2466 
  951000      950.985     371.8865    15.526643   -642.79513   -627.26849    22651.854    46877.985    51440.569   -30362.992      15.2149      13.1765      28.7324    5760.2466 
  951500      951.485    386.11141    16.120548     -643.389   -627.26845    24215.154    49472.748     47905.84   -24733.125      15.2149      13.1765      28.7324    5760.2466 
  952000      951.985    346.35658    14.460743   -641.72592   -627.26518    21824.396    47217.089    46678.166   -28422.067      15.2149      13.1765      28.7324    5760.2466 
  952500      952.485     361.9263    15.110795   -642.37637   -627.26558    22585.909    46591.262    48787.162   -27620.696      15.2149      13.1765      28.7324    5760.2466 
  953000      952.985    367.23274    15.332344   -642.59718   -627.26484    23098.492    47450.999    45104.814   -23260.339      15.2149      13.1765      28.7324    5760.2466 
  953500      953.485    352.22789    14.705876   -641.97064   -627.26477    25563.928    47916.118    55718.342   -26942.675      15.2149      13.1765      28.7324    5760.2466 
  954000      953.985    387.07024     16.16058   -643.42572   -627.26514     23107.83    49371.933    53268.356     -33316.8      15.2149      13.1765      28.7324    5760.2466 
  954500      954.485    375.40225    15.673429   -642.93731   -627.26388    24252.423    49503.747    50892.317   -27638.794      15.2149      13.1765      28.7324    5760.2466 
  955000      954.985    382.73555    15.979602   -643.24256   -627.26296    22045.991    46518.372     51557.62   -31938.019      15.2149      13.1765      28.7324    5760.2466 
  955500      955.485    376.14449    15.704419   -642.96583   -627.26141    23691.811    43984.786    51411.127   -24320.482      15.2149      13.1765      28.7324    5760.2466 
  956000      955.985    354.06831    14.782716   -642.04206   -627.25934    21720.154    42310.421    50903.548   -28053.506      15.2149      13.1765      28.7324    5760.2466 
  956500      956.485    397.44083    16.593563   -643.85251   -627.25894    22795.592    43896.271    46469.276   -21978.771      15.2149      13.1765      28.7324    5760.2466 
  957000      956.985     373.9034    15.610851   -642.86791   -627.25706     22578.05    47325.797    51023.956   -30615.604      15.2149      13.1765      28.7324    5760.2466 
  957500      957.485    379.50166    15.844584   -643.10057   -627.25599    23671.215    46249.003    52555.516   -27790.873      15.2149      13.1765      28.7324    5760.2466 
  958000      957.985    362.80948    15.147668   -642.40212   -627.25445    23499.058    47367.489    50213.954    -27084.27      15.2149      13.1765      28.7324    5760.2466 
  958500      958.485    362.78496    15.146645   -642.39988   -627.25324    22407.851     49072.18    50089.089   -31937.716      15.2149      13.1765      28.7324    5760.2466 
  959000      958.985    392.37647     16.38212   -643.63469   -627.25257    22840.378    45437.188    47947.934   -24863.989      15.2149      13.1765      28.7324    5760.2466 
  959500      959.485    391.90009    16.362231   -643.61372   -627.25149    22641.108    43421.529    53068.842   -28567.045      15.2149      13.1765      28.7324    5760.2466 
  960000      959.985    369.65851    15.433622    -642.6813   -627.24768    24235.848    48781.687    50370.463   -26444.607      15.2149      13.1765      28.7324    5760.2466 
  960500      960.485    359.73597    15.019346   -642.26539   -627.24605    23913.284    42819.145    51361.697   -22440.991      15.2149      13.1765      28.7324    5760.2466 
  961000      960.985    355.90209    14.859278   -642.10318    -627.2439    23974.831    45352.671     50143.08   -23571.256      15.2149      13.1765      28.7324    5760.2466 
  961500      961.485    389.66634     16.26897   -643.51342   -627.24445    23443.996     43225.95    53232.461   -26126.424      15.2149      13.1765      28.7324    5760.2466 
  962000      961.985    365.05937    15.241604   -642.48268   -627.24108    19342.846    40314.467     50205.79   -32491.719      15.2149      13.1765      28.7324    5760.2466 
  962500      962.485     356.0436    14.865186   -642.10486   -627.23967    22675.578    40333.669    49713.307   -22020.244      15.2149      13.1765      28.7324    5760.2466 
  963000      962.985    343.10504    14.324988   -641.56148    -627.2365    21076.242    47697.923    46635.011   -31104.207      15.2149      13.1765      28.7324    5760.2466 
  963500      963.485    386.55207    16.138946   -643.37574    -627.2368    22565.712    42603.158    54564.085   -29470.107      15.2149      13.1765      28.7324    5760.2466 
  964000      963.985    357.28372    14.916962   -642.15221   -627.23525    23424.794    46898.923    50611.083   -27235.624      15.2149      13.1765      28.7324    5760.2466 
  964500      964.485    363.95397    15.195452   -642.42812   -627.23267    22258.727    43943.305    51984.379   -29151.503      15.2149      13.1765      28.7324    5760.2466 
  965000      964.985    381.49362     15.92775   -643.15896   -627.23121    24006.933    43325.261    52488.327    -23792.79      15.2149      13.1765      28.7324    5760.2466 
  965500      965.485    388.81327    16.233353   -643.46304   -627.22969    23229.047    44657.848     55472.91   -30443.615      15.2149      13.1765      28.7324    5760.2466 
  966000      965.985    375.52314    15.678477   -642.90447   -627.22599    24987.421    47709.841     52192.92   -24940.497      15.2149      13.1765      28.7324    5760.2466 
  966500      966.485    381.16596     15.91407   -643.13811   -627.22404    24377.895    49218.977    52882.083   -28967.376      15.2149      13.1765      28.7324    5760.2466 
  967000      966.985    391.89494    16.362016   -643.58515   -627.22313     22260.64    45456.271     53685.48   -32359.832      15.2149      13.1765      28.7324    5760.2466 
  967500      967.485    345.21503    14.413082   -641.63213   -627.21904    21744.555    42803.708    48625.259   -26195.302      15.2149      13.1765      28.7324    5760.2466 
  968000      967.985    372.27398    15.542821   -642.76192    -627.2191    24429.144    47852.529    46384.386   -20949.483      15.2149      13.1765      28.7324    5760.2466 
  968500      968.485    367.08805    15.326303   -642.54263   -627.21633    22220.233    45717.951    51826.779   -30884.033      15.2149      13.1765      28.7324    5760.2466 
  969000      968.985    375.73301    15.687239   -642.90132   -627.21409     25145.03    45304.456    52009.777   -21879.142      15.2149      13.1765      28.7324    5760.2466 
  969500      969.485    365.66129    15.266734   -642.47823   -627.21149    23695.122    48275.061    48413.972   -25603.666      15.2149      13.1765      28.7324    5760.2466 
  970000      969.985    364.09216    15.201221   -642.41029   -627.20907    22381.437      44129.6    50157.952   -27143.241      15.2149      13.1765      28.7324    5760.2466 
  970500      970.485    371.56377    15.513169   -642.71998   -627.20681     23654.87    46455.581    49326.055   -24817.026      15.2149      13.1765      28.7324    5760.2466 
  971000      970.985    373.83973    15.608193    -642.8129   -627.20471    23346.065    47868.201    50538.155    -28368.16      15.2149      13.1765      28.7324    5760.2466 
  971500      971.485    369.59427     15.43094   -642.63277   -627.20183    23009.402    42277.853    51145.208   -24394.855      15.2149      13.1765      28.7324    5760.2466 
  972000      971.985    360.04535    15.032263   -642.23079   -627.19853    21886.654    49587.594    49230.422   -33158.055      15.2149      13.1765      28.7324    5760.2466 
  972500      972.485    356.21943    14.872527   -642.06967   -627.19715    22099.488    45327.159    53234.027   -32262.723      15.2149      13.1765      28.7324    5760.2466 
  973000      972.985    375.33096    15.670453   -642.86497   -627.19452    25517.492    49583.997     56007.09   -29038.612      15.2149      13.1765      28.7324    5760.2466 
  973500      973.485    370.00737    15.448188   -642.64186   -627.19367    24306.336    47033.164    55010.539   -29124.695      15.2149      13.1765      28.7324    5760.2466 
  974000      973.985    365.04483    15.240997   -642.43037   -627.18937    22496.333    45757.124    50859.238   -29127.364      15.2149      13.1765      28.7324    5760.2466 
  974500      974.485    379.19581    15.831814   -643.01944   -627.18763    23313.046    45541.371    47342.939   -22945.171      15.2149      13.1765      28.7324    5760.2466 
  975000      974.985    380.30911    15.878296   -643.06346   -627.18516    23245.814    50225.597    52892.795   -33380.949      15.2149      13.1765      28.7324    5760.2466 
  975500      975.485    375.17608    15.663987   -642.84576   -627.18177    23272.788    46226.971    56150.978   -32559.585      15.2149      13.1765      28.7324    5760.2466 
  976000      975.985    356.12603    14.868628   -642.04881   -627.18018    23771.853    49815.773    50261.229   -28761.442      15.2149      13.1765      28.7324    5760.2466 
  976500      976.485    361.58225     15.09643   -642.27399   -627.17756     25252.99     45520.14    51552.468   -21313.639      15.2149      13.1765      28.7324    5760.2466 
  977000      976.985    376.50782    15.719588   -642.89304   -627.17345     22281.55    47855.631    50109.248   -31120.228      15.2149      13.1765      28.7324    5760.2466 
  977500      977.485    376.12109    15.703442   -642.87483   -627.17139    22309.771    46292.185    48766.004   -28128.875      15.2149      13.1765      28.7324    5760.2466 
  978000      977.985    377.39502    15.756629   -642.92549   -627.16886     21646.87    46263.685    51557.704   -32880.778      15.2149      13.1765      28.7324    5760.2466 
  978500      978.485    381.67608    15.935368   -643.10039   -627.16502    22412.063    48233.351    51206.676   -32203.838      15.2149      13.1765      28.7324    5760.2466 
  979000      978.985    381.23211    15.916832   -643.07819   -627.16135     23732.29    46335.497     55636.39   -30775.016      15.2149      13.1765      28.7324    5760.2466 
  979500      979.485    365.22125    15.248362   -642.40734   -627.15898    22824.982    52614.472    49102.268   -33241.794      15.2149      13.1765      28.7324    5760.2466 
  980000      979.985    350.93971    14.652093   -641.80694   -627.15485    24537.494    44955.129     52691.06   -24033.706      15.2149      13.1765      28.7324    5760.2466 
  980500      980.485     379.2064    15.832256   -642.98568   -627.15343    23034.758    47279.999    47855.526    -26031.25      15.2149      13.1765      28.7324    5760.2466 
  981000      980.985    406.85891    16.986777   -644.13769   -627.15091    22719.203    47170.889    53860.997   -32874.276      15.2149      13.1765      28.7324    5760.2466 
  981500      981.485    381.87786    15.943793   -643.09057   -627.14678    23710.231    43286.789      49877.1   -22033.196      15.2149      13.1765      28.7324    5760.2466 
  982000      981.985    391.23316    16.334386   -643.47688   -627.14249    23409.943      48640.1    49422.901    -27833.17      15.2149      13.1765      28.7324    5760.2466 
  982500      982.485    361.04825    15.074135   -642.21294    -627.1388    23427.504    42249.176    51347.842   -23314.507      15.2149      13.1765      28.7324    5760.2466 
  983000      982.985    384.87106    16.068762    -643.2052   -627.13644    23400.994    52414.664    50325.113   -32536.795      15.2149      13.1765      28.7324    5760.2466 
  983500      983.485    358.69455    14.975866   -642.10772   -627.13185     25186.38    47167.625    53494.495    -25102.98      15.2149      13.1765      28.7324    5760.2466 
  984000      983.985    392.81936    16.400612   -643.53219   -627.13158    21892.234    43840.064    52789.167   -30952.527      15.2149      13.1765      28.7324    5760.2466 
  984500      984.485    393.14542    16.414225   -643.54133    -627.1271    23190.309    43972.236    52441.945   -26843.254      15.2149      13.1765      28.7324    5760.2466 
  985000      984.985    389.43588    16.259348   -643.38273   -627.12338    23297.313    47183.324    54777.141   -32068.525      15.2149      13.1765      28.7324    5760.2466 
  985500      985.485    377.17201    15.747319   -642.86682    -627.1195    20294.193    43940.661    50983.423   -34041.505      15.2149      13.1765      28.7324    5760.2466 
  986000      985.985    359.08892    14.992331   -642.10713    -627.1148    20287.589    44128.642    48876.687   -32142.562      15.2149      13.1765      28.7324    5760.2466 
  986500      986.485    378.47286    15.801631   -642.91406   -627.11243    22030.222    48361.465    45768.083   -28038.881      15.2149      13.1765      28.7324    5760.2466 
  987000      986.985    386.60789    16.141276   -643.24989   -627.10862    21999.265        46974    46983.396     -27959.6      15.2149      13.1765      28.7324    5760.2466 
  987500      987.485    375.22788    15.666149   -642.77048   -627.10433    23372.427    48850.412    51608.022   -30341.154      15.2149      13.1765      28.7324    5760.2466 
  988000      987.985    399.88309    16.695529   -643.79788   -627.10235    23678.181    43941.959    51258.353    -24165.77      15.2149      13.1765      28.7324    5760.2466 
  988500      988.485    377.79632    15.773384   -642.86967   -627.09628    23925.173    47807.095    49762.406   -25793.982      15.2149      13.1765      28.7324    5760.2466 
  989000      988.985    384.86302    16.068426   -643.16326   -627.09483     22516.99    43968.478    54698.561    -31116.07      15.2149      13.1765      28.7324    5760.2466 
  989500      989.485      348.617    14.555118   -641.64405   -627.08893    21809.477    47072.715    50038.666   -31682.952      15.2149      13.1765      28.7324    5760.2466 
  990000      989.985    340.74995     14.22666    -641.3115   -627.08484    23528.136    45406.385    49684.854    -24506.83      15.2149      13.1765      28.7324    5760.2466 
  990500      990.485     368.3378    15.378481   -642.46144   -627.08296    25071.018    48326.193    55868.321   -28981.459      15.2149      13.1765      28.7324    5760.2466 
  991000      990.985    371.47402    15.509422   -642.58872    -627.0793    22525.381    44733.901    52209.692   -29367.451      15.2149      13.1765      28.7324    5760.2466 
  991500      991.485    377.89445    15.777481   -642.85314   -627.07566    23039.155    40500.119    54158.753   -25541.408      15.2149      13.1765      28.7324    5760.2466 
  992000      991.985    395.56788    16.515365   -643.58784   -627.07248    23559.097     47948.84    52852.084   -30123.632      15.2149      13.1765      28.7324    5760.2466 
  992500      992.485    393.43719    16.426407   -643.49414   -627.06773     25160.46    44557.397    53341.611   -22417.627      15.2149      13.1765      28.7324    5760.2466 
  993000      992.985    366.93342    15.319847   -642.38191   -627.06206    23239.289    48833.334     52608.58   -31724.046      15.2149      13.1765      28.7324    5760.2466 
  993500      993.485    345.31561    14.417281   -641.47499    -627.0577    22769.807    44736.445    53317.177   -29744.202      15.2149      13.1765      28.7324    5760.2466 
  994000      993.985    388.09294    16.203279   -643.25795   -627.05467    23902.597    45379.545    52019.772   -25691.528      15.2149      13.1765      28.7324    5760.2466 
  994500      994.485    378.91319    15.820015   -642.86995   -627.04994    22031.979    45943.366    51397.259   -31244.688      15.2149      13.1765      28.7324    5760.2466 
  995000      994.985    385.90566    16.111958   -643.15731   -627.04535    23667.018    47640.403    55613.744   -32253.093      15.2149      13.1765      28.7324    5760.2466 
  995500      995.485    357.26785      14.9163   -641.95927   -627.04297    22712.308    45982.085    50797.624   -28642.785      15.2149      13.1765      28.7324    5760.2466 
  996000      995.985    373.19384    15.581226   -642.62023   -627.03901    21339.779    41523.788    50828.194   -28332.647      15.2149      13.1765      28.7324    5760.2466 
  996500      996.485     371.4444    15.508185    -642.5432   -627.03502    21384.475    46130.781    54179.354    -36156.71      15.2149      13.1765      28.7324    5760.2466 
  997000      996.985    346.38278    14.461837   -641.49159   -627.02975    23009.653    44051.902    51182.193   -26205.138      15.2149      13.1765      28.7324    5760.2466 
  997500      997.485     371.7847    15.522393   -642.54851   -627.02611    22429.097    46815.329    52788.389   -32316.425      15.2149      13.1765      28.7324    5760.2466 
  998000      997.985    375.96356    15.696865    -642.7193   -627.02244    21986.959     44519.46    52251.248    -30809.83      15.2149      13.1765      28.7324    5760.2466 
  998500      998.485    361.82527    15.106577   -642.12274   -627.01616    23281.414    44010.115    54163.648   -28329.521      15.2149      13.1765      28.7324    5760.2466 
  999000      998.985    379.76183    15.855446   -642.86854   -627.01309    21858.322    47010.378     44728.26   -26163.671      15.2149      13.1765      28.7324    5760.2466 
  999500      999.485    392.74317    16.397431   -643.40708   -627.00965    23667.452    49646.708    52641.336   -31285.687      15.2149      13.1765      28.7324    5760.2466 
 1000000      999.985    369.49923    15.426972   -642.43103   -627.00406    24927.109    49830.598    53356.791   -28406.061      15.2149      13.1765      28.7324    5760.2466 
 1000015         1000    370.39567      15.4644   -642.46866   -627.00426    23691.622    47131.612    51347.829   -27404.574      15.2149      13.1765      28.7324    5760.2466 
Loop time of 921.68 on 28 procs for 1000000 steps with 324 atoms

Performance: 93.742 ns/day, 0.256 hours/ns, 1084.975 timesteps/s
88.3% CPU use with 28 MPI tasks x no OpenMP threads

MPI task timing breakdown:
Section |  min time  |  avg time  |  max time  |%varavg| %total
---------------------------------------------------------------
Pair    | 718.1      | 795.19     | 854.2      | 126.3 | 86.28
Neigh   | 0          | 0          | 0          |   0.0 |  0.00
Comm    | 55.718     | 113.31     | 189.97     | 335.9 | 12.29
Output  | 0.09863    | 0.10115    | 0.1209     |   1.2 |  0.01
Modify  | 5.0918     | 7.9692     | 16.916     | 128.3 |  0.86
Other   |            | 5.11       |            |       |  0.55

Nlocal:    11.5714 ave 15 max 5 min
Histogram: 1 0 3 2 1 3 0 7 2 9
Nghost:    640.179 ave 690 max 604 min
Histogram: 5 5 4 1 2 2 1 1 4 3
Neighs:    723.571 ave 1004 max 326 min
Histogram: 1 1 5 0 3 2 5 4 4 3
FullNghs:  1447.14 ave 1906 max 639 min
Histogram: 1 2 3 1 2 1 6 3 1 8

Total # of neighbors = 40520
Ave neighs/atom = 125.062
Neighbor list builds = 0
Dangerous builds = 0

write_restart   POSCAR_1x1x1.rest

#unfix    1
#undump   1
Total wall time: 0:15:21
