LAMMPS (7 Dec 2015)
#----------- Initialize Simulation ------------ restart01
#processors	2 2 2
units		metal
boundary	p p p     ## periodic boundary condition  on x y z axis ##
atom_style atomic
#atom_modify map array sort 0 0.0

read_data	POSCAR_1x1x1.lammps
  triclinic box = (0 0 0) to (15.2149 13.1765 28.7324) with tilt (-7.60743 0 0)
  2 by 2 by 7 MPI processor grid
  reading atoms ...
  324 atoms

#----------- Define Potential -----------------
pair_style meam
pair_coeff * * MgAlZn.library.meam Mg Al Zn MgAlZn.parameter.meam Mg Al Zn 	#1=Mg 2=Al 3=Zn	#atoms/mass

#----------- Neighbor List --------------------
neighbor 2.0 bin
neigh_modify delay 10 check yes

#--------------  Run a simulation (minimization) ---------------------------------------
minimize       1.0e-4   1.0e-6   100   1000          #結構優化的條件
WARNING: Resetting reneighboring criteria during minimization (../min.cpp:168)
Neighbor list info ...
  2 neighbor list requests
  update every 1 steps, delay 0 steps, check yes
  max neighbors/atom: 2000, page size: 100000
  master list distance cutoff = 8
  ghost atom cutoff = 8
  binsize = 4 -> bins = 6 4 8
Memory usage per processor = 8.65247 Mbytes
Step Temp E_pair E_mol TotEng Press 
       0            0   -504.34474            0   -504.34474     1977.891 
      12            0   -518.91203            0   -518.91203   -4858.0419 
Loop time of 0.022367 on 28 procs for 12 steps with 324 atoms

85.7% CPU use with 28 MPI tasks x no OpenMP threads

Minimization stats:
  Stopping criterion = energy tolerance
  Energy initial, next-to-last, final = 
        -504.344736433     -518.902155921     -518.912029837
  Force two-norm initial, final = 19.6492 4.49738
  Force max component initial, final = 2.55867 2.48635
  Final line search alpha, max atom move = 0.170678 0.424366
  Iterations, force evaluations = 12 24

MPI task timing breakdown:
Section |  min time  |  avg time  |  max time  |%varavg| %total
---------------------------------------------------------------
Pair    | 0.017718   | 0.018807   | 0.020349   |   0.4 | 84.08
Neigh   | 0          | 0          | 0          |   0.0 |  0.00
Comm    | 0.0012293  | 0.0026515  | 0.0037854  |   1.4 | 11.85
Output  | 0          | 0          | 0          |   0.0 |  0.00
Modify  | 0          | 0          | 0          |   0.0 |  0.00
Other   |            | 0.0009082  |            |       |  4.06

Nlocal:    11.5714 ave 15 max 7 min
Histogram: 1 4 3 0 0 4 6 3 2 5
Nghost:    659.964 ave 709 max 618 min
Histogram: 6 5 1 0 3 5 0 0 1 7
Neighs:    719.786 ave 980 max 434 min
Histogram: 1 4 3 1 4 4 1 5 1 4
FullNghs:  1439.57 ave 1888 max 870 min
Histogram: 1 4 3 0 4 1 5 3 2 5

Total # of neighbors = 40308
Ave neighs/atom = 124.407
Neighbor list builds = 0
Dangerous builds = 0
velocity all  create 393.0 4928459 #rot yes dist gaussian

#--------------  Run a simulation (Relaxation)  ----------------------------------------
fix  1  all  nvt   temp  393.0  393.0  100				#damping constant
#fix  2  all  npt   temp  393.0  393.0  50 iso 0.0 0.0 1000.0
#fix  2  all deform 1 x final 0 15.6906 y final 0 13.5884 z final 0 25.2339 xy final -7.8452 units lattice
#fix  3  all  npt   temp  393.0  393.0  50 z 0.0 0.0 1000.0

#variable b equal 1
#fix 2 all efield  0.0  0.0  v_b
#compute pot all pe/atom


#----------- Output --------------------------
thermo	 500
timestep  0.001		#1.0 fs
thermo_style	custom step time temp ke pe etotal press pxx pyy pzz lx ly lz vol

dump 1 all custom 10000 dump.eq id type x y z
dump_modify 1 sort  id

run        1000000	#10000	 ps
Neighbor list info ...
  2 neighbor list requests
  update every 1 steps, delay 10 steps, check yes
  max neighbors/atom: 2000, page size: 100000
  master list distance cutoff = 8
  ghost atom cutoff = 8
  binsize = 4 -> bins = 6 4 8
Memory usage per processor = 7.54321 Mbytes
Step Time Temp KinEng PotEng TotEng Press Pxx Pyy Pzz Lx Ly Lz Volume 
      12            0          393    16.408154   -518.91203   -502.50388   -1815.4918    20885.783    29862.104   -56194.363      15.2149      13.1765      28.7324    5760.2466 
     500        0.488    212.83662    8.8861476   -511.38458   -502.49843    2031.4148    24908.927    38752.297    -57566.98      15.2149      13.1765      28.7324    5760.2466 
    1000        0.988    233.94074     9.767266   -512.26608   -502.49882    785.68755    26373.688    33078.864   -57095.489      15.2149      13.1765      28.7324    5760.2466 
    1500        1.488     209.4805    8.7460261   -511.24381   -502.49778    1866.8755    24484.135    38468.192   -57351.701      15.2149      13.1765      28.7324    5760.2466 
    2000        1.988    211.03647    8.8109892   -511.30757   -502.49658    989.95127    26816.664    34267.343   -58114.154      15.2149      13.1765      28.7324    5760.2466 
    2500        2.488    219.49158    9.1639988   -511.66025   -502.49625    59.573801    25165.015    35303.418   -60289.711      15.2149      13.1765      28.7324    5760.2466 
    3000        2.988    218.23143    9.1113863   -511.60621   -502.49482    900.39521    26236.776    34816.175   -58351.766      15.2149      13.1765      28.7324    5760.2466 
    3500        3.488    215.36198    8.9915839   -511.48476   -502.49318    1246.9708    27000.937     37330.27   -60590.295      15.2149      13.1765      28.7324    5760.2466 
    4000        3.988    205.43515    8.5771284   -511.06883   -502.49171    194.70287    25810.411    36465.234   -61691.536      15.2149      13.1765      28.7324    5760.2466 
    4500        4.488    218.16108    9.1084492   -511.59817   -502.48972    258.78899    22740.909     37054.38   -59018.922      15.2149      13.1765      28.7324    5760.2466 
    5000        4.988    205.09905    8.5630959   -511.05028   -502.48719    1008.3234    27607.992      39376.2   -63959.221      15.2149      13.1765      28.7324    5760.2466 
    5500        5.488    226.53524    9.4580788   -511.94482   -502.48674    848.67247    24648.526    36516.476   -58618.984      15.2149      13.1765      28.7324    5760.2466 
    6000        5.988    220.40856    9.2022835   -511.68655   -502.48427    906.23907    27037.655    35084.186   -59403.124      15.2149      13.1765      28.7324    5760.2466 
    6500        6.488    229.04627    9.5629168   -512.04449   -502.48158    1245.9471    25946.926    37868.661   -60077.746      15.2149      13.1765      28.7324    5760.2466 
    7000        6.988    224.02775    9.3533885   -511.83183   -502.47844    385.59596    24397.457    35794.398   -59035.067      15.2149      13.1765      28.7324    5760.2466 
    7500        7.488    221.13142    9.2324638   -511.70813   -502.47567    1398.0839    29344.245    35067.301   -60217.294      15.2149      13.1765      28.7324    5760.2466 
    8000        7.988    220.71039    9.2148856   -511.68705   -502.47217    1208.0604     26469.53    34697.759   -57543.108      15.2149      13.1765      28.7324    5760.2466 
    8500        8.488    215.77919    9.0090029   -511.47707   -502.46806    2419.3782    27447.958    35819.689   -56009.512      15.2149      13.1765      28.7324    5760.2466 
    9000        8.988    216.63398    9.0446912   -511.51044   -502.46575     183.8384    24583.717     34770.26   -58802.462      15.2149      13.1765      28.7324    5760.2466 
    9500        9.488    222.31981    9.2820803   -511.74357   -502.46149    1041.4376    26903.675    35746.019   -59525.381      15.2149      13.1765      28.7324    5760.2466 
   10000        9.988    217.48557     9.080246   -511.53829   -502.45804    1721.5131    28221.188    36310.419   -59367.067      15.2149      13.1765      28.7324    5760.2466 
   10500       10.488    220.60535       9.2105   -511.66436   -502.45386    1567.8051    25689.416    36361.513   -57347.514      15.2149      13.1765      28.7324    5760.2466 
   11000       10.988    212.56452     8.874787   -511.32354   -502.44875    1498.4136    27048.822    32716.687   -55270.269      15.2149      13.1765      28.7324    5760.2466 
   11500       11.488    220.65935    9.2127543   -511.65762   -502.44486    1471.7584    24383.493    35234.678   -55202.895      15.2149      13.1765      28.7324    5760.2466 
   12000       11.988    212.69805    8.8803621   -511.31966    -502.4393    1716.7812    28063.646    36996.393   -59909.695      15.2149      13.1765      28.7324    5760.2466 
   12500       12.488    212.92414    8.8898016   -511.32405   -502.43425    15.885153    24566.836     35709.57   -60228.751      15.2149      13.1765      28.7324    5760.2466 
   13000       12.988    218.13216    9.1072417   -511.53694   -502.42969    1642.4416    27537.933    36663.487   -59274.095      15.2149      13.1765      28.7324    5760.2466 
   13500       13.488    209.67766    8.7542575   -511.17818   -502.42392   -108.09543    25449.847    33165.377    -58939.51      15.2149      13.1765      28.7324    5760.2466 
   14000       13.988    235.54955    9.8344356    -512.2539   -502.41946    561.11577    27999.782    33810.321   -60126.756      15.2149      13.1765      28.7324    5760.2466 
   14500       14.488    214.95526     8.974603   -511.38737   -502.41277    893.67308    25765.848    34259.297   -57344.126      15.2149      13.1765      28.7324    5760.2466 
   15000       14.988    228.51602    9.5407785   -511.94808    -502.4073     -397.616    25430.518    35303.414    -61926.78      15.2149      13.1765      28.7324    5760.2466 
   15500       15.488     212.8427    8.8864013   -511.28602   -502.39962    1006.1143    24294.403    37363.059   -58639.119      15.2149      13.1765      28.7324    5760.2466 
   16000       15.988    228.21443    9.5281868   -511.92225   -502.39407    706.74214    26179.595    34073.051   -58132.419      15.2149      13.1765      28.7324    5760.2466 
   16500       16.488    209.76366     8.757848   -511.14538   -502.38753    1220.0766    24680.044    37204.129   -58223.943      15.2149      13.1765      28.7324    5760.2466 
   17000       16.988    211.55781    8.8327557   -511.21259   -502.37984    2126.1545    28087.365    37504.191   -59213.092      15.2149      13.1765      28.7324    5760.2466 
   17500       17.488    215.80283    9.0099898   -511.38367   -502.37368    285.48469     24112.15    35749.801   -59005.496      15.2149      13.1765      28.7324    5760.2466 
   18000       17.988    209.72186    8.7561032   -511.12255   -502.36644    1676.4329    29029.418    37045.084   -61045.202      15.2149      13.1765      28.7324    5760.2466 
   18500       18.488    219.16813    9.1504944   -511.50897   -502.35848    -86.41594    26835.255    33670.488   -60764.991      15.2149      13.1765      28.7324    5760.2466 
   19000       18.988      213.581    8.9172262   -511.26825   -502.35102    877.80805     23361.19     34449.67   -55177.436      15.2149      13.1765      28.7324    5760.2466 
   19500       19.488       214.62    8.9606053   -511.30416   -502.34356    1472.7498    26040.242    36492.949   -58114.942      15.2149      13.1765      28.7324    5760.2466 
   20000       19.988    216.11018     9.022822    -511.3583   -502.33548    1497.7263    26836.361    36271.249   -58614.431      15.2149      13.1765      28.7324    5760.2466 
   20500       20.488    216.17904    9.0256968   -511.35273   -502.32703    721.35711    25729.282      35067.7   -58632.911      15.2149      13.1765      28.7324    5760.2466 
   21000       20.988    216.24369    9.0283963   -511.34713   -502.31874    1212.4898    25704.038    36709.796   -58776.365      15.2149      13.1765      28.7324    5760.2466 
   21500       21.488    211.13204    8.8149793   -511.12501   -502.31003    1407.5383    27431.898    35129.421   -58338.704      15.2149      13.1765      28.7324    5760.2466 
   22000       21.988    207.27906    8.6541134    -510.9552   -502.30108    1270.7224    28047.081    34590.095   -58825.009      15.2149      13.1765      28.7324    5760.2466 
   22500       22.488     207.2832    8.6542866   -510.94622   -502.29193    1379.8918    26840.722    37179.653     -59880.7      15.2149      13.1765      28.7324    5760.2466 
   23000       22.988    204.47685    8.5371182   -510.81967   -502.28255   -9.2796682    25770.377    35075.645   -60873.861      15.2149      13.1765      28.7324    5760.2466 
   23500       23.488    221.67205    9.2550358   -511.52933   -502.27429    1387.7215    28157.696    33350.311   -57344.842      15.2149      13.1765      28.7324    5760.2466 
   24000       23.988    208.80108    8.7176597   -510.98213   -502.26447     33.06534    26758.938    37287.832   -63947.574      15.2149      13.1765      28.7324    5760.2466 
   24500       24.488    215.01563    8.9771234   -511.23195   -502.25483    183.11206    26368.548    32473.971   -58293.183      15.2149      13.1765      28.7324    5760.2466 
   25000       24.988    220.13147    9.1907149   -511.43554   -502.24483    52.309301    24800.362    37801.718   -62445.152      15.2149      13.1765      28.7324    5760.2466 
   25500       25.488    206.79897    8.6340695   -510.86758   -502.23351    1943.8319    27456.739    31185.593   -52810.836      15.2149      13.1765      28.7324    5760.2466 
   26000       25.988    218.53555    9.1240835    -511.3488   -502.22471    618.11946    26359.054    32057.747   -56562.443      15.2149      13.1765      28.7324    5760.2466 
   26500       26.488    215.26129      8.98738   -511.20114   -502.21376   -526.89306    22074.351     32952.05   -56607.079      15.2149      13.1765      28.7324    5760.2466 
   27000       26.988    226.74563    9.4668627   -511.67118   -502.20432     533.6439    24265.859    34642.218   -57307.145      15.2149      13.1765      28.7324    5760.2466 
   27500       27.488     211.1409    8.8153493    -511.0079   -502.19255    1217.4917    29099.695    32759.819   -58207.038      15.2149      13.1765      28.7324    5760.2466 
   28000       27.988    224.41933    9.3697376   -511.55164    -502.1819    907.59064    21767.221    34306.524   -53350.973      15.2149      13.1765      28.7324    5760.2466 
   28500       28.488    215.51995    8.9981791   -511.16873   -502.17055    668.60925    23802.751    36162.752   -57959.675      15.2149      13.1765      28.7324    5760.2466 
   29000       28.988     226.5825    9.4600521   -511.61926   -502.15921    1477.1024    24608.153    37094.166   -57271.012      15.2149      13.1765      28.7324    5760.2466 
   29500       29.488    211.86599    8.8456226   -510.99346   -502.14784    1147.0365    25894.369    36200.186   -58653.445      15.2149      13.1765      28.7324    5760.2466 
   30000       29.988    213.18508    8.9006958   -511.03648   -502.13578    265.49879    26864.419    31334.785   -57402.707      15.2149      13.1765      28.7324    5760.2466 
   30500       30.488    224.70402    9.3816236   -511.50769   -502.12607    1452.8261    27009.496    31686.775   -54337.793      15.2149      13.1765      28.7324    5760.2466 
   31000       30.988    216.27245    9.0295969   -511.14286   -502.11327    972.75869    23984.088    32916.502   -53982.313      15.2149      13.1765      28.7324    5760.2466 
   31500       31.488    223.07364    9.3135536   -511.41618   -502.10262    1290.1207    26496.409    33892.007   -56518.054      15.2149      13.1765      28.7324    5760.2466 
   32000       31.988    217.86062    9.0959047   -511.18634   -502.09044    256.33551    23323.334    36051.217   -58605.545      15.2149      13.1765      28.7324    5760.2466 
   32500       32.488    227.61647    9.5032213   -511.58179   -502.07857    427.48444    24527.619    36827.741   -60072.907      15.2149      13.1765      28.7324    5760.2466 
   33000       32.988    208.87162    8.7206048   -510.78648   -502.06588   -873.88298    27675.442    33383.102   -63680.193      15.2149      13.1765      28.7324    5760.2466 
   33500       33.488    224.07151    9.3552158   -511.40902    -502.0538    2212.2033    27801.308    37044.093   -58208.791      15.2149      13.1765      28.7324    5760.2466 
   34000       33.988    213.21455    8.9019265   -510.94325   -502.04132    1542.3214    30014.885    35023.772   -60411.693      15.2149      13.1765      28.7324    5760.2466 
   34500       34.488    213.39386    8.9094129   -510.93831    -502.0289    1511.0986    28049.343    37585.433    -61101.48      15.2149      13.1765      28.7324    5760.2466 
   35000       34.988    205.02188     8.559874     -510.576   -502.01613    69.446984    28360.006    37105.718   -65257.383      15.2149      13.1765      28.7324    5760.2466 
   35500       35.488    215.46649     8.995947   -511.00078   -502.00483    2090.7834    26260.942    37637.249   -57625.841      15.2149      13.1765      28.7324    5760.2466 
   36000       35.988    224.64616    9.3792078   -511.37131    -501.9921    690.30249     28326.63    35558.034   -61813.757      15.2149      13.1765      28.7324    5760.2466 
   36500       36.488    219.45521    9.1624805    -511.1416   -501.97912    1063.1495    24471.318    35125.624   -56407.494      15.2149      13.1765      28.7324    5760.2466 
   37000       36.988    218.47771    9.1216689   -511.08778   -501.96611   -214.90573    23934.542    35212.397   -59791.656      15.2149      13.1765      28.7324    5760.2466 
   37500       37.488    216.85558    9.0539432   -511.00724    -501.9533    740.21286    25282.901    38103.961   -61166.224      15.2149      13.1765      28.7324    5760.2466 
   38000       37.988    228.59062    9.5438932   -511.48466   -501.94077    375.71247    23329.044    34630.855   -56832.762      15.2149      13.1765      28.7324    5760.2466 
   38500       38.488     222.6005    9.2937995   -511.22285   -501.92905    902.87881    26250.512    33490.163   -57032.039      15.2149      13.1765      28.7324    5760.2466 
   39000       38.988    209.52889    8.7480464   -510.66341   -501.91537    2635.4273    28554.761    38254.626   -58903.105      15.2149      13.1765      28.7324    5760.2466 
   39500       39.488    220.85815    9.2210545   -511.12366    -501.9026     -12.1735    24211.541     35966.09   -60214.151      15.2149      13.1765      28.7324    5760.2466 
   40000       39.988    227.28218    9.4892646   -511.37906   -501.88979    1668.3488    25316.401    33730.734   -54042.089      15.2149      13.1765      28.7324    5760.2466 
   40500       40.488    208.29489    8.6965257   -510.57241   -501.87589   -232.97255    25230.795    34393.309   -60323.021      15.2149      13.1765      28.7324    5760.2466 
   41000       40.988    229.09379    9.5649009   -511.42882   -501.86392    1881.4465    27180.106    35586.516   -57122.282      15.2149      13.1765      28.7324    5760.2466 
   41500       41.488    233.19813    9.7362614   -511.58691   -501.85065    579.90346    25727.322    36614.475   -60602.087      15.2149      13.1765      28.7324    5760.2466 
   42000       41.988    220.53285    9.2074729    -511.0451   -501.83763    425.19761    26542.686    32420.915   -57688.007      15.2149      13.1765      28.7324    5760.2466 
   42500       42.488     217.6588    9.0874785    -510.9118   -501.82432     587.1336    27032.836    35707.485    -60978.92      15.2149      13.1765      28.7324    5760.2466 
   43000       42.988    226.94876    9.4753436   -511.28796   -501.81262    267.34195    21821.554    36544.998   -57564.526      15.2149      13.1765      28.7324    5760.2466 
   43500       43.488    223.20104    9.3188727   -511.11867    -501.7998    1497.7272    26179.456    35954.255    -57640.53      15.2149      13.1765      28.7324    5760.2466 
   44000       43.988    210.68114    8.7961539   -510.58209   -501.78593    152.33185    24718.241     36759.85   -61021.095      15.2149      13.1765      28.7324    5760.2466 
   44500       44.488    225.13608    9.3996627   -511.17416    -501.7745    412.17735    26250.658    38123.499   -63137.624      15.2149      13.1765      28.7324    5760.2466 
   45000       44.988    215.04899    8.9785163   -510.73926   -501.76074    448.88141    24830.746    39294.157   -62778.258      15.2149      13.1765      28.7324    5760.2466 
   45500       45.488    222.35811    9.2836794   -511.03176   -501.74808   -105.88599    25310.685    36226.729   -61855.071      15.2149      13.1765      28.7324    5760.2466 
   46000       45.988    226.20525    9.4443015   -511.17999   -501.73569    19.613679     26496.18    33010.671   -59448.009      15.2149      13.1765      28.7324    5760.2466 
   46500       46.488    212.37164     8.866734   -510.58941   -501.72267    2060.0231    28089.008    39943.464   -61852.403      15.2149      13.1765      28.7324    5760.2466 
   47000       46.988    226.72659     9.466068    -511.1763   -501.71024     181.0195    25969.424     35391.27   -60817.635      15.2149      13.1765      28.7324    5760.2466 
   47500       47.488    221.52509    9.2489001   -510.94673   -501.69783    1587.1369    24146.223    38864.535   -58249.347      15.2149      13.1765      28.7324    5760.2466 
   48000       47.988    208.29459     8.696513   -510.38057   -501.68405     435.4077    26163.397     32807.48   -57664.654      15.2149      13.1765      28.7324    5760.2466 
   48500       48.488    215.16035    8.9831656    -510.6551   -501.67194    42.974874    28668.713    36113.935   -64653.723      15.2149      13.1765      28.7324    5760.2466 
   49000       48.988    218.62489    9.1278137   -510.78821    -501.6604    1376.0988    28794.276    37218.666   -61884.645      15.2149      13.1765      28.7324    5760.2466 
   49500       49.488    225.87089    9.4303416   -511.07805   -501.64771    1442.9258    23228.799    34245.319   -53145.341      15.2149      13.1765      28.7324    5760.2466 
   50000       49.988     223.9252    9.3491069   -510.98461   -501.63551    745.97397    27175.743    34433.412   -59371.233      15.2149      13.1765      28.7324    5760.2466 
   50500       50.488    221.97203    9.2675604   -510.89054   -501.62298     348.5418    26873.433    30408.468   -56236.276      15.2149      13.1765      28.7324    5760.2466 
   51000       50.988    224.85579    9.3879601   -510.99903   -501.61107    624.21664    26155.112    35251.304   -59533.766      15.2149      13.1765      28.7324    5760.2466 
   51500       51.488    217.85116    9.0955094   -510.69399   -501.59848     702.0021    24051.918    34325.982   -56271.894      15.2149      13.1765      28.7324    5760.2466 
   52000       51.988    242.25842    10.114538   -511.70251   -501.58797    1170.3299    25175.271    34395.115   -56059.397      15.2149      13.1765      28.7324    5760.2466 
   52500       52.488    228.10881    9.5237771   -511.09867    -501.5749    713.15879    25361.172    33580.392   -56802.087      15.2149      13.1765      28.7324    5760.2466 
   53000       52.988    225.51372    9.4154295   -510.97809   -501.56266    891.60924    23889.791    36306.289   -57521.252      15.2149      13.1765      28.7324    5760.2466 
   53500       53.488    224.72806    9.3826271   -510.93295   -501.55032     258.9718    24855.529    37333.397    -61412.01      15.2149      13.1765      28.7324    5760.2466 
   54000       53.988     230.4065     9.619708   -511.15925   -501.53955    568.80189    29455.207    34502.877   -62251.678      15.2149      13.1765      28.7324    5760.2466 
   54500       54.488    235.16311    9.8183014   -511.34601   -501.52771    854.47531    25124.282    32700.329   -55261.184      15.2149      13.1765      28.7324    5760.2466 
   55000       54.988    217.28489    9.0718671   -510.58745   -501.51558    949.85095    27180.911    31321.446   -55652.804      15.2149      13.1765      28.7324    5760.2466 
   55500       55.488    229.23845    9.5709406   -511.07549   -501.50454    1360.1028     25378.89    34283.624   -55582.206      15.2149      13.1765      28.7324    5760.2466 
   56000       55.988    219.21728    9.1525464   -510.64551   -501.49296    803.52775    25975.803    35838.768   -59403.988      15.2149      13.1765      28.7324    5760.2466 
   56500       56.488    230.19832    9.6110164   -511.09196   -501.48095    926.95307    23782.702    35859.872   -56861.714      15.2149      13.1765      28.7324    5760.2466 
   57000       56.988    231.17939     9.651977   -511.12286   -501.47088    724.33501    25614.956    36295.302   -59737.253      15.2149      13.1765      28.7324    5760.2466 
   57500       57.488    237.45952    9.9141788   -511.37326   -501.45908    353.84139    24680.044    37793.146   -61411.666      15.2149      13.1765      28.7324    5760.2466 
   58000       57.988     225.7251    9.4242546   -510.87249   -501.44823    1430.3956     26108.61    32376.404   -54193.828      15.2149      13.1765      28.7324    5760.2466 
   58500       58.488    229.41664    9.5783803   -511.01477   -501.43639    1584.0636    25354.807    36834.927   -57437.544      15.2149      13.1765      28.7324    5760.2466 
   59000       58.988     235.3468    9.8259704    -511.2519   -501.42593    458.40974     27799.78    33854.027   -60278.577      15.2149      13.1765      28.7324    5760.2466 
   59500       59.488    229.39495    9.5774746   -510.99204   -501.41457   -395.57446    24857.458    35397.124   -61441.306      15.2149      13.1765      28.7324    5760.2466 
   60000       59.988    225.35441    9.4087781   -510.81226   -501.40348    647.84907    26701.359    37586.195   -62344.006      15.2149      13.1765      28.7324    5760.2466 
   60500       60.488    231.82644    9.6789918   -511.07163   -501.39264    433.15301    22388.133    37118.241   -58206.915      15.2149      13.1765      28.7324    5760.2466 
   61000       60.988    233.58572    9.7524438   -511.13339   -501.38094    998.67004    29158.992    34732.888   -60895.871      15.2149      13.1765      28.7324    5760.2466 
   61500       61.488    241.27669    10.073549   -511.44404   -501.37049    788.39121    25326.488    37378.892   -60340.206      15.2149      13.1765      28.7324    5760.2466 
   62000       61.988    223.47398     9.330268    -510.6897   -501.35943    1765.7828    26881.805    36438.577   -58023.034      15.2149      13.1765      28.7324    5760.2466 
   62500       62.488    225.72769    9.4243628   -510.77226    -501.3479    1447.6191    28441.066    36030.359   -60128.568      15.2149      13.1765      28.7324    5760.2466 
   63000       62.988    250.37373     10.45336   -511.79155   -501.33819   -289.54999    22724.753    35894.254   -59487.657      15.2149      13.1765      28.7324    5760.2466 
   63500       63.488    237.52114    9.9167514   -511.24411   -501.32736    1905.7909    26728.889    38484.167   -59495.684      15.2149      13.1765      28.7324    5760.2466 
   64000       63.988    229.03661    9.5625138   -510.87903   -501.31652    149.70242     24220.43    37292.012   -61063.335      15.2149      13.1765      28.7324    5760.2466 
   64500       64.488    239.56506    10.002087   -511.30763   -501.30554    1081.1615    23630.096     34552.73   -54939.341      15.2149      13.1765      28.7324    5760.2466 
   65000       64.988    227.14412    9.4835004   -510.77891   -501.29541    180.53683    26105.721    35634.378   -61198.489      15.2149      13.1765      28.7324    5760.2466 
   65500       65.488    228.57527    9.5432523   -510.82802   -501.28477    1341.3192    29073.879    37434.227   -62484.148      15.2149      13.1765      28.7324    5760.2466 
   66000       65.988    232.83918    9.7212749   -510.99487   -501.27359    194.58045    27294.849    36692.889   -63403.997      15.2149      13.1765      28.7324    5760.2466 
   66500       66.488    244.33235    10.201126   -511.46415   -501.26302    1123.6116    24735.146    34973.885   -56338.196      15.2149      13.1765      28.7324    5760.2466 
   67000       66.988    231.84648    9.6798286   -510.93266   -501.25283   -149.15602     23699.76     34098.91   -58246.137      15.2149      13.1765      28.7324    5760.2466 
   67500       67.488    235.37121    9.8269899   -511.06869    -501.2417    506.08008    22802.347    33238.907   -54523.014      15.2149      13.1765      28.7324    5760.2466 
   68000       67.988    222.36061    9.2837838   -510.51464   -501.23085    459.02986    24153.764    37510.185   -60286.859      15.2149      13.1765      28.7324    5760.2466 
   68500       68.488    222.64144    9.2955089   -510.51648   -501.22097    2240.7147    28932.946    36112.042   -58322.844      15.2149      13.1765      28.7324    5760.2466 
   69000       68.988    240.91401    10.058407   -511.26933   -501.21093   -148.07338    22887.702    36450.326   -59782.248      15.2149      13.1765      28.7324    5760.2466 
   69500       69.488     219.3614    9.1585639     -510.358   -501.19943    1638.4858    27381.664    38246.524    -60712.73      15.2149      13.1765      28.7324    5760.2466 
   70000       69.988    229.88572    9.5979648   -510.78709   -501.18913    1608.6076    25874.188    35671.807   -56720.172      15.2149      13.1765      28.7324    5760.2466 
   70500       70.488    219.70734    9.1730071   -510.35115   -501.17814    2135.3618    28110.566    35903.173   -57607.653      15.2149      13.1765      28.7324    5760.2466 
   71000       70.988    228.73005    9.5497143   -510.71755   -501.16784    1232.4043    27122.489    36567.401   -59992.677      15.2149      13.1765      28.7324    5760.2466 
   71500       71.488    235.45592    9.8305265   -510.98838   -501.15786    1653.1031    28769.031    37521.354   -61331.076      15.2149      13.1765      28.7324    5760.2466 
   72000       71.988    241.68723     10.09069   -511.23704   -501.14635    977.25404     25643.78    35447.827   -58159.844      15.2149      13.1765      28.7324    5760.2466 
   72500       72.488    225.04134    9.3957069   -510.53109   -501.13538    1090.7957    25945.677    37968.047   -60641.336      15.2149      13.1765      28.7324    5760.2466 
   73000       72.988     228.0735    9.5223026   -510.64719   -501.12489     1683.488    27651.668    35936.079   -58537.283      15.2149      13.1765      28.7324    5760.2466 
   73500       73.488    236.53688    9.8756577    -510.9907   -501.11504    401.00456    25625.438    36019.868   -60442.293      15.2149      13.1765      28.7324    5760.2466 
   74000       73.988    231.46018    9.6637003   -510.76746   -501.10376    1860.4139    24761.722    35732.257   -54912.737      15.2149      13.1765      28.7324    5760.2466 
   74500       74.488    247.91596    10.350746   -511.44372   -501.09297    712.30041    25106.103    38295.118    -61264.32      15.2149      13.1765      28.7324    5760.2466 
   75000       74.988    226.87483     9.472257   -510.55404   -501.08179    1990.8067    28105.402    35076.311   -57209.292      15.2149      13.1765      28.7324    5760.2466 
   75500       75.488    240.23811    10.030188   -511.10236   -501.07217    599.96064     26536.96    34640.351   -59377.429      15.2149      13.1765      28.7324    5760.2466 
   76000       75.988    242.12359    10.108908   -511.16992   -501.06101   -662.97224    27936.928    32319.737   -62245.582      15.2149      13.1765      28.7324    5760.2466 
   76500       76.488    223.90222    9.3481477   -510.39851   -501.05036    1305.5116    29611.791    33091.441   -58786.697      15.2149      13.1765      28.7324    5760.2466 
   77000       76.988    230.84073    9.6378373   -510.67668   -501.03884    2093.2557    28729.369    34117.855   -56567.457      15.2149      13.1765      28.7324    5760.2466 
   77500       77.488    239.14242    9.9844417   -511.01308   -501.02864    2561.8729    26178.752     35222.93   -53716.064      15.2149      13.1765      28.7324    5760.2466 
   78000       77.988    229.86686    9.5971774   -510.61488    -501.0177    1405.8153    27075.348    37960.321   -60818.223      15.2149      13.1765      28.7324    5760.2466 
   78500       78.488    236.03032    9.8545084   -510.86166   -501.00715     942.6114    28475.475     35602.38    -61250.02      15.2149      13.1765      28.7324    5760.2466 
   79000       78.988    237.91724    9.9332889   -510.92915   -500.99586    685.83596    24194.431    35475.766   -57612.689      15.2149      13.1765      28.7324    5760.2466 
   79500       79.488    235.30107    9.8240613    -510.8089   -500.98484    297.77043    23913.784     33118.92   -56139.392      15.2149      13.1765      28.7324    5760.2466 
   80000       79.988    232.06442     9.688928   -510.66249   -500.97356    1938.6103    29217.483    32684.336   -56085.989      15.2149      13.1765      28.7324    5760.2466 
   80500       80.488    238.10192    9.9409998   -510.90331   -500.96231     1499.941    28352.834    36195.299   -60048.309      15.2149      13.1765      28.7324    5760.2466 
   81000       80.988    237.45045    9.9137999   -510.86517   -500.95137     135.4411    25338.465    33684.506   -58616.648      15.2149      13.1765      28.7324    5760.2466 
   81500       81.488    221.97275    9.2675904   -510.20756   -500.93997    1055.0869    27665.573    31855.143   -56355.455      15.2149      13.1765      28.7324    5760.2466 
   82000       81.988    241.41215    10.079205   -511.00791    -500.9287     1268.543    26788.821    36986.252   -59969.444      15.2149      13.1765      28.7324    5760.2466 
   82500       82.488    225.19362    9.4020649   -510.31939   -500.91732    2157.8418    27969.177      36646.4   -58142.052      15.2149      13.1765      28.7324    5760.2466 
   83000       82.988    235.22836    9.8210254   -510.72746   -500.90644    958.63671    29674.016    32421.841   -59219.947      15.2149      13.1765      28.7324    5760.2466 
   83500       83.488    244.04668    10.189199   -511.08521   -500.89602   -36.805941    26516.649    35034.583    -61661.65      15.2149      13.1765      28.7324    5760.2466 
   84000       83.988    243.46822    10.165048   -511.04941   -500.88436    1488.8244    25727.724     38748.45     -60009.7      15.2149      13.1765      28.7324    5760.2466 
   84500       84.488    252.25582    10.531939   -511.40461   -500.87268    1159.7793    25425.131    34705.437    -56651.23      15.2149      13.1765      28.7324    5760.2466 
   85000       84.988    238.41279    9.9539789    -510.8144   -500.86042    1409.9565    27635.595    37776.235   -61181.961      15.2149      13.1765      28.7324    5760.2466 
   85500       85.488    238.75512    9.9682714    -510.8178   -500.84953    525.50968    25877.743    33855.734   -58156.947      15.2149      13.1765      28.7324    5760.2466 
   86000       85.988    225.00632    9.3942449   -510.23103   -500.83679    2389.3917    28334.977    34772.762   -55939.564      15.2149      13.1765      28.7324    5760.2466 
   86500       86.488    244.94259    10.226605   -511.05259   -500.82599    747.37461    25754.205    37806.741   -61318.822      15.2149      13.1765      28.7324    5760.2466 
   87000       86.988    243.46403    10.164873   -510.97887     -500.814    1400.4526     28865.32    34482.139   -59146.101      15.2149      13.1765      28.7324    5760.2466 
   87500       87.488    231.13255    9.6500212   -510.45219   -500.80217    701.97524    24283.308    33716.819   -55894.201      15.2149      13.1765      28.7324    5760.2466 
   88000       87.988    229.84455     9.596246   -510.38662   -500.79038    1099.0642    26825.701    35457.099   -58985.607      15.2149      13.1765      28.7324    5760.2466 
   88500       88.488      239.133    9.9840484   -510.76218   -500.77813    1063.8613    27737.678    36537.504   -61083.598      15.2149      13.1765      28.7324    5760.2466 
   89000       88.988    225.42629     9.411779   -510.17756   -500.76578    1485.5238    25894.203    38043.134   -59480.766      15.2149      13.1765      28.7324    5760.2466 
   89500       89.488    224.99536    9.3937874    -510.1481   -500.75431    2566.6584    26560.089    37750.553   -56610.667      15.2149      13.1765      28.7324    5760.2466 
   90000       89.988    234.70386    9.7991272   -510.54156   -500.74243    1331.7155    24353.147    36967.219    -57325.22      15.2149      13.1765      28.7324    5760.2466 
   90500       90.488    226.25649    9.4464407   -510.17695   -500.73051     1731.034    26592.936     35149.45   -56549.284      15.2149      13.1765      28.7324    5760.2466 
   91000       90.988    229.96981    9.6014757   -510.31891   -500.71743    1263.0599    26467.823    34515.701   -57194.344      15.2149      13.1765      28.7324    5760.2466 
   91500       91.488    240.68122    10.048688   -510.75544   -500.70675    2249.0596    27496.445    36104.641   -56853.907      15.2149      13.1765      28.7324    5760.2466 
   92000       91.988    232.82567    9.7207108   -510.41456   -500.69385    477.39147    25211.307    40519.754   -64298.887      15.2149      13.1765      28.7324    5760.2466 
   92500       92.488    233.33583    9.7420107   -510.42392   -500.68191    883.27083    24265.092    38210.091   -59825.371      15.2149      13.1765      28.7324    5760.2466 
   93000       92.988    228.53714    9.5416603   -510.21072   -500.66906    2216.5857    26845.251    38475.196    -58670.69      15.2149      13.1765      28.7324    5760.2466 
   93500       93.488    232.85571     9.721965   -510.37877   -500.65681    923.99469    27526.938    34024.082   -58779.036      15.2149      13.1765      28.7324    5760.2466 
   94000       93.988    234.09212    9.7735863   -510.41708    -500.6435    65.012583    26750.182    36031.039   -62586.183      15.2149      13.1765      28.7324    5760.2466 
   94500       94.488    237.19851    9.9032812   -510.53468   -500.63139    201.21961    26007.631    34341.329   -59745.301      15.2149      13.1765      28.7324    5760.2466 
   95000       94.988     238.7303    9.9672351   -510.58601   -500.61878    1344.4977    25476.239     36367.12   -57809.866      15.2149      13.1765      28.7324    5760.2466 
   95500       95.488    227.84236    9.5126525   -510.11799   -500.60533    1025.2266     25714.15    37947.373   -60585.844      15.2149      13.1765      28.7324    5760.2466 
   96000       95.988    245.51586    10.250539   -510.84398   -500.59344    1050.5362    26698.046    38737.039   -62283.477      15.2149      13.1765      28.7324    5760.2466 
   96500       96.488    233.98189    9.7689841   -510.34929   -500.58031    2252.1718    29674.594     38455.56   -61373.639      15.2149      13.1765      28.7324    5760.2466 
   97000       96.988    255.94904    10.686135   -511.25461   -500.56848    2432.0694    30598.877    32792.547   -56095.216      15.2149      13.1765      28.7324    5760.2466 
   97500       97.488    234.24587    9.7800055   -510.33475   -500.55474    1283.3549    24415.542    38139.812    -58705.29      15.2149      13.1765      28.7324    5760.2466 
   98000       97.988    253.90388    10.600748   -511.14321   -500.54247    1487.8378    28987.678    33427.655    -57951.82      15.2149      13.1765      28.7324    5760.2466 
   98500       98.488     235.5159    9.8330308   -510.36197   -500.52894     2137.064    25667.418    38851.264   -58107.489      15.2149      13.1765      28.7324    5760.2466 
   99000       98.988      232.422    9.7038572   -510.21932   -500.51547    561.60932    27428.827    35379.917   -61123.915      15.2149      13.1765      28.7324    5760.2466 
   99500       99.488     249.1242    10.401191   -510.90402   -500.50282    2430.3945    26610.141     39283.94   -58602.897      15.2149      13.1765      28.7324    5760.2466 
  100000       99.988    239.00844     9.978848    -510.4685   -500.48965    617.89245    27211.051    36228.925   -61586.299      15.2149      13.1765      28.7324    5760.2466 
  100500      100.488    234.18809    9.7775932   -510.25335   -500.47576    2189.3378    29786.871    34512.805   -57731.662      15.2149      13.1765      28.7324    5760.2466 
  101000      100.988    242.67681    10.132006   -510.59487   -500.46286    945.74077    28828.983    33201.462   -59193.223      15.2149      13.1765      28.7324    5760.2466 
  101500      101.488    252.45485    10.540249   -510.98985    -500.4496    1204.4863    25494.583    33525.457   -55406.581      15.2149      13.1765      28.7324    5760.2466 
  102000      101.988    238.20334     9.945234   -510.38129   -500.43605     1894.259    28387.007     33775.09   -56479.321      15.2149      13.1765      28.7324    5760.2466 
  102500      102.488    242.51111    10.125088   -510.54733   -500.42224    1621.8367    31192.347    34378.965   -60705.802      15.2149      13.1765      28.7324    5760.2466 
  103000      102.988    236.12951    9.8586496   -510.26728   -500.40863    1765.3148     29524.44    37517.684    -61746.18      15.2149      13.1765      28.7324    5760.2466 
  103500      103.488    245.48312    10.249172   -510.64458   -500.39541    915.88957     25518.42    35624.978    -58395.73      15.2149      13.1765      28.7324    5760.2466 
  104000      103.988    239.72442    10.008741   -510.38983   -500.38109    1671.7035    28433.186    33888.305    -57306.38      15.2149      13.1765      28.7324    5760.2466 
  104500      104.488    239.30762    9.9913387   -510.35904    -500.3677    88.953948    22338.606    35453.093   -57524.837      15.2149      13.1765      28.7324    5760.2466 
  105000      104.988    233.69009    9.7568011   -510.11054   -500.35374    1129.0119    25466.148     37528.76   -59607.872      15.2149      13.1765      28.7324    5760.2466 
  105500      105.488     247.4243    10.330219   -510.67041   -500.34019    2237.3769    27973.441    36467.626   -57728.936      15.2149      13.1765      28.7324    5760.2466 
  106000      105.988    248.38452    10.370309    -510.6973   -500.32699    1721.7622    24308.679     34537.78   -53681.172      15.2149      13.1765      28.7324    5760.2466 
  106500      106.488    237.58592    9.9194562   -510.23094   -500.31148    660.35693    24519.388    37200.345   -59738.662      15.2149      13.1765      28.7324    5760.2466 
  107000      106.988     237.5738    9.9189502   -510.21644   -500.29749    1222.2986    24618.911    37418.105    -58370.12      15.2149      13.1765      28.7324    5760.2466 
  107500      107.488    243.75183    10.176889   -510.46014   -500.28325    870.81202    27033.514    37784.276   -62205.355      15.2149      13.1765      28.7324    5760.2466 
  108000      107.988    241.44281    10.080485   -510.35024   -500.26976    1386.4854    27971.311    36855.531   -60667.386      15.2149      13.1765      28.7324    5760.2466 
  108500      108.488     232.4933    9.7068339   -509.96221   -500.25537   -55.454212    26347.588    36833.682   -63347.632      15.2149      13.1765      28.7324    5760.2466 
  109000      108.988     241.6993    10.091194   -510.33224   -500.24105    1133.7456    28798.146    35301.834   -60698.743      15.2149      13.1765      28.7324    5760.2466 
  109500      109.488    251.66136     10.50712   -510.73412     -500.227    1811.7248    25422.793    35249.268   -55236.887      15.2149      13.1765      28.7324    5760.2466 
  110000      109.988    239.61501    10.004173    -510.2171   -500.21293    1130.0672    27676.467    32471.756   -56758.022      15.2149      13.1765      28.7324    5760.2466 
  110500      110.488    244.42977    10.205194   -510.40366   -500.19847    1527.6318    26306.265    34065.603   -55788.972      15.2149      13.1765      28.7324    5760.2466 
  111000      110.988     233.6531    9.7552569   -509.93918   -500.18393    1309.5281    26133.364    37444.663   -59649.443      15.2149      13.1765      28.7324    5760.2466 
  111500      111.488    239.03431    9.9799278   -510.14916   -500.16923    700.68176    26922.123    35394.486   -60214.563      15.2149      13.1765      28.7324    5760.2466 
  112000      111.988    251.97667    10.520285   -510.67584   -500.15555    2101.1412    27398.541    36575.022    -57670.14      15.2149      13.1765      28.7324    5760.2466 
  112500      112.488    244.82548    10.221715   -510.36251    -500.1408    811.50337    26734.967    36968.662   -61269.118      15.2149      13.1765      28.7324    5760.2466 
  113000      112.988    259.71175    10.843232   -510.97025   -500.12701    1201.0331    25762.717    37287.286   -59446.903      15.2149      13.1765      28.7324    5760.2466 
  113500      113.488     246.8466    10.306099   -510.41698   -500.11088    1482.1875    25700.709    32948.261   -54202.408      15.2149      13.1765      28.7324    5760.2466 
  114000      113.988    238.34371    9.9510947   -510.04794   -500.09684    1778.5331    27376.954    36533.475   -58574.829      15.2149      13.1765      28.7324    5760.2466 
  114500      114.488     243.2193    10.154655   -510.23654   -500.08188    598.49077    26287.995    35436.772   -59929.294      15.2149      13.1765      28.7324    5760.2466 
  115000      114.988    256.07753      10.6915   -510.75894   -500.06744    2598.9739    27892.515    38553.116   -58648.709      15.2149      13.1765      28.7324    5760.2466 
  115500      115.488    235.12553    9.8167323   -509.86923    -500.0525    3170.0225    25652.253    38149.011   -54291.196      15.2149      13.1765      28.7324    5760.2466 
  116000      115.988    252.00387     10.52142   -510.55922    -500.0378    1232.1646    28610.124    34644.269   -59557.899      15.2149      13.1765      28.7324    5760.2466 
  116500      116.488    255.86823    10.682761   -510.70667   -500.02391     1442.374    28055.817    39004.341   -62733.035      15.2149      13.1765      28.7324    5760.2466 
  117000      116.988    249.88439     10.43293   -510.44135   -500.00842    1561.7948    28191.526    37891.415   -61397.557      15.2149      13.1765      28.7324    5760.2466 
  117500      117.488    251.55458    10.502662   -510.49655   -499.99389    1954.8111    25497.118    37585.857   -57218.541      15.2149      13.1765      28.7324    5760.2466 
  118000      117.988    252.88697    10.558291   -510.53728   -499.97899    1450.3109    28312.404    33553.787   -57515.258      15.2149      13.1765      28.7324    5760.2466 
  118500      118.488    254.08295    10.608224   -510.57197   -499.96375    278.53685    29763.017    34652.995   -63580.402      15.2149      13.1765      28.7324    5760.2466 
  119000      118.988    254.46961    10.624367   -510.57256   -499.94819    2226.3612    28421.961    37719.785   -59462.663      15.2149      13.1765      28.7324    5760.2466 
  119500      119.488    241.27416    10.073444    -510.0064   -499.93296     1256.798    23953.991    39363.285   -59546.883      15.2149      13.1765      28.7324    5760.2466 
  120000      119.988    250.82684    10.472278   -510.39102   -499.91874    2784.7264    27894.464    40625.052   -60165.337      15.2149      13.1765      28.7324    5760.2466 
  120500      120.488    263.99517    11.022069   -510.92599   -499.90392    1342.4704    26317.243    35923.871   -58213.703      15.2149      13.1765      28.7324    5760.2466 
  121000      120.988    261.19298    10.905075   -510.79416   -499.88909    1863.1389    26409.002    34243.096   -55062.682      15.2149      13.1765      28.7324    5760.2466 
  121500      121.488    243.24427    10.155698   -510.02898   -499.87328    2231.2006    29758.137    37585.286   -60649.822      15.2149      13.1765      28.7324    5760.2466 
  122000      121.988    245.81587    10.263065   -510.12165   -499.85858    2220.1787    26833.727    36764.647   -56937.838      15.2149      13.1765      28.7324    5760.2466 
  122500      122.488    247.56568    10.336122   -510.17872    -499.8426    419.83929    27928.163    38727.564    -65396.21      15.2149      13.1765      28.7324    5760.2466 
  123000      122.988     258.2814    10.783513    -510.6117   -499.82819    1123.2937    25842.037    35878.435   -58350.591      15.2149      13.1765      28.7324    5760.2466 
  123500      123.488    249.00631    10.396269   -510.20836   -499.81209    1240.1229    25767.208    38391.785   -60438.624      15.2149      13.1765      28.7324    5760.2466 
  124000      123.988    248.02932    10.355479   -510.15251   -499.79703    1840.9517    28019.252    42064.929   -64561.326      15.2149      13.1765      28.7324    5760.2466 
  124500      124.488    255.34068    10.660736   -510.44229   -499.78156    1080.9206    28463.806    36443.098   -61664.143      15.2149      13.1765      28.7324    5760.2466 
  125000      124.988    247.20776    10.321178   -510.08773   -499.76655    947.20084    27279.601    36282.304   -60720.302      15.2149      13.1765      28.7324    5760.2466 
  125500      125.488    246.90786    10.308657   -510.05999   -499.75133    693.92504    30287.288     34342.26   -62547.772      15.2149      13.1765      28.7324    5760.2466 
  126000      125.988    243.30297    10.158149   -509.89355    -499.7354     2097.593     27052.11     40168.43   -60927.761      15.2149      13.1765      28.7324    5760.2466 
  126500      126.488    236.50558    9.8743509   -509.59434   -499.71999    2750.5163    27642.545    38140.093   -57531.089      15.2149      13.1765      28.7324    5760.2466 
  127000      126.988    249.06521    10.398728   -510.10433    -499.7056    1689.9886     26201.92    36273.645   -57405.599      15.2149      13.1765      28.7324    5760.2466 
  127500      127.488    232.49027    9.7067074   -509.39593   -499.68923    1500.0655    28730.138    36297.635   -60527.576      15.2149      13.1765      28.7324    5760.2466 
  128000      127.988    248.71066    10.383925   -510.05818   -499.67425    1069.1511    26820.126    38019.119   -61631.792      15.2149      13.1765      28.7324    5760.2466 
  128500      128.488    248.88735    10.391302   -510.05016   -499.65885    2061.2115    26363.068    35775.944   -55955.378      15.2149      13.1765      28.7324    5760.2466 
  129000      128.988     259.0974    10.817583     -510.461   -499.64342    1517.0354    26557.247    35657.875   -57664.017      15.2149      13.1765      28.7324    5760.2466 
  129500      129.488    249.11848    10.400952   -510.02936   -499.62841     2926.106    27371.385    35499.849   -54092.916      15.2149      13.1765      28.7324    5760.2466 
  130000      129.988    259.53693    10.835933   -510.44968   -499.61375    2012.2458    26142.908    39145.542   -59251.712      15.2149      13.1765      28.7324    5760.2466 
  130500      130.488     256.2771    10.699832    -510.2969   -499.59707    1972.7365    27976.748    36374.287   -58432.825      15.2149      13.1765      28.7324    5760.2466 
  131000      130.988    258.43251    10.789823   -510.37172   -499.58189    3188.3296    27386.912    41033.307   -58855.231      15.2149      13.1765      28.7324    5760.2466 
  131500      131.488    251.84372    10.514734   -510.07973     -499.565    2616.5917    25827.551    37914.253   -55892.028      15.2149      13.1765      28.7324    5760.2466 
  132000      131.988    242.57176     10.12762    -509.6774   -499.54978    1769.0165    25314.748    39852.275   -59859.973      15.2149      13.1765      28.7324    5760.2466 
  132500      132.488    265.19794    11.072286   -510.60708    -499.5348    1413.6704    27568.052    35528.682   -58855.722      15.2149      13.1765      28.7324    5760.2466 
  133000      132.988    256.73243    10.718842   -510.23814    -499.5193    2310.7123    28155.652    38425.934   -59649.449      15.2149      13.1765      28.7324    5760.2466 
  133500      133.488     250.8105    10.471596   -509.97488   -499.50328    1510.6744     27091.25     40603.79   -63163.017      15.2149      13.1765      28.7324    5760.2466 
  134000      133.988    252.82812    10.555834   -510.04452   -499.48869    2066.5773    27465.947    38929.191   -60195.406      15.2149      13.1765      28.7324    5760.2466 
  134500      134.488    246.80048    10.304173   -509.77731   -499.47313    1656.6268    24983.378    41713.184   -61726.682      15.2149      13.1765      28.7324    5760.2466 
  135000      134.988    251.87339    10.515973   -509.97296   -499.45699    2202.0911    26687.456    37581.665   -57662.848      15.2149      13.1765      28.7324    5760.2466 
  135500      135.488    257.07383    10.733097    -510.1738   -499.44071    893.63157    25861.625     38069.58    -61250.31      15.2149      13.1765      28.7324    5760.2466 
  136000      135.988    251.10191    10.483763   -509.90986    -499.4261    1089.3184    26047.921    38791.434     -61571.4      15.2149      13.1765      28.7324    5760.2466 
  136500      136.488    250.54756    10.460618   -509.87058   -499.40997    1671.8101    27125.646    35902.249   -58012.465      15.2149      13.1765      28.7324    5760.2466 
  137000      136.988    258.25067    10.782231   -510.17689   -499.39466    1173.6631    25936.599    38094.567   -60510.177      15.2149      13.1765      28.7324    5760.2466 
  137500      137.488    236.89947    9.8907962   -509.26804   -499.37725    2749.8706    25434.582    40751.907   -57936.877      15.2149      13.1765      28.7324    5760.2466 
  138000      137.988     266.6708     11.13378   -510.49708    -499.3633    1945.4753     29889.13    38695.259   -62747.962      15.2149      13.1765      28.7324    5760.2466 
  138500      138.488    261.41164    10.914204   -510.26167   -499.34747    2289.7197    28626.069    36956.854   -58713.764      15.2149      13.1765      28.7324    5760.2466 
  139000      138.988    255.45451    10.665488   -509.99659    -499.3311    2098.7051    24417.235    43253.482   -61374.601      15.2149      13.1765      28.7324    5760.2466 
  139500      139.488    267.43804    11.165813   -510.48135   -499.31554    2445.0873    26567.544    39407.398    -58639.68      15.2149      13.1765      28.7324    5760.2466 
  140000      139.988    251.44133    10.497934   -509.79761   -499.29968    1927.5908    30426.405    36140.862   -60784.495      15.2149      13.1765      28.7324    5760.2466 
  140500      140.488    256.52492    10.710179    -509.9945   -499.28432    1725.5953    27681.094    35243.726   -57748.034      15.2149      13.1765      28.7324    5760.2466 
  141000      140.988    264.68125    11.050714   -510.31989   -499.26918     1997.828    24597.021    38724.049   -57327.586      15.2149      13.1765      28.7324    5760.2466 
  141500      141.488    258.60769    10.797137   -510.04938   -499.25225    1898.6766    30482.311    35993.126   -60779.407      15.2149      13.1765      28.7324    5760.2466 
  142000      141.988    260.41869    10.872748   -510.10914   -499.23639    999.56004    26353.481     33997.24   -57352.041      15.2149      13.1765      28.7324    5760.2466 
  142500      142.488    263.56123    11.003952   -510.22503   -499.22108    1470.4289    29969.807    34342.321   -59900.841      15.2149      13.1765      28.7324    5760.2466 
  143000      142.988    265.21338    11.072931    -510.2768   -499.20387    923.70088    28092.892    35703.228   -61025.018      15.2149      13.1765      28.7324    5760.2466 
  143500      143.488    253.70567    10.592472   -509.78143   -499.18896     2226.847    26981.979    41911.384   -62212.822      15.2149      13.1765      28.7324    5760.2466 
  144000      143.988    257.32045    10.743393   -509.91535   -499.17196    1782.3501    28397.626    38305.742   -61356.318      15.2149      13.1765      28.7324    5760.2466 
  144500      144.488    256.03924    10.689901   -509.84641   -499.15651    2640.0872     27296.83    35598.918   -54975.486      15.2149      13.1765      28.7324    5760.2466 
  145000      144.988    249.74437    10.427084   -509.56812   -499.14104    1785.5755    28157.181    36906.162   -59706.616      15.2149      13.1765      28.7324    5760.2466 
  145500      145.488       258.02      10.7726    -509.8985    -499.1259    2493.5814    26027.717    41124.686   -59671.658      15.2149      13.1765      28.7324    5760.2466 
  146000      145.988    250.89005    10.474917   -509.58475   -499.10983    1967.6453    28391.877     36716.05   -59204.992      15.2149      13.1765      28.7324    5760.2466 
  146500      146.488    256.38466    10.704323   -509.79718   -499.09286    1659.2128    28345.044    38289.149   -61656.554      15.2149      13.1765      28.7324    5760.2466 
  147000      146.988    254.92518    10.643388   -509.72048   -499.07709    2381.5346    30512.417    31725.724   -55093.538      15.2149      13.1765      28.7324    5760.2466 
  147500      147.488    257.77014    10.762168   -509.82306   -499.06089    3270.5682    27306.273    39968.335   -57462.904      15.2149      13.1765      28.7324    5760.2466 
  148000      147.988    259.29757     10.82594   -509.86998   -499.04404    1277.0934    29903.227    33791.105   -59863.052      15.2149      13.1765      28.7324    5760.2466 
  148500      148.488    253.69223    10.591911   -509.61967   -499.02776    3017.1025    24984.762     41814.49   -57747.944      15.2149      13.1765      28.7324    5760.2466 
  149000      148.988    264.21521    11.031256   -510.04356   -499.01231    2537.4576    27044.279    37079.423   -56511.329      15.2149      13.1765      28.7324    5760.2466 
  149500      149.488     244.9901    10.228588   -509.22387   -498.99528    2265.8406    28684.678     37381.19   -59268.346      15.2149      13.1765      28.7324    5760.2466 
  150000      149.988    261.38816    10.913224   -509.89256   -498.97934    1671.9029    28734.402    36335.899   -60054.593      15.2149      13.1765      28.7324    5760.2466 
  150500      150.488    258.53801    10.794227   -509.75772    -498.9635     1213.312    29747.129     36158.67   -62265.863      15.2149      13.1765      28.7324    5760.2466 
  151000      150.988    267.49276    11.168098   -510.11571   -498.94761    1493.4899    30715.656    33966.543    -60201.73      15.2149      13.1765      28.7324    5760.2466 
  151500      151.488    267.50965    11.168802   -510.10073   -498.93193    2837.3631    25949.773    37059.225   -54496.909      15.2149      13.1765      28.7324    5760.2466 
  152000      151.988     249.1736    10.403254   -509.31696   -498.91371     1997.187    25825.628    38961.235   -58795.302      15.2149      13.1765      28.7324    5760.2466 
  152500      152.488     250.9461    10.477257   -509.37577   -498.89852    1802.5387     28826.51    37319.025   -60737.919      15.2149      13.1765      28.7324    5760.2466 
  153000      152.988    277.57647    11.589103   -510.47143   -498.88233    3135.3538     27821.85    34018.539   -52434.327      15.2149      13.1765      28.7324    5760.2466 
  153500      153.488    261.47561    10.916875   -509.78278    -498.8659    2327.8462    30763.454    31840.098   -55620.014      15.2149      13.1765      28.7324    5760.2466 
  154000      153.988    247.51954    10.334195   -509.18337   -498.84917    1853.0386    25674.433    38417.763   -58533.079      15.2149      13.1765      28.7324    5760.2466 
  154500      154.488    261.66834    10.924922   -509.75801   -498.83309    1849.5175     30922.86    38804.986   -64179.294      15.2149      13.1765      28.7324    5760.2466 
  155000      154.988    255.82531    10.680969   -509.49747    -498.8165    1066.2211    27933.738    39995.469   -64730.544      15.2149      13.1765      28.7324    5760.2466 
  155500      155.488    278.03172     11.60811    -510.4086   -498.80049     2369.156     24941.92    35366.255   -53200.707      15.2149      13.1765      28.7324    5760.2466 
  156000      155.988    258.42906    10.789679   -509.57315   -498.78348     2310.596    31693.008    41773.593   -66534.812      15.2149      13.1765      28.7324    5760.2466 
  156500      156.488    267.00046    11.147543   -509.91437   -498.76682    1905.8685    30416.246    39707.842   -64406.482      15.2149      13.1765      28.7324    5760.2466 
  157000      156.988    264.46042    11.041494   -509.79189   -498.75039    665.46193    26112.896    35391.495   -59508.005      15.2149      13.1765      28.7324    5760.2466 
  157500      157.488      258.375    10.787422   -509.52129   -498.73387     2021.385     28038.01    38361.296   -60335.151      15.2149      13.1765      28.7324    5760.2466 
  158000      157.988    252.87137    10.557639   -509.27482   -498.71718    804.53172    25563.299    39254.225   -62403.929      15.2149      13.1765      28.7324    5760.2466 
  158500      158.488    263.43041     10.99849   -509.70005   -498.70156    1803.8059    27627.128    37517.612   -59733.322      15.2149      13.1765      28.7324    5760.2466 
  159000      158.988    260.68769    10.883979   -509.56932   -498.68534    2424.6292    25807.745    41416.389   -59950.246      15.2149      13.1765      28.7324    5760.2466 
  159500      159.488    243.71419    10.175318   -508.84277   -498.66745    1991.6706    25040.306    41092.849   -60158.143      15.2149      13.1765      28.7324    5760.2466 
  160000      159.988    272.70999    11.385922   -510.03803   -498.65211    1431.6292    28313.715    35760.564   -59779.392      15.2149      13.1765      28.7324    5760.2466 
  160500      160.488    264.20838    11.030971   -509.66619   -498.63522    2562.7228    29435.883    40264.043   -62011.758      15.2149      13.1765      28.7324    5760.2466 
  161000      160.988    263.15854    10.987139   -509.60565   -498.61851    2909.9704    29354.113    33619.348    -54243.55      15.2149      13.1765      28.7324    5760.2466 
  161500      161.488     271.0859    11.318115   -509.92077   -498.60266    1284.2414    27070.467    40575.315   -63793.059      15.2149      13.1765      28.7324    5760.2466 
  162000      161.988    262.53222     10.96099   -509.54648   -498.58549    2278.7108    27845.337    41060.449   -62069.654      15.2149      13.1765      28.7324    5760.2466 
  162500      162.488    268.21329     11.19818    -509.7666   -498.56842    1503.3487    24037.982    37672.076   -57200.012      15.2149      13.1765      28.7324    5760.2466 
  163000      162.988    246.63448    10.297243   -508.84897   -498.55173    2658.6655    26709.448      42643.7   -61377.152      15.2149      13.1765      28.7324    5760.2466 
  163500      163.488    269.79075    11.264041   -509.80009   -498.53605    1784.6192    30156.698     36926.09    -61728.93      15.2149      13.1765      28.7324    5760.2466 
  164000      163.988    252.31355     10.53435   -509.05314   -498.51879    1437.0473    28788.003    40461.295   -64938.156      15.2149      13.1765      28.7324    5760.2466 
  164500      164.488    273.08694     11.40166   -509.90446    -498.5028    1716.2943    26871.872    38734.389   -60457.379      15.2149      13.1765      28.7324    5760.2466 
  165000      164.988    271.53588    11.336902    -509.8227    -498.4858    2588.5476    27322.016    35420.263   -54976.637      15.2149      13.1765      28.7324    5760.2466 
  165500      165.488      253.099    10.567143   -509.03559   -498.46844    2502.1463    29669.555     36679.77   -58842.886      15.2149      13.1765      28.7324    5760.2466 
  166000      165.988    269.32265    11.244497   -509.69738   -498.45288    1785.2744    27402.921    38963.558   -61010.655      15.2149      13.1765      28.7324    5760.2466 
  166500      166.488    268.72665    11.219613   -509.65721   -498.43759    1773.1429    26989.491    39251.359   -60921.421      15.2149      13.1765      28.7324    5760.2466 
  167000      166.988    260.62545     10.88138   -509.30142   -498.42004    1149.1196    25647.141    35664.034   -57863.816      15.2149      13.1765      28.7324    5760.2466 
  167500      167.488    253.48106    10.583095   -508.98592   -498.40282    1503.2764    30982.845    39878.934    -66351.95      15.2149      13.1765      28.7324    5760.2466 
  168000      167.988    258.84235    10.806934   -509.19358   -498.38664    2673.5551    30169.462    37082.202   -59230.999      15.2149      13.1765      28.7324    5760.2466 
  168500      168.488    267.84686    11.182882   -509.55309   -498.37021    2029.9224    22225.045    35071.385   -51206.664      15.2149      13.1765      28.7324    5760.2466 
  169000      168.988    272.51324    11.377708    -509.7307   -498.35299     2169.245    25621.715    39485.994   -58599.974      15.2149      13.1765      28.7324    5760.2466 
  169500      169.488    265.88879     11.10113   -509.43636   -498.33523    2545.3869     30057.76    37980.232   -60401.831      15.2149      13.1765      28.7324    5760.2466 
  170000      169.988    263.95293    11.020306   -509.33938   -498.31907    2151.0553     27734.68    38025.429   -59306.943      15.2149      13.1765      28.7324    5760.2466 
  170500      170.488    275.01296    11.482073   -509.78499   -498.30291     1476.954    29422.578    36783.212   -61774.929      15.2149      13.1765      28.7324    5760.2466 
  171000      170.988    263.01928    10.981325   -509.26721   -498.28589    1988.3533    26495.053    34452.038   -54982.032      15.2149      13.1765      28.7324    5760.2466 
  171500      171.488    283.13113    11.821015   -510.08975   -498.26874    1483.1013     27967.62    35940.814    -59459.13      15.2149      13.1765      28.7324    5760.2466 
  172000      171.988    261.13871    10.902809   -509.15511    -498.2523    1787.0703    25065.411    37642.883   -57347.083      15.2149      13.1765      28.7324    5760.2466 
  172500      172.488    272.22143    11.365524   -509.60021   -498.23468    2353.2619    27398.334    41711.902    -62050.45      15.2149      13.1765      28.7324    5760.2466 
  173000      172.988    258.19648    10.779968   -508.99748   -498.21751    2278.3075    25994.931    39930.839   -59090.848      15.2149      13.1765      28.7324    5760.2466 
  173500      173.488     260.5939    10.880063   -509.08106   -498.20099    2381.2292    27775.832    38240.713   -58872.857      15.2149      13.1765      28.7324    5760.2466 
  174000      173.988    264.28137    11.034019   -509.21774   -498.18372    2575.0013        28371    34498.826   -55144.822      15.2149      13.1765      28.7324    5760.2466 
  174500      174.488    260.08228    10.858702   -509.02592   -498.16722    2864.9863    30168.848    35176.314   -56750.203      15.2149      13.1765      28.7324    5760.2466 
  175000      174.988    267.74054    11.178442   -509.32881   -498.15037    1014.5673    27038.036    34944.139   -58938.473      15.2149      13.1765      28.7324    5760.2466 
  175500      175.488    275.88827    11.518619   -509.65292    -498.1343    2042.9287    27800.932    36850.404    -58522.55      15.2149      13.1765      28.7324    5760.2466 
  176000      175.988    248.22532    10.363662   -508.48054   -498.11688    2023.1977    24983.677    40395.083   -59309.166      15.2149      13.1765      28.7324    5760.2466 
  176500      176.488    261.36771     10.91237    -509.0121   -498.09973    2686.4199    30263.273    38980.802   -61184.816      15.2149      13.1765      28.7324    5760.2466 
  177000      176.988    265.75648    11.095606   -509.17844   -498.08283    2589.5352    25051.065    37680.944   -54963.403      15.2149      13.1765      28.7324    5760.2466 
  177500      177.488    271.23687    11.324418   -509.39063   -498.06621    2685.8745    27646.748    36752.413   -56341.537      15.2149      13.1765      28.7324    5760.2466 
  178000      177.988     259.3238    10.827035   -508.87615   -498.04911    2309.4474    29468.837    37436.104   -59976.598      15.2149      13.1765      28.7324    5760.2466 
  178500      178.488    275.05665    11.483897   -509.51629   -498.03239    1587.6287    27162.148    39089.669    -61488.93      15.2149      13.1765      28.7324    5760.2466 
  179000      178.988    279.30952    11.661459   -509.67657   -498.01511    2057.0061    29338.722    36608.565   -59776.269      15.2149      13.1765      28.7324    5760.2466 
  179500      179.488    266.58443    11.130174   -509.12725   -497.99708    1954.0043    29134.032    37098.846   -60370.866      15.2149      13.1765      28.7324    5760.2466 
  180000      179.988     277.2286    11.574579   -509.55565   -497.98107    1107.2057    25294.951    34395.614   -56368.947      15.2149      13.1765      28.7324    5760.2466 
  180500      180.488    253.10108     10.56723   -508.52997   -497.96274    2127.6887    25881.353    38819.512   -58317.799      15.2149      13.1765      28.7324    5760.2466 
  181000      180.988    272.57997    11.380494   -509.32655   -497.94606      1865.92    26625.516    35826.829   -56854.585      15.2149      13.1765      28.7324    5760.2466 
  181500      181.488    259.76629    10.845509   -508.77415   -497.92864    2035.2885     26518.38    40190.184   -60602.698      15.2149      13.1765      28.7324    5760.2466 
  182000      181.988    273.73328    11.428645   -509.34067   -497.91203    1998.0072    25400.255    35670.503   -55076.737      15.2149      13.1765      28.7324    5760.2466 
  182500      182.488    283.60389    11.840754    -509.7361   -497.89534    2248.8961    27817.186    32861.231   -53931.729      15.2149      13.1765      28.7324    5760.2466 
  183000      182.988    279.56422    11.672093   -509.55006   -497.87797    2376.7088    25724.793     38289.13   -56883.797      15.2149      13.1765      28.7324    5760.2466 
  183500      183.488    286.07379    11.943875   -509.80467    -497.8608    3943.8645    29030.426     35112.96   -52311.792      15.2149      13.1765      28.7324    5760.2466 
  184000      183.988    278.73198    11.637346    -509.4804   -497.84305    2740.8819    28381.545    37961.407   -58120.306      15.2149      13.1765      28.7324    5760.2466 
  184500      184.488    264.12333     11.02742   -508.85356   -497.82614    2470.3093    26374.608     35982.56    -54946.24      15.2149      13.1765      28.7324    5760.2466 
  185000      184.988    270.29579    11.285127   -509.09449   -497.80936    2281.5852    28283.816    37383.213   -58822.273      15.2149      13.1765      28.7324    5760.2466 
  185500      185.488    269.48111    11.251113   -509.04365   -497.79254    1306.8959    24756.361    38610.197    -59445.87      15.2149      13.1765      28.7324    5760.2466 
  186000      185.988    276.53144    11.545472    -509.3211   -497.77563    2087.0783    26921.818    40262.383   -60922.966      15.2149      13.1765      28.7324    5760.2466 
  186500      186.488    276.46956    11.542888   -509.30116   -497.75827    2050.7797    29392.185    39198.848   -62438.694      15.2149      13.1765      28.7324    5760.2466 
  187000      186.988    253.91274    10.601118   -508.34064   -497.73952    2769.6776    24047.427    43578.803   -59317.197      15.2149      13.1765      28.7324    5760.2466 
  187500      187.488    269.66376    11.258739   -508.98164    -497.7229    3519.5185    26615.029    41736.512   -57792.985      15.2149      13.1765      28.7324    5760.2466 
  188000      187.988    262.74607    10.969918   -508.67497   -497.70505    3081.8123    26795.544    40214.691   -57764.798      15.2149      13.1765      28.7324    5760.2466 
  188500      188.488    264.67405    11.050413   -508.73828   -497.68787    3986.2496    27829.277    39425.142   -55295.671      15.2149      13.1765      28.7324    5760.2466 
  189000      188.988    277.41354      11.5823   -509.25291   -497.67061    3084.9254    25805.544    35921.535   -52472.303      15.2149      13.1765      28.7324    5760.2466 
  189500      189.488    280.78945    11.723248   -509.37747   -497.65422    2581.4387     29157.74    37572.167    -58985.59      15.2149      13.1765      28.7324    5760.2466 
  190000      189.988    278.57115    11.630632   -509.26683    -497.6362    1558.0457    26252.336    42128.273   -63706.472      15.2149      13.1765      28.7324    5760.2466 
  190500      190.488    278.50501     11.62787   -509.24725   -497.61938    2397.2554    28618.759     40993.53   -62420.523      15.2149      13.1765      28.7324    5760.2466 
  191000      190.988     273.5589    11.421365   -509.02287   -497.60151    2585.8347    25090.355    38290.001   -55622.851      15.2149      13.1765      28.7324    5760.2466 
  191500      191.488    271.50052    11.335425   -508.91961   -497.58418    1680.2182    25858.162    36291.196   -57108.704      15.2149      13.1765      28.7324    5760.2466 
  192000      191.988    267.91413     11.18569    -508.7523   -497.56661    2712.4578     31061.52    40481.631   -63405.778      15.2149      13.1765      28.7324    5760.2466 
  192500      192.488     282.6146     11.79945   -509.34886   -497.54941     2695.662    26890.228    39903.749   -58706.991      15.2149      13.1765      28.7324    5760.2466 
  193000      192.988    277.95311    11.604828   -509.13754   -497.53272    2155.0352    29259.386    40603.035   -63397.315      15.2149      13.1765      28.7324    5760.2466 
  193500      193.488    277.92521    11.603663   -509.11883   -497.51517    2545.5344    26497.633    40509.481   -59370.511      15.2149      13.1765      28.7324    5760.2466 
  194000      193.988    283.20498    11.824099    -509.3217    -497.4976    2882.4184    24954.377    43957.803   -60264.925      15.2149      13.1765      28.7324    5760.2466 
  194500      194.488    276.98879    11.564566   -509.04438   -497.47981    3264.7241    28300.337    38816.123   -57322.288      15.2149      13.1765      28.7324    5760.2466 
  195000      194.988    288.41545    12.041641   -509.50573   -497.46409    2625.0011    22727.004    38128.042   -52980.043      15.2149      13.1765      28.7324    5760.2466 
  195500      195.488    266.80086     11.13921   -508.58277   -497.44356    2134.0591    26945.834    40403.244   -60946.901      15.2149      13.1765      28.7324    5760.2466 
  196000      195.988    292.92378    12.229868   -509.65723   -497.42736    3245.7366    27628.781    40585.679   -58477.251      15.2149      13.1765      28.7324    5760.2466 
  196500      196.488    277.09715    11.569091   -508.97874   -497.40964    1939.4676    27541.812    39122.392   -60845.801      15.2149      13.1765      28.7324    5760.2466 
  197000      196.988    275.40311    11.498363   -508.89036     -497.392    1429.7305    25286.635    37669.557   -58667.001      15.2149      13.1765      28.7324    5760.2466 
  197500      197.488    284.92528    11.895923   -509.26982    -497.3739    2584.4672    29819.927    37413.474   -59479.999      15.2149      13.1765      28.7324    5760.2466 
  198000      197.988    283.36293    11.830693   -509.18656   -497.35587    1730.2399    29143.184    43392.066   -67344.531      15.2149      13.1765      28.7324    5760.2466 
  198500      198.488    285.23162    11.908713   -509.24792   -497.33921    3039.3911    28320.269     39485.68   -58687.775      15.2149      13.1765      28.7324    5760.2466 
  199000      198.988    279.76935    11.680658   -509.00151   -497.32086     1994.731    23955.202    38689.793   -56660.802      15.2149      13.1765      28.7324    5760.2466 
  199500      199.488    281.76022    11.763779   -509.06774   -497.30396    2297.8287    26519.425    39967.906   -59593.845      15.2149      13.1765      28.7324    5760.2466 
  200000      199.988    268.27184    11.200625   -508.48557   -497.28494    2811.6256    26160.434    39155.211   -56880.768      15.2149      13.1765      28.7324    5760.2466 
  200500      200.488    287.64248    12.009369   -509.27814   -497.26877    2586.4351    27651.215    40081.886   -59973.796      15.2149      13.1765      28.7324    5760.2466 
  201000      200.988    274.59938    11.464806   -508.71596   -497.25115    2637.1657    28539.327    40031.804   -60659.634      15.2149      13.1765      28.7324    5760.2466 
  201500      201.488    281.44045    11.750428   -508.98466   -497.23423    3697.8309    27106.558    39760.318   -55773.383      15.2149      13.1765      28.7324    5760.2466 
  202000      201.988     278.0071    11.607082   -508.82239   -497.21531    1694.0949    28246.221     36083.99   -59247.926      15.2149      13.1765      28.7324    5760.2466 
  202500      202.488    283.25102    11.826021    -509.0239   -497.19788    2398.3013    35541.111    35883.211   -64229.418      15.2149      13.1765      28.7324    5760.2466 
  203000      202.988    291.65969    12.177092   -509.35816   -497.18106     1831.699    29164.136    36608.674   -60277.714      15.2149      13.1765      28.7324    5760.2466 
  203500      203.488    291.39028    12.165844   -509.32973   -497.16389    2366.6546    26459.179    36426.901   -55786.116      15.2149      13.1765      28.7324    5760.2466 
  204000      203.988    283.27844    11.827166   -508.97242   -497.14525    2255.5296    23838.228    39387.903   -56459.543      15.2149      13.1765      28.7324    5760.2466 
  204500      204.488     291.0975    12.153619   -509.28239   -497.12877    2389.5252    27103.661    34849.599   -54784.684      15.2149      13.1765      28.7324    5760.2466 
  205000      204.988    282.68585    11.802424   -508.91262    -497.1102    1804.5363     26521.25    36937.302   -58044.943      15.2149      13.1765      28.7324    5760.2466 
  205500      205.488    261.70604    10.926496   -508.01768   -497.09118    2609.9217    27520.385    40801.589   -60492.209      15.2149      13.1765      28.7324    5760.2466 
  206000      205.988    281.40831    11.749086   -508.82416   -497.07507    3231.6056    25320.231    37080.335    -52705.75      15.2149      13.1765      28.7324    5760.2466 
  206500      206.488    273.50782    11.419233   -508.47597   -497.05674    2450.1244    26839.674    37956.556   -57445.856      15.2149      13.1765      28.7324    5760.2466 
  207000      206.988    281.53743    11.754477   -508.79277    -497.0383      2726.58    26306.117    40732.669   -58859.046      15.2149      13.1765      28.7324    5760.2466 
  207500      207.488    272.10019    11.360462   -508.38101   -497.02055    3532.3673    28346.933    41242.658   -58992.489      15.2149      13.1765      28.7324    5760.2466 
  208000      207.988     270.2779     11.28438   -508.28753   -497.00315    3797.9895    32460.614    37741.375   -58808.021      15.2149      13.1765      28.7324    5760.2466 
  208500      208.488    268.59258    11.214016   -508.19964   -496.98562    3546.5172    28265.772    39683.116   -57309.337      15.2149      13.1765      28.7324    5760.2466 
  209000      208.988    275.22954    11.491116   -508.45902   -496.96791    3014.7725    28906.016    39400.973   -59262.672      15.2149      13.1765      28.7324    5760.2466 
  209500      209.488    279.39757    11.665136   -508.61499   -496.94986    3503.7601    27872.462    36993.594   -54354.775      15.2149      13.1765      28.7324    5760.2466 
  210000      209.988    300.77594    12.557704   -509.49167   -496.93397    2774.9979    28646.465    38911.676   -59233.148      15.2149      13.1765      28.7324    5760.2466 
  210500      210.488    280.41338    11.707547   -508.62145    -496.9139    3047.3428    28313.563     39635.49   -58807.025      15.2149      13.1765      28.7324    5760.2466 
  211000      210.988    275.10534     11.48593    -508.3824   -496.89647    2942.7512    28246.148    41778.385   -61196.279      15.2149      13.1765      28.7324    5760.2466 
  211500      211.488    302.66397    12.636531   -509.51606   -496.87953    3184.8162    30035.577    38484.342   -58965.469      15.2149      13.1765      28.7324    5760.2466 
  212000      211.988    290.55516    12.130976   -508.99293   -496.86196    3714.2657    27111.733    40227.359   -56196.295      15.2149      13.1765      28.7324    5760.2466 
[...]
  948500      948.488    388.21338    16.208307   -505.74717   -489.53886    5201.5436    26747.111    41301.664   -52444.144      15.2149      13.1765      28.7324    5760.2466 
  949000      948.988    370.62468    15.473961   -505.00917   -489.53521    5928.5835    29593.823    45457.604   -57265.676      15.2149      13.1765      28.7324    5760.2466 
  949500      949.488     372.1951    15.539527   -505.07103    -489.5315    5082.7506    26978.675    41009.258   -52739.682      15.2149      13.1765      28.7324    5760.2466 
  950000      949.988    389.97328    16.281785   -505.81288   -489.53109    5741.5556    29863.443    45697.145   -58335.921      15.2149      13.1765      28.7324    5760.2466 
  950500      950.488     374.5555    15.638077   -505.16743   -489.52935     3966.026    31494.883    39654.963   -59251.768      15.2149      13.1765      28.7324    5760.2466 
  951000      950.988    367.32982    15.336397   -504.86369   -489.52729    4987.2591      28962.8    38622.488    -52623.51      15.2149      13.1765      28.7324    5760.2466 
  951500      951.488    364.22791    15.206889   -504.73075   -489.52386    6191.7796     27923.59     46668.86    -56017.11      15.2149      13.1765      28.7324    5760.2466 
  952000      951.988    361.65178    15.099333   -504.62215   -489.52282    6359.2984    35003.445    40506.674   -56432.224      15.2149      13.1765      28.7324    5760.2466 
  952500      952.488    382.47693    15.968805   -505.48983   -489.52102    5495.3625     29431.64    46667.962   -59613.515      15.2149      13.1765      28.7324    5760.2466 
  953000      952.988    364.23344     15.20712   -504.72499   -489.51787    5642.2289    29854.337    42489.842   -55417.492      15.2149      13.1765      28.7324    5760.2466 
  953500      953.488    361.87121    15.108495    -504.6245   -489.51601    5904.0965    30999.926    45063.262   -58350.898      15.2149      13.1765      28.7324    5760.2466 
  954000      953.988    394.40352    16.466752    -505.9811   -489.51435    5789.3252    30406.909    45841.563   -58880.496      15.2149      13.1765      28.7324    5760.2466 
  954500      954.488    359.20511    14.997182   -504.50729   -489.51011    4549.8598    35077.582    43179.168    -64607.17      15.2149      13.1765      28.7324    5760.2466 
  955000      954.988    368.63946    15.391076   -504.89864   -489.50757    5288.7359    29311.763    43073.334    -56518.89      15.2149      13.1765      28.7324    5760.2466 
  955500      955.488    353.50224    14.759082   -504.26312   -489.50404    6453.5509    33075.232    44641.287   -58355.867      15.2149      13.1765      28.7324    5760.2466 
  956000      955.988    376.39167    15.714739   -505.21633   -489.50159    5824.6094    26896.277    45649.045   -55071.493      15.2149      13.1765      28.7324    5760.2466 
  956500      956.488     369.5072    15.427305   -504.92486   -489.49756    5256.2547    31720.671    40353.638   -56305.544      15.2149      13.1765      28.7324    5760.2466 
  957000      956.988    372.97834    15.572229   -505.06868   -489.49645    3279.4873    31276.135    36458.309   -57895.982      15.2149      13.1765      28.7324    5760.2466 
  957500      957.488    390.35381    16.297672   -505.79318   -489.49551      5653.49    34138.369    39348.146   -56526.046      15.2149      13.1765      28.7324    5760.2466 
  958000      957.988    366.22166    15.290131   -504.78356   -489.49343    5239.2196    31061.633    45193.938   -60537.912      15.2149      13.1765      28.7324    5760.2466 
  958500      958.488    344.54056    14.384922   -503.87408   -489.48915    5944.8361    30699.726    44513.973   -57379.191      15.2149      13.1765      28.7324    5760.2466 
  959000      958.988    357.33607    14.919148   -504.40374   -489.48459    4449.2012    30683.138    40620.368   -57955.902      15.2149      13.1765      28.7324    5760.2466 
  959500      959.488    373.49976    15.593999   -505.07798   -489.48398    4595.4012    33132.416    38982.315   -58328.527      15.2149      13.1765      28.7324    5760.2466 
  960000      959.988    387.71949    16.187687   -505.66954   -489.48186     2997.165     27902.12    41448.467   -60359.091      15.2149      13.1765      28.7324    5760.2466 
  960500      960.488    377.89877    15.777662   -505.25731   -489.47965    4901.0708    29823.383    42933.594   -58053.765      15.2149      13.1765      28.7324    5760.2466 
  961000      960.988    378.34748    15.796396    -505.2728   -489.47641    3099.2038    31021.999    42007.325   -63731.713      15.2149      13.1765      28.7324    5760.2466 
  961500      961.488    370.38894    15.464119   -504.93736   -489.47324    4171.8969    24966.819     43684.69   -56135.818      15.2149      13.1765      28.7324    5760.2466 
  962000      961.988    378.52553     15.80383   -505.27337   -489.46954    5349.9907    31128.595    39365.323   -54443.946      15.2149      13.1765      28.7324    5760.2466 
  962500      962.488    378.18172    15.789475    -505.2558   -489.46632    5145.4368    28951.611    42794.213   -56309.514      15.2149      13.1765      28.7324    5760.2466 
  963000      962.988    391.05528     16.32696   -505.79194   -489.46498    4461.2552    31421.149    42177.262   -60214.645      15.2149      13.1765      28.7324    5760.2466 
  963500      963.488    400.55337    16.723515   -506.18444   -489.46093    4022.0499    27996.587    41255.127   -57185.564      15.2149      13.1765      28.7324    5760.2466 
  964000      963.988     382.9954    15.990451   -505.44777   -489.45732    4137.6348     28983.02    41304.352   -57874.467      15.2149      13.1765      28.7324    5760.2466 
  964500      964.488    380.92904    15.904179    -505.3589   -489.45473    5270.6929    31105.707    40112.011   -55405.639      15.2149      13.1765      28.7324    5760.2466 
  965000      964.988    387.64551    16.184598   -505.63751   -489.45291    5456.6462    27678.505    44458.021   -55766.588      15.2149      13.1765      28.7324    5760.2466 
  965500      965.488    366.57285    15.304793   -504.75234   -489.44754    5180.3164    31942.228     37574.47   -53975.749      15.2149      13.1765      28.7324    5760.2466 
  966000      965.988    342.29916    14.291341   -503.73585   -489.44451     4455.134    27949.485    43721.633   -58305.716      15.2149      13.1765      28.7324    5760.2466 
  966500      966.488    357.57083    14.928949   -504.37037   -489.44142    5426.4716    30323.043    41977.235   -56020.862      15.2149      13.1765      28.7324    5760.2466 
  967000      966.988    392.45023      16.3852   -505.82406   -489.43886    5652.4338    28619.593     43855.32   -55517.611      15.2149      13.1765      28.7324    5760.2466 
  967500      967.488    352.88004    14.733104   -504.16673   -489.43362    3944.5021    29822.572    38960.097   -56949.163      15.2149      13.1765      28.7324    5760.2466 
  968000      967.988    368.96072    15.404489    -504.8346   -489.43011     5442.346    33567.523    39943.382   -57183.867      15.2149      13.1765      28.7324    5760.2466 
  968500      968.488    384.50915    16.053652   -505.48073   -489.42708    5803.5241    31757.683    42308.833   -56655.944      15.2149      13.1765      28.7324    5760.2466 
  969000      968.988    372.74055    15.562301   -504.98498   -489.42268    4255.8979    29569.324    45994.667   -62796.298      15.2149      13.1765      28.7324    5760.2466 
  969500      969.488    350.64919    14.639964    -504.0596   -489.41964    6110.6914    29517.678    44129.111   -55314.714      15.2149      13.1765      28.7324    5760.2466 
  970000      969.988     356.2095    14.872112   -504.28693   -489.41482    5264.3721    31001.817    37962.946   -53171.647      15.2149      13.1765      28.7324    5760.2466 
  970500      970.488    399.23008    16.668266   -506.08093   -489.41267    5601.7929    31152.307    42020.996   -56367.924      15.2149      13.1765      28.7324    5760.2466 
  971000      970.988    379.81918    15.857841    -505.2643   -489.40646    3751.1953    31129.711    43168.097   -63044.222      15.2149      13.1765      28.7324    5760.2466 
  971500      971.488    362.69764    15.142999   -504.54537   -489.40237    5676.1907    31563.382    43705.092   -58239.902      15.2149      13.1765      28.7324    5760.2466 
  972000      971.988    357.80951    14.938914   -504.34002    -489.4011    5377.3373     30394.12    40154.935   -54417.043      15.2149      13.1765      28.7324    5760.2466 
  972500      972.488    372.80434    15.564964   -504.96252   -489.39755    6373.3481    31070.213     41274.46   -53224.629      15.2149      13.1765      28.7324    5760.2466 
  973000      972.988    378.32065    15.795275   -505.18896   -489.39368    5168.0896    27580.459    41284.354   -53360.544      15.2149      13.1765      28.7324    5760.2466 
  973500      973.488     364.4191    15.214871   -504.60429   -489.38942     5997.649    29746.201    46732.289   -58485.544      15.2149      13.1765      28.7324    5760.2466 
  974000      973.988     369.2659     15.41723   -504.80206   -489.38483    3549.7844    24319.217    39542.116   -53211.979      15.2149      13.1765      28.7324    5760.2466 
  974500      974.488    387.80113    16.191095   -505.57407   -489.38298    5575.0458    29150.247    38346.103   -50771.212      15.2149      13.1765      28.7324    5760.2466 
  975000      974.988    376.75117    15.729748   -505.10854    -489.3788    4577.0861    27283.407    43705.558   -57257.707      15.2149      13.1765      28.7324    5760.2466 
  975500      975.488    385.09068    16.077932   -505.45398   -489.37605    4728.6092    30867.953    37200.005   -53882.131      15.2149      13.1765      28.7324    5760.2466 
  976000      975.988    385.69288    16.103074   -505.47519   -489.37212    5653.7643    29149.151    47220.595   -59408.453      15.2149      13.1765      28.7324    5760.2466 
  976500      976.488    357.85939    14.940997   -504.30854   -489.36755    3845.6462    25591.924    40333.979   -54388.964      15.2149      13.1765      28.7324    5760.2466 
  977000      976.988    366.72759    15.311253     -504.674   -489.36274    5155.0644     28988.52    40907.118   -54430.445      15.2149      13.1765      28.7324    5760.2466 
  977500      977.488    374.50116    15.635808   -504.99442   -489.35861    5952.8368    31869.058    42160.221   -56170.768      15.2149      13.1765      28.7324    5760.2466 
  978000      977.988    381.04422    15.908988   -505.26427   -489.35528    5562.8631    28788.453    44821.536   -56921.399      15.2149      13.1765      28.7324    5760.2466 
  978500      978.488    383.98357    16.031709   -505.38355   -489.35184    5933.4421    30252.749    43477.148   -55929.571      15.2149      13.1765      28.7324    5760.2466 
  979000      978.988    384.42224    16.050023   -505.39778   -489.34776    5515.0018    28723.617    39182.439   -51361.051      15.2149      13.1765      28.7324    5760.2466 
  979500      979.488    394.69238    16.478812   -505.82128   -489.34246    5047.9966    32406.825    35606.885    -52869.72      15.2149      13.1765      28.7324    5760.2466 
  980000      979.988    379.88619    15.860639   -505.19851   -489.33787    4561.3572    28490.489     42892.04   -57698.458      15.2149      13.1765      28.7324    5760.2466 
  980500      980.488    351.23882    14.664581   -503.99652   -489.33194    7148.6589    34322.304    48257.955   -61134.282      15.2149      13.1765      28.7324    5760.2466 
  981000      980.988    369.31854    15.419428   -504.74841   -489.32898    5886.1097    33645.771    42487.073   -58474.514      15.2149      13.1765      28.7324    5760.2466 
  981500      981.488    409.03929     17.07781    -506.4034   -489.32559    4782.1585     31439.07    39663.964   -56756.559      15.2149      13.1765      28.7324    5760.2466 
  982000      981.988    344.49818    14.383153   -503.70102   -489.31787    5788.4659    28648.917    40690.514   -51974.033      15.2149      13.1765      28.7324    5760.2466 
  982500      982.488    385.92362    16.112708   -505.42767   -489.31496    6294.7116    30200.933    46173.645   -57490.443      15.2149      13.1765      28.7324    5760.2466 
  983000      982.988    378.57136    15.805743   -505.11623   -489.31049     5506.234    26668.936    45435.225    -55585.46      15.2149      13.1765      28.7324    5760.2466 
  983500      983.488    391.30603    16.337429   -505.64264   -489.30521    3834.3028    31016.535    38715.272   -58228.899      15.2149      13.1765      28.7324    5760.2466 
  984000      983.988    358.13127    14.952348   -504.25136   -489.29901    6400.9329    31939.472    39964.209   -52700.882      15.2149      13.1765      28.7324    5760.2466 
  984500      984.488    393.07716    16.411375   -505.70895   -489.29758    4255.3929    31954.013    39609.288   -58797.123      15.2149      13.1765      28.7324    5760.2466 
  985000      984.988    380.51021    15.886692   -505.17754   -489.29085    5387.9493    32681.664    38676.566   -55194.382      15.2149      13.1765      28.7324    5760.2466 
  985500      985.488    368.18348    15.372038   -504.65673   -489.28469     4685.873    28563.179    44720.104   -59225.663      15.2149      13.1765      28.7324    5760.2466 
  986000      985.988     380.8424    15.900561   -505.18006    -489.2795    3867.2244    27182.598    36657.627   -52238.551      15.2149      13.1765      28.7324    5760.2466 
  986500      986.488    389.24368    16.251323   -505.52761   -489.27629    5872.0807    32550.604      43964.2   -58898.562      15.2149      13.1765      28.7324    5760.2466 
  987000      986.988    365.75084    15.270473   -504.54089   -489.27042    4780.2604    32585.431    38040.347   -56284.997      15.2149      13.1765      28.7324    5760.2466 
  987500      987.488    372.39457    15.547856   -504.81332   -489.26547    4338.8959    31573.036    41916.817   -60473.165      15.2149      13.1765      28.7324    5760.2466 
  988000      987.988    353.75495    14.769633   -504.03041   -489.26078    4819.9582    26456.493    39660.654   -51657.272      15.2149      13.1765      28.7324    5760.2466 
  988500      988.488    374.29517    15.627208   -504.88354   -489.25634    5297.4094    31469.554    37668.296   -53245.622      15.2149      13.1765      28.7324    5760.2466 
  989000      988.988    395.90859     16.52959   -505.78293   -489.25334    4914.8273    31391.238    42227.759   -58874.515      15.2149      13.1765      28.7324    5760.2466 
  989500      989.488    376.31924    15.711715   -504.96054   -489.24883    7173.6222    33423.339    43790.738    -55693.21      15.2149      13.1765      28.7324    5760.2466 
  990000      989.988    374.63148    15.641249   -504.88344   -489.24219     4778.033    29025.767    42599.297   -57290.965      15.2149      13.1765      28.7324    5760.2466 
  990500      990.488    371.53322    15.511893   -504.74908   -489.23719    3523.8219    28168.293     43111.37   -60708.197      15.2149      13.1765      28.7324    5760.2466 
  991000      990.988    348.97766    14.570176   -503.80012   -489.22994     5767.117    33008.942    44150.887   -59858.478      15.2149      13.1765      28.7324    5760.2466 
  991500      991.488    367.54377     15.34533   -504.57178   -489.22645    5386.2384    28873.026     48906.45   -61620.761      15.2149      13.1765      28.7324    5760.2466 
  992000      991.988    399.04544    16.660557   -505.88332   -489.22276    5478.0754    36667.516     40683.74    -60917.03      15.2149      13.1765      28.7324    5760.2466 
  992500      992.488    376.57281    15.722302   -504.93932   -489.21702    5388.5977    32636.981    35747.504   -52218.692      15.2149      13.1765      28.7324    5760.2466 
  993000      992.988     377.8874    15.777187   -504.98834   -489.21116    5363.6364     33611.55    45770.425   -63291.065      15.2149      13.1765      28.7324    5760.2466 
  993500      993.488    381.34927    15.921724   -505.12794   -489.20621    5974.4605    30444.634    43470.209   -55991.461      15.2149      13.1765      28.7324    5760.2466 
  994000      993.988    374.46845    15.634442   -504.83559   -489.20115    6296.5755    27582.107    39692.823   -48385.203      15.2149      13.1765      28.7324    5760.2466 
  994500      994.488    362.20527    15.122442    -504.3186   -489.19615    4599.9113    28293.235    44075.372   -58568.873      15.2149      13.1765      28.7324    5760.2466 
  995000      994.988    386.59754    16.140844   -505.33184     -489.191    5405.7115    32400.223    38312.407   -54495.495      15.2149      13.1765      28.7324    5760.2466 
  995500      995.488    378.21687    15.790943    -504.9767   -489.18576    5408.0557    28911.584    38835.352   -51522.769      15.2149      13.1765      28.7324    5760.2466 
  996000      995.988    377.59904    15.765148   -504.94498   -489.17983    4039.2642    33155.423    41082.893   -62120.524      15.2149      13.1765      28.7324    5760.2466 
  996500      996.488    367.29574    15.334974    -504.5081   -489.17312    4915.8914    29355.141    41666.016   -56273.483      15.2149      13.1765      28.7324    5760.2466 
  997000      996.988    378.17346     15.78913   -504.95885   -489.16972    5854.8107    32479.253    43819.379     -58734.2      15.2149      13.1765      28.7324    5760.2466 
  997500      997.488    369.54891    15.429047   -504.59211   -489.16306    4678.9047    30351.514    38134.813   -54449.613      15.2149      13.1765      28.7324    5760.2466 
  998000      997.988    375.41173    15.673825   -504.83097   -489.15715    3294.1697    30625.198    36971.927   -57714.615      15.2149      13.1765      28.7324    5760.2466 
  998500      998.488    357.89269    14.942387    -504.0921   -489.14971    5273.7452    27227.275    47052.376   -58458.415      15.2149      13.1765      28.7324    5760.2466 
  999000      998.988    385.74782    16.105367   -505.25102   -489.14565     3254.714    30597.277    37520.619   -58353.754      15.2149      13.1765      28.7324    5760.2466 
  999500      999.488    382.06696    15.951688   -505.09216   -489.14048    3935.9292    31987.998    41227.512   -61407.723      15.2149      13.1765      28.7324    5760.2466 
 1000000      999.988    370.76948    15.480006   -504.61403   -489.13402     4833.789    30976.806    39994.325   -56469.765      15.2149      13.1765      28.7324    5760.2466 
 1000012         1000    372.19741    15.539624   -504.67372    -489.1341    5322.5721    31744.401    40309.998   -56086.683      15.2149      13.1765      28.7324    5760.2466 
Loop time of 905.951 on 28 procs for 1000000 steps with 324 atoms

Performance: 95.369 ns/day, 0.252 hours/ns, 1103.813 timesteps/s
87.8% CPU use with 28 MPI tasks x no OpenMP threads

MPI task timing breakdown:
Section |  min time  |  avg time  |  max time  |%varavg| %total
---------------------------------------------------------------
Pair    | 734.53     | 780.6      | 843.11     |  85.1 | 86.16
Neigh   | 0          | 0          | 0          |   0.0 |  0.00
Comm    | 52.182     | 110.43     | 157.98     | 256.3 | 12.19
Output  | 0.09989    | 0.10267    | 0.12125    |   1.2 |  0.01
Modify  | 4.2367     | 9.6713     | 31.171     | 280.6 |  1.07
Other   |            | 5.139      |            |       |  0.57

Nlocal:    11.5714 ave 16 max 7 min
Histogram: 1 4 3 0 5 5 3 2 4 1
Nghost:    662.143 ave 717 max 622 min
Histogram: 8 4 0 1 7 0 0 0 2 6
Neighs:    723.893 ave 1065 max 435 min
Histogram: 3 4 1 2 5 3 5 2 2 1
FullNghs:  1447.79 ave 2038 max 875 min
Histogram: 2 3 3 0 5 5 3 2 4 1

Total # of neighbors = 40538
Ave neighs/atom = 125.117
Neighbor list builds = 0
Dangerous builds = 0

write_restart   POSCAR_1x1x1.rest

#unfix    1
#undump   1
Total wall time: 0:15:06
