LAMMPS (7 Dec 2015)
#----------- Initialize Simulation ------------ restart01
#processors	2 2 2
units		metal
boundary	p p p     ## periodic boundary condition  on x y z axis ##
atom_style atomic
#atom_modify map array sort 0 0.0

read_data	POSCAR_1x1x1.lammps
  triclinic box = (0 0 0) to (15.2149 13.1765 28.7324) with tilt (-7.60743 0 0)
  2 by 2 by 7 MPI processor grid
  reading atoms ...
  324 atoms

#----------- Define Potential -----------------
pair_style meam
pair_coeff * * MgAlZn.library.meam Mg Al Zn MgAlZn.parameter.meam Mg Al Zn 	#1=Mg 2=Al 3=Zn	#atoms/mass

#----------- Neighbor List --------------------
neighbor 2.0 bin
neigh_modify delay 10 check yes

#--------------  Run a simulation (minimization) ---------------------------------------
minimize       1.0e-4   1.0e-6   100   1000          #結構優化的條件
WARNING: Resetting reneighboring criteria during minimization (../min.cpp:168)
Neighbor list info ...
  2 neighbor list requests
  update every 1 steps, delay 0 steps, check yes
  max neighbors/atom: 2000, page size: 100000
  master list distance cutoff = 8
  ghost atom cutoff = 8
  binsize = 4 -> bins = 6 4 8
Memory usage per processor = 8.65249 Mbytes
Step Temp E_pair E_mol TotEng Press 
       0            0   -566.31911            0   -566.31911    9641.9695 
      13            0   -582.52226            0   -582.52226    7736.8765 
Loop time of 0.0228723 on 28 procs for 13 steps with 324 atoms

88.5% CPU use with 28 MPI tasks x no OpenMP threads

Minimization stats:
  Stopping criterion = energy tolerance
  Energy initial, next-to-last, final = 
        -566.319112695      -582.46927486     -582.522262916
  Force two-norm initial, final = 23.4047 1.34386
  Force max component initial, final = 3.16168 0.4353
  Final line search alpha, max atom move = 0.195856 0.0852561
  Iterations, force evaluations = 13 25

MPI task timing breakdown:
Section |  min time  |  avg time  |  max time  |%varavg| %total
---------------------------------------------------------------
Pair    | 0.018226   | 0.019525   | 0.020659   |   0.5 | 85.37
Neigh   | 0          | 0          | 0          |   0.0 |  0.00
Comm    | 0.0013802  | 0.0024537  | 0.0037261  |   1.3 | 10.73
Output  | 0          | 0          | 0          |   0.0 |  0.00
Modify  | 0          | 0          | 0          |   0.0 |  0.00
Other   |            | 0.0008931  |            |       |  3.90

Nlocal:    11.5714 ave 15 max 7 min
Histogram: 1 4 2 3 0 2 5 4 2 5
Nghost:    660.857 ave 714 max 618 min
Histogram: 6 5 1 2 2 1 3 0 4 4
Neighs:    722.143 ave 950 max 452 min
Histogram: 3 2 3 2 1 3 4 4 2 4
FullNghs:  1444.29 ave 1861 max 875 min
Histogram: 1 4 2 3 1 1 5 4 1 6

Total # of neighbors = 40440
Ave neighs/atom = 124.815
Neighbor list builds = 0
Dangerous builds = 0
velocity all  create 393.0 4928459 #rot yes dist gaussian

#--------------  Run a simulation (Relaxation)  ----------------------------------------
fix  1  all  nvt   temp  393.0  393.0  100				#damping constant
#fix  2  all  npt   temp  393.0  393.0  50 iso 0.0 0.0 1000.0
#fix  2  all deform 1 x final 0 15.6906 y final 0 13.5884 z final 0 25.2339 xy final -7.8452 units lattice
#fix  3  all  npt   temp  393.0  393.0  50 z 0.0 0.0 1000.0

#variable b equal 1
#fix 2 all efield  0.0  0.0  v_b
#compute pot all pe/atom


#----------- Output --------------------------
thermo	 500
timestep  0.001		#1.0 fs
thermo_style	custom step time temp ke pe etotal press pxx pyy pzz lx ly lz vol

dump 1 all custom 10000 dump.eq id type x y z
dump_modify 1 sort  id

run        1000000	#10000	 ps
Neighbor list info ...
  2 neighbor list requests
  update every 1 steps, delay 10 steps, check yes
  max neighbors/atom: 2000, page size: 100000
  master list distance cutoff = 8
  ghost atom cutoff = 8
  binsize = 4 -> bins = 6 4 8
Memory usage per processor = 7.54296 Mbytes
Step Time Temp KinEng PotEng TotEng Press Pxx Pyy Pzz Lx Ly Lz Volume 
      13            0          393    16.408154   -582.52226   -566.11411    10779.427    30471.405    37441.476   -35574.601      15.2149      13.1765      28.7324    5760.2466 
     500        0.487    198.63997    8.2934225   -574.40107   -566.10765    11036.777    31061.942    43477.313   -41428.926      15.2149      13.1765      28.7324    5760.2466 
    1000        0.987    204.20587    8.5258047   -574.63353   -566.10773    10398.464    34523.209    44264.579   -47592.396      15.2149      13.1765      28.7324    5760.2466 
    1500        1.487     206.1436     8.606707   -574.71399   -566.10728    11768.455    36691.844    39911.058   -41297.537      15.2149      13.1765      28.7324    5760.2466 
    2000        1.987    211.05693    8.8118434   -574.91895    -566.1071    12263.233    32806.115    43968.687   -39985.102      15.2149      13.1765      28.7324    5760.2466 
    2500        2.487    204.41637    8.5345932   -574.63999    -566.1054    11245.358    33752.607    39907.746   -39924.278      15.2149      13.1765      28.7324    5760.2466 
    3000        2.987    206.97389    8.6413723   -574.74607    -566.1047    11482.656    34880.902    45480.345    -45913.28      15.2149      13.1765      28.7324    5760.2466 
    3500        3.487    205.70126    8.5882386   -574.69126   -566.10302     11876.02    32029.742    39522.834   -35924.516      15.2149      13.1765      28.7324    5760.2466 
    4000        3.987    201.14785    8.3981292   -574.49952   -566.10139    10282.135    34631.414    40857.951    -44642.96      15.2149      13.1765      28.7324    5760.2466 
    4500        4.487    202.12299    8.4388425   -574.53888   -566.10004    12062.473    35492.181    40750.933   -40055.694      15.2149      13.1765      28.7324    5760.2466 
    5000        4.987    212.44836    8.8699372   -574.96852   -566.09858    10872.582    33529.418    40809.992   -41721.664      15.2149      13.1765      28.7324    5760.2466 
    5500        5.487     209.4441    8.7445063   -574.84078   -566.09628    12071.265    33329.286    43692.759    -40808.25      15.2149      13.1765      28.7324    5760.2466 
    6000        5.987    199.78529    8.3412409   -574.43441   -566.09316     10182.32    34606.973    42149.299   -46209.313      15.2149      13.1765      28.7324    5760.2466 
    6500        6.487    209.51196    8.7473393     -574.839   -566.09166    11765.965    31294.602    45644.425   -41641.133      15.2149      13.1765      28.7324    5760.2466 
    7000        6.987    199.92834    8.3472135   -574.43568   -566.08847     9829.143    34205.462    43042.892   -47760.925      15.2149      13.1765      28.7324    5760.2466 
    7500        7.487    219.20458    9.1520163   -575.23757   -566.08555    12022.608     35130.11    43682.962   -42745.249      15.2149      13.1765      28.7324    5760.2466 
    8000        7.987    208.11374    8.6889621   -574.77112   -566.08216    11309.835    34045.464    43307.875   -43423.833      15.2149      13.1765      28.7324    5760.2466 
    8500        8.487    193.27833    8.0695686   -574.14784   -566.07828    12159.777     36297.25    44639.534   -44457.454      15.2149      13.1765      28.7324    5760.2466 
    9000        8.987     199.7884     8.341371   -574.41614   -566.07477    12825.573    30590.972    46583.137   -38697.391      15.2149      13.1765      28.7324    5760.2466 
    9500        9.487     202.7846    8.4664654   -574.53705   -566.07059    11355.366    32314.359    43042.052   -41290.312      15.2149      13.1765      28.7324    5760.2466 
   10000        9.987    206.70416    8.6301107   -574.69685   -566.06674    11505.346    33987.961    43755.836    -43227.76      15.2149      13.1765      28.7324    5760.2466 
   10500       10.487    205.98972    8.6002822   -574.66371   -566.06343    11476.088    32340.099    43888.433   -41800.267      15.2149      13.1765      28.7324    5760.2466 
   11000       10.987    210.70888    8.7973121   -574.85581    -566.0585    12370.836    33071.204    45070.989   -41029.686      15.2149      13.1765      28.7324    5760.2466 
   11500       11.487    199.53712    8.3308796   -574.38447   -566.05359    11142.658    35658.514    44860.343   -47090.883      15.2149      13.1765      28.7324    5760.2466 
   12000       11.987    209.02756    8.7271153   -574.77638   -566.04926    11723.888    32301.171    46286.872   -43416.379      15.2149      13.1765      28.7324    5760.2466 
   12500       12.487    213.12847    8.8983323   -574.94242   -566.04408    11606.033    33050.712    42028.802   -40261.414      15.2149      13.1765      28.7324    5760.2466 
   13000       12.987    219.28911    9.1555457   -575.19495    -566.0394    11933.215    31405.317    44477.665   -40083.338      15.2149      13.1765      28.7324    5760.2466 
   13500       13.487    204.22318    8.5265276   -574.55987   -566.03334    12345.461    34061.252    46896.603   -43921.471      15.2149      13.1765      28.7324    5760.2466 
   14000       13.987    215.81351    9.0104356   -575.03845   -566.02801    11934.599    31942.052     40637.87   -36776.126      15.2149      13.1765      28.7324    5760.2466 
   14500       14.487    218.42431    9.1194394   -575.14194    -566.0225    12185.078    33178.707    43409.196   -40032.669      15.2149      13.1765      28.7324    5760.2466 
   15000       14.987     203.5383    8.4979331   -574.51315   -566.01522      11910.6    35286.996    47774.922   -47330.117      15.2149      13.1765      28.7324    5760.2466 
   15500       15.487    206.31466    8.6138491   -574.62356   -566.00971    10171.222    32217.808    41513.348    -43217.49      15.2149      13.1765      28.7324    5760.2466 
   16000       15.987    207.59672    8.6673761   -574.67071   -566.00333     12155.56    36283.918    44360.253   -44177.492      15.2149      13.1765      28.7324    5760.2466 
   16500       16.487    212.14366    8.8572158   -574.85397   -565.99675    11359.684    33694.128     42171.59   -41786.667      15.2149      13.1765      28.7324    5760.2466 
   17000       16.987    202.68767    8.4624185   -574.45148   -565.98906    10799.313    35196.354    42550.549   -45348.965      15.2149      13.1765      28.7324    5760.2466 
   17500       17.487     218.1845    9.1094269   -575.09207   -565.98264    11081.621    31882.864    42740.702   -41378.704      15.2149      13.1765      28.7324    5760.2466 
   18000       17.987    216.70947    9.0478427   -575.02299   -565.97514    11248.877    33525.183    42118.919    -41897.47      15.2149      13.1765      28.7324    5760.2466 
   18500       18.487    213.74379    8.9240227   -574.89159   -565.96757    10877.848    33084.781    41611.278   -42062.516      15.2149      13.1765      28.7324    5760.2466 
   19000       18.987    221.36591    9.2422542    -575.2025   -565.96025    11070.818    32554.885     44842.03    -44184.46      15.2149      13.1765      28.7324    5760.2466 
   19500       19.487    203.89627    8.5128788   -574.46444   -565.95156    12387.105    32106.684    47038.819   -41984.188      15.2149      13.1765      28.7324    5760.2466 
   20000       19.987    223.99279    9.3519289   -575.29649   -565.94456    11127.743    33376.483    42728.571   -42721.823      15.2149      13.1765      28.7324    5760.2466 
   20500       20.487    215.36689    8.9917887   -574.92755   -565.93576    11431.763     34817.81    47781.307   -48303.827      15.2149      13.1765      28.7324    5760.2466 
   21000       20.987    215.33726    8.9905519   -574.91794   -565.92739    12253.688    36184.628    47353.852   -46777.415      15.2149      13.1765      28.7324    5760.2466 
   21500       21.487    222.40739    9.2857369   -575.20493   -565.91919    10717.105    33606.347    45201.593   -46656.626      15.2149      13.1765      28.7324    5760.2466 
   22000       21.987     215.7703    9.0086314   -574.91843   -565.90979    11595.987    32917.865    43508.402   -41638.304      15.2149      13.1765      28.7324    5760.2466 
   22500       22.487    224.85106    9.3877627   -575.28838   -565.90062        11515    31961.049    43382.775   -40798.824      15.2149      13.1765      28.7324    5760.2466 
   23000       22.987    226.85245    9.4713228    -575.3624   -565.89108    11339.499    34398.147    44673.614   -45053.263      15.2149      13.1765      28.7324    5760.2466 
   23500       23.487    217.83805    9.0949625   -574.97627   -565.88131     12768.09    37102.191    47018.762   -45816.682      15.2149      13.1765      28.7324    5760.2466 
   24000       23.987    223.92423    9.3490667   -575.22047    -565.8714    12261.106    30445.063    44588.533   -38250.278      15.2149      13.1765      28.7324    5760.2466 
   24500       24.487    223.33373    9.3244127   -575.18585   -565.86143     10471.09    30317.126     42959.61   -41863.467      15.2149      13.1765      28.7324    5760.2466 
   25000       24.987    223.91375    9.3486288   -575.19979   -565.85116    12171.908    31409.477    49238.969   -44132.722      15.2149      13.1765      28.7324    5760.2466 
   25500       25.487    232.93358    9.7252161   -575.56657   -565.84135    10680.837    33211.868    43858.972   -45028.329      15.2149      13.1765      28.7324    5760.2466 
   26000       25.987    228.72896    9.5496691   -575.38113   -565.83146    11735.358    34367.357    43831.645   -42992.928      15.2149      13.1765      28.7324    5760.2466 
   26500       26.487    210.64329    8.7945738   -574.61445   -565.81988    11714.453    34875.583    46410.779   -46143.001      15.2149      13.1765      28.7324    5760.2466 
   27000       26.987    216.84621    9.0535519   -574.86275   -565.80919    11352.616    34642.006    45481.092   -46065.251      15.2149      13.1765      28.7324    5760.2466 
   27500       27.487    226.77958    9.4682804   -575.26678    -565.7985     12191.47     33013.57    43693.424   -40132.584      15.2149      13.1765      28.7324    5760.2466 
   28000       27.987    213.33172    8.9068183   -574.69399   -565.78717     11675.03     32094.71     44764.87    -41834.49      15.2149      13.1765      28.7324    5760.2466 
   28500       28.487    226.47321    9.4554891   -575.23209    -565.7766    10788.099    34839.179     42568.91   -45043.793      15.2149      13.1765      28.7324    5760.2466 
   29000       28.987    218.63348    9.1281724   -574.89337    -565.7652    11333.482    33148.489     45383.33   -44531.373      15.2149      13.1765      28.7324    5760.2466 
   29500       29.487    209.88165    8.7627743   -574.51557    -565.7528    12148.415    33094.918    48922.746    -45572.42      15.2149      13.1765      28.7324    5760.2466 
   30000       29.987    218.06203    9.1043136   -574.84605   -565.74174     12463.86     35706.96    45533.053   -43848.433      15.2149      13.1765      28.7324    5760.2466 
   30500       30.487    221.37077    9.2424571   -574.97361   -565.73115    11653.023    33494.795    45735.943   -44271.668      15.2149      13.1765      28.7324    5760.2466 
   31000       30.987    210.52476    8.7896249   -574.50804   -565.71842    11898.443    30469.066    46547.965   -41321.703      15.2149      13.1765      28.7324    5760.2466 
   31500       31.487    229.14778     9.567155   -575.27386    -565.7067    12022.357    33965.669    50614.594   -48513.191      15.2149      13.1765      28.7324    5760.2466 
   32000       31.987     221.4205    9.2445331   -574.93903    -565.6945    11686.616    36426.926    46160.936   -47528.014      15.2149      13.1765      28.7324    5760.2466 
   32500       32.487    227.02522    9.4785361   -575.16034   -565.68181    11937.022    35009.442    45708.189   -44906.565      15.2149      13.1765      28.7324    5760.2466 
   33000       32.987    226.78433    9.4684788   -575.13828    -565.6698    12389.747    36219.332    46975.044   -46025.134      15.2149      13.1765      28.7324    5760.2466 
   33500       33.487    211.83046    8.8441393   -574.50062   -565.65648    11803.499    35547.741    45448.259   -45585.504      15.2149      13.1765      28.7324    5760.2466 
   34000       33.987    219.49217    9.1640236   -574.80766   -565.64363    10847.483    34830.551    46212.094   -48500.195      15.2149      13.1765      28.7324    5760.2466 
   34500       34.487    216.64073    9.0449728   -574.67651   -565.63154    10749.578     36213.69    44159.585   -48124.541      15.2149      13.1765      28.7324    5760.2466 
   35000       34.987    231.98694     9.685693   -575.30457   -565.61887    11440.042    35838.702    47226.624   -48745.199      15.2149      13.1765      28.7324    5760.2466 
   35500       35.487    230.54817    9.6256226   -575.23212    -565.6065    11307.337    32304.551    43916.805   -42299.345      15.2149      13.1765      28.7324    5760.2466 
   36000       35.987    222.11136    9.2733772   -574.86669   -565.59331    11726.022    36561.064    43249.192    -44632.19      15.2149      13.1765      28.7324    5760.2466 
   36500       36.487    227.33828    9.4916067   -575.07195   -565.58034    9783.8303    32550.483    43128.919    -46327.91      15.2149      13.1765      28.7324    5760.2466 
   37000       36.987    215.60645    9.0017907    -574.5684   -565.56661    11877.487     36137.36    47506.439   -48011.337      15.2149      13.1765      28.7324    5760.2466 
   37500       37.487    229.41888    9.5784737   -575.13281   -565.55434    12188.249     36623.97    44670.115   -44729.338      15.2149      13.1765      28.7324    5760.2466 
   38000       37.987    221.98852    9.2682488   -574.80886   -565.54061    11507.655    36555.798    48411.926   -50444.759      15.2149      13.1765      28.7324    5760.2466 
   38500       38.487    231.99645    9.6860899   -575.21412   -565.52803    10447.433     35944.68    48717.378   -53319.758      15.2149      13.1765      28.7324    5760.2466 
   39000       38.987    208.48959    8.7046543   -574.21841   -565.51376    11984.501    35462.406      46829.4   -46338.302      15.2149      13.1765      28.7324    5760.2466 
   39500       39.487    232.05378    9.6884837   -575.19042   -565.50194    12014.901    32379.087    48327.531   -44661.916      15.2149      13.1765      28.7324    5760.2466 
   40000       39.987    218.95117     9.141436   -574.62909   -565.48766     10900.89    33038.033    46814.288   -47149.651      15.2149      13.1765      28.7324    5760.2466 
   40500       40.487    232.88043    9.7229969    -575.1986   -565.47561    12003.495    34250.299    48899.569   -47139.383      15.2149      13.1765      28.7324    5760.2466 
   41000       40.987    234.91324    9.8078691   -575.27021   -565.46235    11850.032    34952.449    48802.432   -48204.785      15.2149      13.1765      28.7324    5760.2466 
   41500       41.487    227.94965    9.5171319   -574.96678   -565.44964    11936.018    34682.064    44373.334   -43247.345      15.2149      13.1765      28.7324    5760.2466 
   42000       41.987    229.73244    9.5915651   -575.02807   -565.43651    12094.687    35189.292    47157.611   -46062.841      15.2149      13.1765      28.7324    5760.2466 
   42500       42.487    227.83611    9.5123917   -574.93593   -565.42354    12692.129    32008.773    49602.843   -43535.229      15.2149      13.1765      28.7324    5760.2466 
   43000       42.987    232.83435    9.7210731   -575.13212   -565.41105    12099.186    34577.409    45772.569   -44052.419      15.2149      13.1765      28.7324    5760.2466 
   43500       43.487    226.66489    9.4634919   -574.86072   -565.39723     12285.23    35464.437    45358.866   -43967.613      15.2149      13.1765      28.7324    5760.2466 
   44000       43.987    226.84668    9.4710819   -574.85507   -565.38398    11729.873    35047.439    46231.828   -46089.648      15.2149      13.1765      28.7324    5760.2466 
   44500       44.487    233.61366    9.7536101   -575.12519   -565.37158    13109.807    35598.281    46102.978   -42371.837      15.2149      13.1765      28.7324    5760.2466 
   45000       44.987     219.6214    9.1694188   -574.52729   -565.35787    11751.357    32136.356    43996.301   -40878.584      15.2149      13.1765      28.7324    5760.2466 
   45500       45.487    224.51535    9.3737464   -574.71892   -565.34518    10822.227     33469.68    47706.806   -48709.806      15.2149      13.1765      28.7324    5760.2466 
   46000       45.987    221.21416    9.2359185   -574.56823   -565.33232      12230.6    37674.307    46158.234    -47140.74      15.2149      13.1765      28.7324    5760.2466 
   46500       46.487    229.78458    9.5937421   -574.91474     -565.321    11553.918    34927.115    44151.168   -44416.529      15.2149      13.1765      28.7324    5760.2466 
   47000       46.987    229.00745     9.561296   -574.86826   -565.30697    13069.846    32054.516    44981.045   -37826.024      15.2149      13.1765      28.7324    5760.2466 
   47500       47.487    220.59321     9.209993    -574.5046    -565.2946    11497.323    34714.738    47340.396   -47563.164      15.2149      13.1765      28.7324    5760.2466 
   48000       47.987    223.50328    9.3314913   -574.61361   -565.28212    12141.056    35941.285    47507.068   -47025.187      15.2149      13.1765      28.7324    5760.2466 
   48500       48.487    222.63112    9.2950781   -574.56523   -565.27015    12437.399    34587.235    47888.879   -45163.916      15.2149      13.1765      28.7324    5760.2466 
   49000       48.987    222.78634    9.3015586   -574.55958   -565.25802    12864.816    34603.307    48202.272   -44211.133      15.2149      13.1765      28.7324    5760.2466 
   49500       49.487    228.21816    9.5283427   -574.77327   -565.24492    11934.784    35741.786    47002.183   -46939.616      15.2149      13.1765      28.7324    5760.2466 
   50000       49.987    212.41403    8.8685039   -574.10076   -565.23226    11314.782    34242.692    45833.412   -46131.759      15.2149      13.1765      28.7324    5760.2466 
   50500       50.487    232.70119    9.7155134   -574.93675   -565.22123    11924.685    34346.834    48649.113   -47221.892      15.2149      13.1765      28.7324    5760.2466 
   51000       50.987    242.24142    10.113828   -575.32231   -565.20849    11248.975    33693.694    47347.532     -47294.3      15.2149      13.1765      28.7324    5760.2466 
   51500       51.487    239.27459    9.9899597   -575.18663   -565.19667    12631.318    33722.082    45514.963   -41343.091      15.2149      13.1765      28.7324    5760.2466 
   52000       51.987     221.5482    9.2498648   -574.43391   -565.18404    11772.544    33060.145    50494.888     -48237.4      15.2149      13.1765      28.7324    5760.2466 
   52500       52.487    240.20118    10.028646   -575.20111   -565.17247    12973.984     32977.18    49662.366   -43717.593      15.2149      13.1765      28.7324    5760.2466 
   53000       52.987    220.95565    9.2251251    -574.3851   -565.15997    11417.086    30517.312    48005.563   -44271.618      15.2149      13.1765      28.7324    5760.2466 
   53500       53.487    228.31048    9.5321968    -574.6795   -565.14731    11265.465    33386.759    46087.451   -45677.816      15.2149      13.1765      28.7324    5760.2466 
   54000       53.987    238.31146    9.9497483   -575.08655    -565.1368    11712.045    32321.933    44043.513   -41229.311      15.2149      13.1765      28.7324    5760.2466 
   54500       54.487    216.49619    9.0389381   -574.16319   -565.12425    12098.036    31989.797    46342.197   -42037.887      15.2149      13.1765      28.7324    5760.2466 
   55000       54.987    230.52273    9.6245609   -574.73738   -565.11281    11570.397    32945.441    48413.896   -46648.146      15.2149      13.1765      28.7324    5760.2466 
   55500       55.487    229.15565    9.5674837   -574.66947   -565.10199    12830.132    37489.776    45682.754   -44682.134      15.2149      13.1765      28.7324    5760.2466 
   56000       55.987     224.1109    9.3568603   -574.44662   -565.08976    12661.759    34704.177    46726.286   -43445.184      15.2149      13.1765      28.7324    5760.2466 
   56500       56.487    236.81006    9.8870631   -574.96549   -565.07843    11821.902    32766.843    46706.273   -44007.408      15.2149      13.1765      28.7324    5760.2466 
   57000       56.987    229.03945     9.562632   -574.62951   -565.06688    11788.694    35602.947    47850.172   -48087.036      15.2149      13.1765      28.7324    5760.2466 
   57500       57.487    235.86314    9.8475283   -574.90433    -565.0568    13193.172    33055.755    47374.183   -40850.422      15.2149      13.1765      28.7324    5760.2466 
   58000       57.987    232.55135    9.7092578   -574.75375   -565.04449    11767.026    35574.545    47493.817   -47767.283      15.2149      13.1765      28.7324    5760.2466 
   58500       58.487    227.35093    9.4921346   -574.52503    -565.0329    12296.184    35071.959    48158.266   -46341.672      15.2149      13.1765      28.7324    5760.2466 
   59000       58.987    234.14084    9.7756205   -574.79787   -565.02225    12225.525    34141.834    43568.567   -41033.828      15.2149      13.1765      28.7324    5760.2466 
   59500       59.487    225.17491    9.4012838   -574.41103   -565.00974    11082.426    33624.897    44023.435   -44401.054      15.2149      13.1765      28.7324    5760.2466 
   60000       59.987    233.62812    9.7542139   -574.75392    -564.9997    11774.185    37531.258    45200.965   -47409.667      15.2149      13.1765      28.7324    5760.2466 
   60500       60.487    226.35165    9.4504137   -574.43871   -564.98829    11652.291    33190.929     43231.81   -41465.865      15.2149      13.1765      28.7324    5760.2466 
   61000       60.987     228.9481    9.5588184   -574.53608   -564.97726    12020.751    35048.508    48763.659   -47749.913      15.2149      13.1765      28.7324    5760.2466 
   61500       61.487    227.61788    9.5032801   -574.47012   -564.96684    11561.236    35548.222    45007.533   -45872.047      15.2149      13.1765      28.7324    5760.2466 
   62000       61.987    232.74558     9.717367   -574.67325   -564.95589    12434.214    36925.295    48970.858   -48593.512      15.2149      13.1765      28.7324    5760.2466 
   62500       62.487    230.35452    9.6175377   -574.56233    -564.9448    12158.456    36119.194    45166.387   -44810.213      15.2149      13.1765      28.7324    5760.2466 
   63000       62.987     227.8733    9.5139441   -574.44615    -564.9322    12533.896    33943.866    49633.039   -45975.215      15.2149      13.1765      28.7324    5760.2466 
   63500       63.487    230.46863     9.622302    -574.5451    -564.9228    11107.769    34568.549    48157.494   -49402.737      15.2149      13.1765      28.7324    5760.2466 
   64000       63.987    244.92893    10.226034   -575.13857   -564.91254    11468.347    34012.855    44293.061   -43900.876      15.2149      13.1765      28.7324    5760.2466 
   64500       64.487    218.63988    9.1284396    -574.0289   -564.90046    12278.029     35194.62    46523.492   -44884.025      15.2149      13.1765      28.7324    5760.2466 
   65000       64.987    230.26886    9.6139615    -574.5039   -564.88994    13603.873    34452.814    43128.032   -36769.226      15.2149      13.1765      28.7324    5760.2466 
   65500       65.487    221.97987    9.2678876   -574.14684   -564.87896    11025.493     34997.97    49379.888   -51301.379      15.2149      13.1765      28.7324    5760.2466 
   66000       65.987    239.78161    10.011129   -574.88045   -564.86932    12657.711    34849.997    47434.064   -44310.927      15.2149      13.1765      28.7324    5760.2466 
   66500       66.487    240.21312    10.029145   -574.88694   -564.85779    11267.092    35625.802    41796.618   -43621.143      15.2149      13.1765      28.7324    5760.2466 
   67000       66.987    234.72884      9.80017    -574.6482   -564.84803    12464.105    35329.002    46973.509   -44910.197      15.2149      13.1765      28.7324    5760.2466 
   67500       67.487    229.83602      9.59589   -574.43239    -564.8365    11616.053    36100.241    46270.853   -47522.933      15.2149      13.1765      28.7324    5760.2466 
   68000       67.987    248.28522    10.366163   -575.19366    -564.8275    11657.216    34762.188    46260.714   -46051.253      15.2149      13.1765      28.7324    5760.2466 
   68500       68.487    232.62538    9.7123484   -574.52757   -564.81522    12518.018     36282.79    49337.278   -48066.013      15.2149      13.1765      28.7324    5760.2466 
   69000       68.987     232.8752    9.7227788   -574.52755   -564.80477    11668.379    34256.786    46572.164   -45823.811      15.2149      13.1765      28.7324    5760.2466 
   69500       69.487    238.69052    9.9655743   -574.75981   -564.79424    11180.591    34213.597    49603.891   -50275.715      15.2149      13.1765      28.7324    5760.2466 
   70000       69.987    234.93599    9.8088189   -574.59253   -564.78371    12242.898     34911.31    47986.889   -46169.505      15.2149      13.1765      28.7324    5760.2466 
   70500       70.487    242.92736    10.142467   -574.91618   -564.77371     11596.11    37570.239     48290.36   -51072.269      15.2149      13.1765      28.7324    5760.2466 
   71000       70.987    238.64482    9.9636661   -574.72642   -564.76275    12850.408     32994.52    49274.449   -43717.745      15.2149      13.1765      28.7324    5760.2466 
   71500       71.487    216.18998    9.0261536   -573.77751   -564.75136    12407.444    36299.651    46909.833   -45987.154      15.2149      13.1765      28.7324    5760.2466 
   72000       71.987    232.21159    9.6950725   -574.43643   -564.74136    12740.484    36213.085    45682.115   -43673.747      15.2149      13.1765      28.7324    5760.2466 
   72500       72.487    244.47826    10.207218   -574.93894   -564.73172    12508.409     39455.55    44863.618   -46793.943      15.2149      13.1765      28.7324    5760.2466 
   73000       72.987    235.02819    9.8126684   -574.53257    -564.7199    11010.913    32139.253    47986.698   -47093.212      15.2149      13.1765      28.7324    5760.2466 
   73500       73.487    240.94724    10.059795   -574.76876   -564.70896    12066.088    34201.531    45854.856   -43858.124      15.2149      13.1765      28.7324    5760.2466 
   74000       73.987    242.43792    10.122032   -574.82056   -564.69853    11627.573    32993.601    48140.018   -46250.901      15.2149      13.1765      28.7324    5760.2466 
   74500       74.487     242.8879    10.140819   -574.82877   -564.68795    12302.645    32848.507    49695.139   -45635.712      15.2149      13.1765      28.7324    5760.2466 
   75000       74.987     227.7505    9.5088172   -574.18534   -564.67652    11946.657    35342.909    47606.375   -47109.313      15.2149      13.1765      28.7324    5760.2466 
   75500       75.487    228.69948    9.5484382    -574.2148   -564.66636    11568.347    35183.276    46221.394   -46699.627      15.2149      13.1765      28.7324    5760.2466 
   76000       75.987    231.54384     9.667193   -574.32157   -564.65438    12175.325    35518.023    47247.057   -46239.104      15.2149      13.1765      28.7324    5760.2466 
   76500       76.487    245.65515    10.256355   -574.90064   -564.64429    11688.305    33170.665    45925.394   -44031.145      15.2149      13.1765      28.7324    5760.2466 
   77000       76.987    247.95292    10.352289    -574.9852   -564.63291     12078.61    38710.778      45898.9   -48373.846      15.2149      13.1765      28.7324    5760.2466 
   77500       77.487    227.50257    9.4984658   -574.11989   -564.62142     12007.11    36443.329    47027.825   -47449.824      15.2149      13.1765      28.7324    5760.2466 
   78000       77.987    229.21351    9.5698996   -574.18053   -564.61063    11445.752    32894.214    45061.885   -43618.844      15.2149      13.1765      28.7324    5760.2466 
   78500       78.487    233.73384     9.758628   -574.35877   -564.60014    12138.716    35514.258    48501.191   -47599.301      15.2149      13.1765      28.7324    5760.2466 
   79000       78.987    237.34614    9.9094451   -574.49845     -564.589    12405.886    33260.536    47463.764   -43506.643      15.2149      13.1765      28.7324    5760.2466 
   79500       79.487    241.49142    10.082515   -574.66065   -564.57813    11588.169    33754.457    48360.409   -47350.359      15.2149      13.1765      28.7324    5760.2466 
   80000       79.987    236.57699    9.8773321   -574.44332   -564.56598    12587.966    36379.249    45737.227   -44352.577      15.2149      13.1765      28.7324    5760.2466 
   80500       80.487    241.16142    10.068737    -574.6243   -564.55556    12842.724    34580.515    46858.362   -42910.705      15.2149      13.1765      28.7324    5760.2466 
   81000       80.987    224.33301    9.3661334   -573.90918   -564.54304    12127.681    36709.593    49321.971    -49648.52      15.2149      13.1765      28.7324    5760.2466 
   81500       81.487    242.55361    10.126862   -574.65934   -564.53248    12612.285    35586.993    43321.099   -41071.237      15.2149      13.1765      28.7324    5760.2466 
   82000       81.987    243.37713    10.161245   -574.68147   -564.52022    12521.371    36475.352    46840.517   -45751.755      15.2149      13.1765      28.7324    5760.2466 
   82500       82.487    239.04954    9.9805636   -574.48992   -564.50935    11711.723    32688.601    47222.897   -44776.329      15.2149      13.1765      28.7324    5760.2466 
   83000       82.987    238.16613    9.9436806   -574.44108    -564.4974    12071.322    33686.658    49398.635   -46871.325      15.2149      13.1765      28.7324    5760.2466 
   83500       83.487    251.79468    10.512686   -574.99835   -564.48567     12743.47    32461.771    45851.701   -40083.064      15.2149      13.1765      28.7324    5760.2466 
   84000       83.987    249.35858    10.410977   -574.88562   -564.47465    12942.774    35994.016    50157.489   -47323.182      15.2149      13.1765      28.7324    5760.2466 
   84500       84.487    239.99581    10.020071   -574.48224   -564.46217    13269.179    34028.901     44680.08   -38901.445      15.2149      13.1765      28.7324    5760.2466 
   85000       84.987    240.43543    10.038426   -574.48947   -564.45104    12956.052    32283.141    48305.877   -41720.862      15.2149      13.1765      28.7324    5760.2466 
   85500       85.487     232.3918    9.7025964   -574.14136   -564.43876    12979.803    35052.347     46136.31   -42249.248      15.2149      13.1765      28.7324    5760.2466 
   86000       85.987    249.23474    10.405806   -574.83336   -564.42756    13259.679    35612.697    46375.619   -42209.278      15.2149      13.1765      28.7324    5760.2466 
   86500       86.487    238.10963    9.9413214   -574.35636   -564.41503    12778.175    36624.398    46412.217   -44702.091      15.2149      13.1765      28.7324    5760.2466 
   87000       86.987    231.07948    9.6478056   -574.05085   -564.40304    12433.348    34577.664    47410.072   -44687.691      15.2149      13.1765      28.7324    5760.2466 
   87500       87.487    249.17218    10.403195   -574.79577   -564.39257     12897.09    31388.985    46043.649   -38741.363      15.2149      13.1765      28.7324    5760.2466 
   88000       87.987    240.68306    10.048765   -574.42771   -564.37895    12550.307    33418.491    45656.761   -41424.333      15.2149      13.1765      28.7324    5760.2466 
   88500       88.487    251.92378    10.518076   -574.88495   -564.36687    12502.877     31385.86    50071.331   -43948.559      15.2149      13.1765      28.7324    5760.2466 
   89000       88.987    242.88635    10.140754   -574.49557   -564.35481     11247.93    32788.867    46230.363   -45275.439      15.2149      13.1765      28.7324    5760.2466 
   89500       89.487     240.3603    10.035289   -574.37823   -564.34294    12225.438    34034.429    47299.319   -44657.435      15.2149      13.1765      28.7324    5760.2466 
   90000       89.987    236.34675    9.8677197   -574.19794   -564.33022    13452.394     34312.78    45279.504   -39235.101      15.2149      13.1765      28.7324    5760.2466 
   90500       90.487    241.40673    10.078979   -574.39723   -564.31825    13010.485    30975.144    49302.777   -41246.464      15.2149      13.1765      28.7324    5760.2466 
   91000       90.987    245.62496    10.255094   -574.56124   -564.30615    13010.358    32014.634    46825.735   -39809.293      15.2149      13.1765      28.7324    5760.2466 
   91500       91.487    252.18329    10.528911   -574.82268   -564.29376    11942.101    33100.894    46775.374   -44049.966      15.2149      13.1765      28.7324    5760.2466 
   92000       91.987    235.74312    9.8425174   -574.12394   -564.28143     12432.69    33565.366    48800.367   -45067.661      15.2149      13.1765      28.7324    5760.2466 
   92500       92.487    232.27767    9.6978314   -573.96627   -564.26844    13473.749    37326.519    45636.045   -42541.318      15.2149      13.1765      28.7324    5760.2466 
   93000       92.987     244.1099    10.191839   -574.44806   -564.25622    12081.615    32297.862    45926.407   -41979.426      15.2149      13.1765      28.7324    5760.2466 
   93500       93.487    242.11529    10.108562   -574.35209   -564.24352    12833.968    36956.885    45475.792   -43930.772      15.2149      13.1765      28.7324    5760.2466 
   94000       93.987    245.78171    10.261639   -574.49286   -564.23122    13416.368    33379.023    51101.151   -44231.072      15.2149      13.1765      28.7324    5760.2466 
   94500       94.487    242.81779    10.137892   -574.35679    -564.2189    12788.222    31605.713    49787.864   -43028.912      15.2149      13.1765      28.7324    5760.2466 
   95000       94.987    235.69934    9.8406893   -574.04561   -564.20492    13208.387    35932.067     47795.01   -44101.917      15.2149      13.1765      28.7324    5760.2466 
   95500       95.487    239.08683    9.9821207    -574.1742   -564.19208     11721.29    35496.245    45843.582   -46175.956      15.2149      13.1765      28.7324    5760.2466 
   96000       95.987    242.58763    10.128282   -574.30772   -564.17944    12518.661    32163.582    47864.594   -42472.192      15.2149      13.1765      28.7324    5760.2466 
   96500       96.487      239.402    9.9952794   -574.16191   -564.16663    13308.157    35306.547    47130.295   -42512.372      15.2149      13.1765      28.7324    5760.2466 
   97000       96.987    250.06519    10.440479   -574.59479   -564.15431    12715.388     32799.94    46799.463   -41453.241      15.2149      13.1765      28.7324    5760.2466 
   97500       97.487    250.62848    10.463997   -574.60456   -564.14057    13128.794    30177.899      47875.3   -38666.818      15.2149      13.1765      28.7324    5760.2466 
   98000       97.987    258.85473    10.807451   -574.93564   -564.12819    11744.098    30030.965    51470.743   -46269.416      15.2149      13.1765      28.7324    5760.2466 
   98500       98.487    248.38891    10.370492   -574.48507   -564.11458     12710.79    35773.419    45980.437   -43621.487      15.2149      13.1765      28.7324    5760.2466 
   99000       98.987    233.50755    9.7491802   -573.84999   -564.10081    11828.562    34071.953    47745.322   -46331.589      15.2149      13.1765      28.7324    5760.2466 
   99500       99.487    253.58592    10.587473    -574.6759   -564.08843    11716.825    35722.241    46897.105   -47468.871      15.2149      13.1765      28.7324    5760.2466 
  100000       99.987    251.15582    10.486013   -574.56049   -564.07447    12383.297    33739.595    49149.731   -45739.433      15.2149      13.1765      28.7324    5760.2466 
  100500      100.487    239.56726    10.002179    -574.0628   -564.06062    13482.724    35285.225    47731.925   -42568.978      15.2149      13.1765      28.7324    5760.2466 
  101000      100.987    245.01356    10.229568   -574.27685   -564.04728    12494.101    31242.809    46400.703   -40161.207      15.2149      13.1765      28.7324    5760.2466 
  101500      101.487    257.60693    10.755354   -574.78867   -564.03332    12845.318    34217.817    48828.664   -44510.527      15.2149      13.1765      28.7324    5760.2466 
  102000      101.987    245.25064    10.239466   -574.25991   -564.02044    12047.102    33541.201    49505.956   -46905.852      15.2149      13.1765      28.7324    5760.2466 
  102500      102.487    250.83118    10.472459    -574.4789   -564.00644    12030.551    35486.877     47301.32   -46696.544      15.2149      13.1765      28.7324    5760.2466 
  103000      102.987    240.22879    10.029799   -574.02323   -563.99343     11639.64    33258.022    47988.402   -46327.505      15.2149      13.1765      28.7324    5760.2466 
  103500      103.487    226.51022    9.4570344   -573.43533   -563.97829    11293.265     33833.94    48364.536    -48318.68      15.2149      13.1765      28.7324    5760.2466 
  104000      103.987    246.23224    10.280449   -574.24568   -563.96523    12387.781    34739.107    43187.239   -40763.004      15.2149      13.1765      28.7324    5760.2466 
  104500      104.487    252.29429    10.533546   -574.48524    -563.9517    12298.645     32837.68    46170.842   -42112.588      15.2149      13.1765      28.7324    5760.2466 
  105000      104.987    261.45908    10.916185   -574.85459   -563.93841    11923.617    33399.351    48351.049   -45979.548      15.2149      13.1765      28.7324    5760.2466 
  105500      105.487    249.98618     10.43718   -574.36053   -563.92335    12849.364     34685.78    48950.722   -45088.409      15.2149      13.1765      28.7324    5760.2466 
  106000      105.987    256.35086    10.702912    -574.6127   -563.90979    12177.708    32003.073    48017.739   -43487.689      15.2149      13.1765      28.7324    5760.2466 
  106500      106.487    250.17161    10.444922   -574.33961   -563.89469    11947.377    33918.101    43790.275   -41866.246      15.2149      13.1765      28.7324    5760.2466 
  107000      106.987    243.59287    10.170252   -574.05228   -563.88202    13987.326    31945.428    51378.241   -41361.692      15.2149      13.1765      28.7324    5760.2466 
  107500      107.487    238.96983    9.9772357   -573.84327   -563.86604    12068.519    34451.808    49859.373   -48105.624      15.2149      13.1765      28.7324    5760.2466 
  108000      107.987    257.91338    10.768149   -574.62106   -563.85291    13580.589    33666.368    47693.647   -40618.249      15.2149      13.1765      28.7324    5760.2466 
  108500      108.487    239.14284    9.9844591   -573.82317   -563.83871    12684.685    33614.867    48009.866   -43570.678      15.2149      13.1765      28.7324    5760.2466 
  109000      108.987    237.03238    9.8963452   -573.72067   -563.82433    14026.945    31635.507    48818.258    -38372.93      15.2149      13.1765      28.7324    5760.2466 
  109500      109.487    257.58789    10.754559   -574.56643   -563.81187    12156.207    33644.026    48633.953   -45809.358      15.2149      13.1765      28.7324    5760.2466 
  110000      109.987    248.06769    10.357081   -574.15323   -563.79615    11298.381    32780.362    46207.526   -45092.744      15.2149      13.1765      28.7324    5760.2466 
  110500      110.487    243.77326    10.177784   -573.95963   -563.78185    13660.334    34241.437    48585.656   -41846.091      15.2149      13.1765      28.7324    5760.2466 
  111000      110.987    253.65949    10.590544   -574.35808   -563.76753    13364.194    33328.771    51692.433   -44928.621      15.2149      13.1765      28.7324    5760.2466 
  111500      111.487    258.72252    10.801931   -574.55519   -563.75326    12212.962    31104.204    47561.054   -42026.373      15.2149      13.1765      28.7324    5760.2466 
  112000      111.987    254.37159    10.620275    -574.3589   -563.73863    12436.747     31058.29    45435.077   -39183.127      15.2149      13.1765      28.7324    5760.2466 
  112500      112.487    249.43642    10.414227   -574.13829   -563.72407    12186.793    33164.043     48165.94   -44769.605      15.2149      13.1765      28.7324    5760.2466 
  113000      112.987    243.46699    10.164997    -573.8747    -563.7097    13170.376    33688.979    42571.266   -36749.116      15.2149      13.1765      28.7324    5760.2466 
  113500      113.487    238.61819    9.9625544   -573.65684   -563.69428    11803.676    31700.012    49059.704   -45348.689      15.2149      13.1765      28.7324    5760.2466 
  114000      113.987    249.42335    10.413681   -574.09359   -563.67991    12122.207    31906.303    47203.315   -42742.997      15.2149      13.1765      28.7324    5760.2466 
  114500      114.487    254.88409    10.641672   -574.30788    -563.6662    11730.057    32525.919    45465.679   -42801.428      15.2149      13.1765      28.7324    5760.2466 
  115000      114.987    258.54393    10.794474   -574.44572   -563.65125    14121.126    35574.039     45782.25   -38992.911      15.2149      13.1765      28.7324    5760.2466 
  115500      115.487    253.16206    10.569776   -574.20501   -563.63524    12737.197    31022.433    54861.734   -47672.575      15.2149      13.1765      28.7324    5760.2466 
  116000      115.987    257.95133    10.769733   -574.39077   -563.62103    11041.356    33931.901     44432.36   -45240.194      15.2149      13.1765      28.7324    5760.2466 
  116500      116.487    255.28779    10.658527   -574.26458   -563.60606    12217.615    27852.099    48366.684   -39565.938      15.2149      13.1765      28.7324    5760.2466 
  117000      116.987    248.81334    10.388213   -573.97975   -563.59153    14058.647    36718.599    47544.558   -42087.215      15.2149      13.1765      28.7324    5760.2466 
  117500      117.487    254.37675     10.62049   -574.19728   -563.57679    12235.574    34974.359    43992.693   -42260.329      15.2149      13.1765      28.7324    5760.2466 
  118000      117.987     246.7891    10.303698   -573.86522   -563.56152    13148.364    35834.013    49263.473   -45652.394      15.2149      13.1765      28.7324    5760.2466 
  118500      118.487    254.88564    10.641737   -574.18845   -563.54671    11836.517    32321.123    49550.592   -46362.163      15.2149      13.1765      28.7324    5760.2466 
  119000      118.987    242.78647    10.136584   -573.66785   -563.53126    13044.931    34097.469     43640.64   -38603.316      15.2149      13.1765      28.7324    5760.2466 
  119500      119.487    246.85871    10.306605    -573.8226     -563.516    11221.417    34411.966    47214.808   -47962.523      15.2149      13.1765      28.7324    5760.2466 
  120000      119.987    242.48215    10.123879   -573.62511   -563.50124    13306.112    30928.396    48689.488   -39699.549      15.2149      13.1765      28.7324    5760.2466 
  120500      120.487     250.5819    10.462052   -573.94814   -563.48609    12973.261    32900.035      49402.5   -43382.752      15.2149      13.1765      28.7324    5760.2466 
  121000      120.987    238.03776    9.9383211   -573.40903   -563.47071    12490.345    33618.826    49005.238   -45153.029      15.2149      13.1765      28.7324    5760.2466 
  121500      121.487    263.06296    10.983149   -574.44052   -563.45737    12091.653    34852.859    44064.242   -42642.141      15.2149      13.1765      28.7324    5760.2466 
  122000      121.987    265.03989    11.065688    -574.5074   -563.44171    12869.466    35211.743    46246.236   -42849.581      15.2149      13.1765      28.7324    5760.2466 
  122500      122.487    242.80469    10.137345   -573.56271   -563.42536    12986.185    32074.242    48593.459   -41709.147      15.2149      13.1765      28.7324    5760.2466 
  123000      122.987    254.91217    10.642845    -574.0534   -563.41055    12712.553    35282.429    46963.727   -44108.496      15.2149      13.1765      28.7324    5760.2466 
  123500      123.487    245.09694    10.233049   -573.62875    -563.3957    12698.554    36172.109    49539.796   -47616.243      15.2149      13.1765      28.7324    5760.2466 
  124000      123.987    246.15272    10.277129   -573.65671   -563.37959    13233.394    31446.418    47563.931   -39310.167      15.2149      13.1765      28.7324    5760.2466 
  124500      124.487    269.25908    11.241843   -574.60852   -563.36668    12510.101     34678.99    46579.558   -43728.245      15.2149      13.1765      28.7324    5760.2466 
  125000      124.987    271.18174    11.322116   -574.67309   -563.35097    12178.107    33415.903    47318.089   -44199.672      15.2149      13.1765      28.7324    5760.2466 
  125500      125.487    256.27829    10.699882   -574.03477   -563.33489    12512.037    32826.965     46019.07   -41309.924      15.2149      13.1765      28.7324    5760.2466 
  126000      125.987     248.6577    10.381714   -573.70075   -563.31903    11527.896    33443.893    44225.387   -43085.593      15.2149      13.1765      28.7324    5760.2466 
  126500      126.487    260.73693    10.886035   -574.19038   -563.30434     12590.59    34804.807    46262.213   -43295.251      15.2149      13.1765      28.7324    5760.2466 
  127000      126.987    268.73798    11.220087   -574.50891   -563.28882     10929.33    33728.459    46428.179   -47368.649      15.2149      13.1765      28.7324    5760.2466 
  127500      127.487    265.61186    11.089568   -574.36247   -563.27291    12139.461    31644.013    49113.501    -44339.13      15.2149      13.1765      28.7324    5760.2466 
  128000      127.987    262.99068    10.980131    -574.2387   -563.25857    11576.166    32369.204    47866.649   -45507.356      15.2149      13.1765      28.7324    5760.2466 
  128500      128.487    254.01069    10.605207   -573.84717   -563.24196    12849.101    30240.533     49838.54   -41531.769      15.2149      13.1765      28.7324    5760.2466 
  129000      128.987    236.76472    9.8851703   -573.11112   -563.22595    14605.468    30851.617    48270.724   -35305.937      15.2149      13.1765      28.7324    5760.2466 
  129500      129.487    248.91845    10.392601   -573.60242   -563.20982    11868.965    35327.783    45652.845   -45373.734      15.2149      13.1765      28.7324    5760.2466 
  130000      129.987    263.22525    10.989924   -574.18568   -563.19575    13956.153     34942.83    46279.033   -39353.403      15.2149      13.1765      28.7324    5760.2466 
  130500      130.487      257.581    10.754271   -573.93423   -563.17996    12860.694    35234.415    46238.528   -42890.862      15.2149      13.1765      28.7324    5760.2466 
  131000      130.987    255.43866    10.664826   -573.82932   -563.16449    13017.201    33813.828    47987.657   -42749.883      15.2149      13.1765      28.7324    5760.2466 
  131500      131.487    263.64731    11.007546   -574.15717   -563.14963    13802.066    37636.149    49303.434   -45533.385      15.2149      13.1765      28.7324    5760.2466 
  132000      131.987    251.78248    10.512177   -573.64547   -563.13329    13503.175    33310.644    49209.241   -42010.359      15.2149      13.1765      28.7324    5760.2466 
  132500      132.487    253.70275     10.59235   -573.70995    -563.1176    12032.085    34185.471    49667.203    -47756.42      15.2149      13.1765      28.7324    5760.2466 
  133000      132.987    248.54498    10.377008    -573.4784   -563.10139    12522.103    32089.602    52048.615   -46571.909      15.2149      13.1765      28.7324    5760.2466 
  133500      133.487    262.58616    10.963242   -574.04881   -563.08557    12411.121    34089.835    48565.198   -45421.671      15.2149      13.1765      28.7324    5760.2466 
  134000      133.987    251.86069    10.515443   -573.58583   -563.07038    13972.619    31173.221    48812.665    -38068.03      15.2149      13.1765      28.7324    5760.2466 
  134500      134.487    255.00181    10.646587   -573.70075   -563.05417     11757.02    32922.262    47359.115   -45010.317      15.2149      13.1765      28.7324    5760.2466 
  135000      134.987    257.63446    10.756503    -573.7962    -563.0397    12136.991    37647.419    44917.172   -46153.617      15.2149      13.1765      28.7324    5760.2466 
  135500      135.487    256.52353    10.710121   -573.73408   -563.02396    12032.371    31734.411    49335.712   -44973.012      15.2149      13.1765      28.7324    5760.2466 
  136000      135.987    259.96913    10.853978   -573.86164   -563.00766    14515.885    36955.281    47897.885   -41305.512      15.2149      13.1765      28.7324    5760.2466 
  136500      136.487    266.18784    11.113616   -574.10542   -562.99181    11858.203    33800.635    46792.205    -45018.23      15.2149      13.1765      28.7324    5760.2466 
  137000      136.987    257.04405    10.731853   -573.70828   -562.97642    13331.151    30688.256    48460.408   -39155.211      15.2149      13.1765      28.7324    5760.2466 
  137500      137.487    265.71952    11.094063    -574.0541   -562.96004    10950.938    33456.797    47036.362   -47640.347      15.2149      13.1765      28.7324    5760.2466 
  138000      137.987     269.9866    11.272218   -574.21721   -562.94499    13139.042    33904.427    46653.856   -41141.156      15.2149      13.1765      28.7324    5760.2466 
  138500      138.487    266.09134    11.109587   -574.03869    -562.9291    13647.365    33699.187    46916.117    -39673.21      15.2149      13.1765      28.7324    5760.2466 
  139000      138.987    263.74717    11.011715    -573.9246   -562.91288    13106.654    37674.919    50632.783   -48987.742      15.2149      13.1765      28.7324    5760.2466 
  139500      139.487    252.24136    10.531336   -573.42792   -562.89658    12827.733    35260.531    49755.467   -46532.798      15.2149      13.1765      28.7324    5760.2466 
  140000      139.987    267.97805    11.188359   -574.06909   -562.88074    12979.723    33528.344    48764.371   -43353.547      15.2149      13.1765      28.7324    5760.2466 
  140500      140.487    269.37625    11.246735   -574.11156   -562.86482    13019.313    35262.326    49562.172    -45766.56      15.2149      13.1765      28.7324    5760.2466 
  141000      140.987    268.28377    11.201123   -574.05006   -562.84894    13020.396    35420.894    49022.878   -45382.583      15.2149      13.1765      28.7324    5760.2466 
  141500      141.487    248.45935    10.373433   -573.20642   -562.83299    13650.606    34793.886    47970.452    -41812.52      15.2149      13.1765      28.7324    5760.2466 
  142000      141.987     266.1373    11.111506   -573.92868   -562.81717    13376.924    32458.938    48372.151   -40700.318      15.2149      13.1765      28.7324    5760.2466 
  142500      142.487     257.2592    10.740836   -573.54238   -562.80154    12790.231    33052.432    50956.867   -45638.605      15.2149      13.1765      28.7324    5760.2466 
  143000      142.987     257.4909    10.750509   -573.53595   -562.78544    12323.614    35354.962    51368.034   -49752.154      15.2149      13.1765      28.7324    5760.2466 
  143500      143.487    245.75881    10.260683   -573.03031   -562.76963    13181.824    36416.983    47388.052   -44259.564      15.2149      13.1765      28.7324    5760.2466 
  144000      143.987    248.16422    10.361111   -573.11384   -562.75273    11155.732     29343.18    52564.615     -48440.6      15.2149      13.1765      28.7324    5760.2466 
  144500      144.487    260.62116    10.881201    -573.6189    -562.7377     12078.32    34450.821    50138.392   -48354.254      15.2149      13.1765      28.7324    5760.2466 
  145000      144.987    269.26478    11.242081   -573.96457   -562.72249    12826.862    37838.714    45148.613   -44506.741      15.2149      13.1765      28.7324    5760.2466 
  145500      145.487    261.36352    10.912195   -573.61839    -562.7062    13264.778    35527.175     51038.83   -46771.672      15.2149      13.1765      28.7324    5760.2466 
  146000      145.987     262.9496    10.978416   -573.66825   -562.68984    13207.212    34440.742    50452.792   -45271.898      15.2149      13.1765      28.7324    5760.2466 
  146500      146.487    261.17869    10.904478   -573.57802   -562.67355     12539.39    30642.319    47950.755   -40974.905      15.2149      13.1765      28.7324    5760.2466 
  147000      146.987    263.17487    10.987821   -573.64486   -562.65704    13470.579    33221.731    47965.084   -40775.076      15.2149      13.1765      28.7324    5760.2466 
  147500      147.487    255.71195    10.676237   -573.31632   -562.64008    13987.949    34793.402    47233.269   -40062.826      15.2149      13.1765      28.7324    5760.2466 
  148000      147.987    262.84167     10.97391   -573.59914   -562.62523    11414.966    33613.809    46350.737   -45719.646      15.2149      13.1765      28.7324    5760.2466 
  148500      148.487    262.83853    10.973778   -573.58293   -562.60915    13373.798    36927.579    48616.467   -45422.653      15.2149      13.1765      28.7324    5760.2466 
  149000      148.987    261.61876    10.922852   -573.51528   -562.59243    12519.231    36277.696    50945.915   -49665.919      15.2149      13.1765      28.7324    5760.2466 
  149500      149.487    272.14956    11.362524   -573.94004   -562.57752    13010.302    34001.465    48537.071   -43507.631      15.2149      13.1765      28.7324    5760.2466 
  150000      149.987    264.51774    11.043887   -573.60398   -562.56009    11778.363    34179.278    47879.048   -46723.236      15.2149      13.1765      28.7324    5760.2466 
  150500      150.487    279.47099    11.668201    -574.2127    -562.5445    12209.636    32208.377    47425.223   -43004.693      15.2149      13.1765      28.7324    5760.2466 
  151000      150.987    263.50401    11.001563   -573.52861   -562.52704    12615.531    34977.272    52265.512   -49396.193      15.2149      13.1765      28.7324    5760.2466 
  151500      151.487    257.31919    10.743341   -573.25449   -562.51115    12839.511    37264.741    52698.528   -51444.735      15.2149      13.1765      28.7324    5760.2466 
  152000      151.987    271.34356    11.328872   -573.82396   -562.49509    12859.319    36660.899    46868.781   -44951.723      15.2149      13.1765      28.7324    5760.2466 
  152500      152.487    269.98329     11.27208   -573.75053   -562.47845    13003.417    36718.709    49462.129   -47170.589      15.2149      13.1765      28.7324    5760.2466 
  153000      152.987    255.58091    10.670765   -573.13298   -562.46222     12012.27    37324.296    47449.346   -48736.831      15.2149      13.1765      28.7324    5760.2466 
  153500      153.487    263.10232    10.984792   -573.43035   -562.44555    13301.297    34230.801    49858.093   -44185.003      15.2149      13.1765      28.7324    5760.2466 
  154000      153.987    280.66156    11.717908   -574.14782   -562.42992    13099.397     35923.42    47998.306   -44623.535      15.2149      13.1765      28.7324    5760.2466 
  154500      154.487    264.32351    11.035778     -573.449   -562.41323    13569.374    29627.429    52081.031   -41000.336      15.2149      13.1765      28.7324    5760.2466 
  155000      154.987    278.52182    11.628572   -574.02534   -562.39677    13839.365    33231.134    49502.731   -41215.769      15.2149      13.1765      28.7324    5760.2466 
  155500      155.487    263.38712    10.996683   -573.37704   -562.38035    12672.528    37885.951    45553.519   -45421.887      15.2149      13.1765      28.7324    5760.2466 
  156000      155.987    260.82988    10.889915   -573.25282    -562.3629    11519.804     31750.17    45757.224   -42947.981      15.2149      13.1765      28.7324    5760.2466 
  156500      156.487    277.28554    11.576956   -573.92441   -562.34745    13304.468    33643.257    43801.923   -37531.776      15.2149      13.1765      28.7324    5760.2466 
  157000      156.987     251.1925    10.487545   -572.81723   -562.32969    13179.869    34626.652    47172.719   -42259.764      15.2149      13.1765      28.7324    5760.2466 
  157500      157.487    252.71707    10.551197   -572.86398   -562.31278    14374.142    36286.302    50152.961   -43316.837      15.2149      13.1765      28.7324    5760.2466 
  158000      157.987    257.01661    10.730707   -573.02749   -562.29678    12583.418    35500.551    52995.391   -50745.688      15.2149      13.1765      28.7324    5760.2466 
  158500      158.487    263.48859    11.000919   -573.28148   -562.28056    12636.488    33033.289    50656.085   -45779.909      15.2149      13.1765      28.7324    5760.2466 
  159000      158.987     263.9374    11.019657    -573.2832   -562.26355    11981.848    34819.914    48845.953   -47720.324      15.2149      13.1765      28.7324    5760.2466 
  159500      159.487    274.73484    11.470462   -573.71897   -562.24851    13693.122    39450.336    48114.379    -46485.35      15.2149      13.1765      28.7324    5760.2466 
  160000      159.987    279.90069    11.686141   -573.91793   -562.23179    13417.204    34056.815    50432.308   -44237.512      15.2149      13.1765      28.7324    5760.2466 
  160500      160.487    275.00153    11.481596   -573.69626   -562.21466    12853.319    36382.793    46245.137   -44067.973      15.2149      13.1765      28.7324    5760.2466 
  161000      160.987    272.53013    11.378413   -573.57591    -562.1975    13161.222    37125.987    50335.633   -47977.953      15.2149      13.1765      28.7324    5760.2466 
  161500      161.487    277.29558    11.577375   -573.75841   -562.18104    13674.728    35505.802    53802.256   -48283.874      15.2149      13.1765      28.7324    5760.2466 
  162000      161.987    278.77338    11.639075   -573.80366   -562.16459    10862.594     32471.98    48427.277   -48311.475      15.2149      13.1765      28.7324    5760.2466 
  162500      162.487    276.25312    11.533851   -573.68181   -562.14795    12962.363    32848.626    50675.417   -44636.954      15.2149      13.1765      28.7324    5760.2466 
  163000      162.987    271.84144    11.349659   -573.48163   -562.13197    13049.012    38391.831    50568.818   -49813.611      15.2149      13.1765      28.7324    5760.2466 
  163500      163.487    276.50573    11.544398   -573.66016   -562.11576    13570.144    35717.866    50560.775   -45568.208      15.2149      13.1765      28.7324    5760.2466 
  164000      163.987    276.51508    11.544788   -573.64308    -562.0983    12724.124    34319.931    51045.364   -47192.921      15.2149      13.1765      28.7324    5760.2466 
  164500      164.487    262.89804    10.976263   -573.05721   -562.08094    13119.272    35607.159     51813.66   -48063.004      15.2149      13.1765      28.7324    5760.2466 
  165000      164.987      278.071     11.60975   -573.67544   -562.06569    12485.065    37031.439    50635.558   -50211.802      15.2149      13.1765      28.7324    5760.2466 
  165500      165.487    265.90531     11.10182    -573.1494   -562.04758    12686.241    36573.481    49303.518   -47818.275      15.2149      13.1765      28.7324    5760.2466 
  166000      165.987    272.93287    11.395228   -573.42631   -562.03108    12641.371    34583.847    49911.572   -46571.305      15.2149      13.1765      28.7324    5760.2466 
  166500      166.487    261.95761    10.936999   -572.95185   -562.01485    12663.299    34696.549    43422.945   -40129.597      15.2149      13.1765      28.7324    5760.2466 
  167000      166.987    282.04701    11.775752   -573.77317   -561.99742    13746.918    32281.285    48697.462   -39737.993      15.2149      13.1765      28.7324    5760.2466 
  167500      167.487    274.31239    11.452824   -573.43409   -561.98127    12927.938    36820.426    45297.244   -43333.858      15.2149      13.1765      28.7324    5760.2466 
  168000      167.987    278.37749    11.622546   -573.58709   -561.96454    12941.391    35739.467    47713.937    -44629.23      15.2149      13.1765      28.7324    5760.2466 
  168500      168.487    281.63344    11.758485   -573.70584   -561.94736    13018.493    39145.941     47143.78   -47234.242      15.2149      13.1765      28.7324    5760.2466 
  169000      168.987    274.90904    11.477735   -573.40841   -561.93067    11754.144    31670.649    49598.972    -46007.19      15.2149      13.1765      28.7324    5760.2466 
  169500      169.487    286.23545    11.950624    -573.8649   -561.91427     13435.31    34018.464    47011.799   -40724.333      15.2149      13.1765      28.7324    5760.2466 
  170000      169.987    257.98765    10.771249   -572.66749   -561.89624    11416.415    34132.773    46692.014   -46575.542      15.2149      13.1765      28.7324    5760.2466 
  170500      170.487    276.94412    11.562702   -573.44289   -561.88019     15063.88    35879.158    49561.067   -40248.585      15.2149      13.1765      28.7324    5760.2466 
  171000      170.987    283.37514    11.831203   -573.69489   -561.86369     13289.09    37729.294    46053.129   -43915.153      15.2149      13.1765      28.7324    5760.2466 
  171500      171.487    279.10475     11.65291   -573.50005   -561.84714    12498.268    33171.117     49165.15   -44841.464      15.2149      13.1765      28.7324    5760.2466 
  172000      171.987    266.99567    11.147344   -572.97651   -561.82917    13701.544    37153.991    47340.632   -43389.992      15.2149      13.1765      28.7324    5760.2466 
  172500      172.487    267.88092    11.184303   -572.99635   -561.81205     13335.16    36228.982    49294.264   -45517.767      15.2149      13.1765      28.7324    5760.2466 
  173000      172.987    276.29542    11.535617   -573.33156   -561.79594    12599.212    36278.306    44121.281   -42601.951      15.2149      13.1765      28.7324    5760.2466 
  173500      173.487    270.87422    11.309277   -573.08844   -561.77916    13757.568    38309.391    47487.817   -44524.505      15.2149      13.1765      28.7324    5760.2466 
  174000      173.987    274.96543    11.480089   -573.24271   -561.76262    12582.867    31047.263    45294.206    -38592.87      15.2149      13.1765      28.7324    5760.2466 
  174500      174.487     261.1132    10.901744   -572.64646   -561.74471    13028.887    33929.741    50723.656   -45566.737      15.2149      13.1765      28.7324    5760.2466 
  175000      174.987    295.15756    12.323131   -574.05236   -561.72923    13701.478    35163.637    47239.925   -41299.129      15.2149      13.1765      28.7324    5760.2466 
  175500      175.487    296.79093    12.391326   -574.10284   -561.71151    13089.502    33691.862     47389.31   -41812.667      15.2149      13.1765      28.7324    5760.2466 
  176000      175.987    282.42938    11.791717   -573.48682    -561.6951    13231.132    33262.298    45455.916   -39024.817      15.2149      13.1765      28.7324    5760.2466 
  176500      176.487    278.09059    11.610568   -573.28865   -561.67808    13771.805    32799.042    49888.902   -41372.528      15.2149      13.1765      28.7324    5760.2466 
  177000      176.987    248.86518    10.390377   -572.05089   -561.66051    12884.201    34584.404    49442.254   -45374.056      15.2149      13.1765      28.7324    5760.2466 
  177500      177.487    253.66151    10.590629   -572.23337   -561.64274    12864.616    32011.124    53209.547   -46626.824      15.2149      13.1765      28.7324    5760.2466 
  178000      177.987    278.69434    11.635775    -573.2633   -561.62753     13044.14    35266.118    49212.297   -45345.996      15.2149      13.1765      28.7324    5760.2466 
  178500      178.487    259.56089    10.836934   -572.44679   -561.60986    13196.667    36602.917    50139.608   -47152.524      15.2149      13.1765      28.7324    5760.2466 
  179000      178.987    264.09022    11.026038   -572.61907   -561.59303    14139.345    33860.219     51104.34   -42546.526      15.2149      13.1765      28.7324    5760.2466 
  179500      179.487     280.5804     11.71452   -573.29109   -561.57657    12746.143    33413.872    46936.365   -42111.808      15.2149      13.1765      28.7324    5760.2466 
  180000      179.987    284.35195    11.871986   -573.43161   -561.55963    13358.233    33975.395    49502.351   -43403.049      15.2149      13.1765      28.7324    5760.2466 
  180500      180.487    257.54302    10.752686   -572.29451   -561.54183    14380.353    38453.958    48362.149   -43675.047      15.2149      13.1765      28.7324    5760.2466 
  181000      180.987    265.91166    11.102085   -572.62667   -561.52458    14526.094    34653.302    45847.102   -36922.123      15.2149      13.1765      28.7324    5760.2466 
  181500      181.487    267.20113    11.155922   -572.66365   -561.50773    13328.032    36591.395    49766.671    -46373.97      15.2149      13.1765      28.7324    5760.2466 
  182000      181.987    264.46025    11.041487   -572.53221   -561.49072    13256.616    36974.369    46689.207   -43893.728      15.2149      13.1765      28.7324    5760.2466 
  182500      182.487    278.00243    11.606887   -573.08165   -561.47477    13213.598    30375.298    47300.377    -38034.88      15.2149      13.1765      28.7324    5760.2466 
  183000      182.987    284.04229    11.859057   -573.31619   -561.45714    12629.485    35234.994    51173.595   -48520.134      15.2149      13.1765      28.7324    5760.2466 
  183500      183.487     272.4917    11.376808   -572.81575   -561.43894    12987.763    35421.817    45543.813    -42002.34      15.2149      13.1765      28.7324    5760.2466 
  184000      183.987    276.15365    11.529699   -572.95215   -561.42245     14093.44    32253.133    45157.186   -35129.999      15.2149      13.1765      28.7324    5760.2466 
  184500      184.487    285.15129    11.905359   -573.31188   -561.40652    14511.854    32697.954    53241.534   -42403.927      15.2149      13.1765      28.7324    5760.2466 
  185000      184.987    281.37527    11.747707   -573.13604   -561.38833    13127.925    33813.395    51100.651    -45530.27      15.2149      13.1765      28.7324    5760.2466 
  185500      185.487    286.43298    11.958871   -573.33063   -561.37176    12961.039    37417.581     49581.31   -48115.773      15.2149      13.1765      28.7324    5760.2466 
  186000      185.987    272.00242    11.356381   -572.70952   -561.35314    14280.318    38698.771    47515.968   -43373.786      15.2149      13.1765      28.7324    5760.2466 
  186500      186.487    265.82969    11.098663   -572.43439   -561.33573    13161.293     31492.81     45354.57   -37363.501      15.2149      13.1765      28.7324    5760.2466 
  187000      186.987     282.2774    11.785372   -573.10556   -561.32019    13583.742    35368.103    47912.835   -42529.711      15.2149      13.1765      28.7324    5760.2466 
  187500      187.487    272.19923    11.364597   -572.66742   -561.30283    13010.439    33677.957    47891.319    -42537.96      15.2149      13.1765      28.7324    5760.2466 
  188000      187.987    289.01668    12.066743   -573.35226   -561.28551    13361.182    33288.286    49827.365   -43032.105      15.2149      13.1765      28.7324    5760.2466 
  188500      188.487    285.43216    11.917086   -573.18599   -561.26891    13295.675    34124.766    47533.948   -41771.688      15.2149      13.1765      28.7324    5760.2466 
  189000      188.987    272.78284    11.388963   -572.64014   -561.25118    13416.457    34943.214    49074.374   -43768.218      15.2149      13.1765      28.7324    5760.2466 
  189500      189.487     280.4151    11.707619   -572.94199   -561.23437    13640.636     35665.98    44254.126   -38998.198      15.2149      13.1765      28.7324    5760.2466 
  190000      189.987    275.07895    11.484829   -572.70089   -561.21606    13920.446    38082.756    48654.937   -44976.355      15.2149      13.1765      28.7324    5760.2466 
  190500      190.487    289.69838    12.095205   -573.29552   -561.20031    15212.845    34643.599     53448.31   -42453.376      15.2149      13.1765      28.7324    5760.2466 
  191000      190.987     286.0041    11.940965    -573.1231   -561.18213    13393.365    29008.294    48950.511    -37778.71      15.2149      13.1765      28.7324    5760.2466 
  191500      191.487    279.94815    11.688123   -572.85314   -561.16502     13671.66    38251.566    46310.714   -43547.299      15.2149      13.1765      28.7324    5760.2466 
  192000      191.987    265.18933    11.071927   -572.21893     -561.147    13208.683     34085.51    49037.051   -43496.513      15.2149      13.1765      28.7324    5760.2466 
  192500      192.487    278.86454    11.642881   -572.77374   -561.13086    13813.915    36884.658    49656.205   -45099.118      15.2149      13.1765      28.7324    5760.2466 
  193000      192.987    305.12702    12.739367   -573.85415   -561.11478    13719.624    34179.911    48698.697   -41719.736      15.2149      13.1765      28.7324    5760.2466 
  193500      193.487    294.64421    12.301698    -573.3985    -561.0968    12799.609    35001.637     46869.45   -43472.261      15.2149      13.1765      28.7324    5760.2466 
  194000      193.987    294.38238    12.290767   -573.36998   -561.07921    11817.012    37376.486     45972.27   -47897.719      15.2149      13.1765      28.7324    5760.2466 
  194500      194.487     286.9786    11.981651   -573.04322   -561.06157    14845.357    36409.853    49378.643   -41252.425      15.2149      13.1765      28.7324    5760.2466 
  195000      194.987    277.38619    11.581158   -572.62444   -561.04328    12825.366    34732.875    47755.824     -44012.6      15.2149      13.1765      28.7324    5760.2466 
  195500      195.487    282.50451    11.794854   -572.82257   -561.02771    13489.381    33302.402    47278.751   -40113.009      15.2149      13.1765      28.7324    5760.2466 
  196000      195.987    278.15105    11.613092   -572.62161   -561.00852    13996.354    34260.474    51493.463   -43764.874      15.2149      13.1765      28.7324    5760.2466 
  196500      196.487    285.23012     11.90865   -572.90069   -560.99204    13353.704    32468.078     49077.23   -41484.196      15.2149      13.1765      28.7324    5760.2466 
  197000      196.987    279.37213    11.664073   -572.63833   -560.97425      14120.4    34614.929    49347.646   -41601.375      15.2149      13.1765      28.7324    5760.2466 
  197500      197.487    282.64968    11.800914   -572.75752    -560.9566    13004.135    37992.391    43719.968   -42699.955      15.2149      13.1765      28.7324    5760.2466 
  198000      197.987     286.6594    11.968324   -572.90818   -560.93986    13408.326    37548.904    46318.551   -43642.478      15.2149      13.1765      28.7324    5760.2466 
  198500      198.487    262.11282    10.943479   -571.86512   -560.92164    14933.794    32955.587    50253.359   -38407.565      15.2149      13.1765      28.7324    5760.2466 
  199000      198.987    292.03698    12.192844   -573.09782   -560.90498    13078.385    34129.783    46302.916   -41197.545      15.2149      13.1765      28.7324    5760.2466 
  199500      199.487     301.6091     12.59249   -573.47947   -560.88698    12632.156    35115.616    52083.774   -49302.924      15.2149      13.1765      28.7324    5760.2466 
  200000      199.987     296.6048    12.383555   -573.25341   -560.86986    13227.397    37891.294    47158.041   -45367.144      15.2149      13.1765      28.7324    5760.2466 
  200500      200.487    291.14392    12.155558   -573.00757   -560.85201    13207.567    33228.144    49180.406   -42785.851      15.2149      13.1765      28.7324    5760.2466 
  201000      200.987    286.62841     11.96703   -572.80074   -560.83371    12733.204    33536.402    51224.585   -46561.374      15.2149      13.1765      28.7324    5760.2466 
  201500      201.487     281.2325    11.741745    -572.5582   -560.81645    12924.718    34955.005    43800.466   -39981.318      15.2149      13.1765      28.7324    5760.2466 
  202000      201.987    296.55305    12.381394   -573.18093   -560.79954    12957.953    33445.131     45941.91   -40513.181      15.2149      13.1765      28.7324    5760.2466 
  202500      202.487    275.77836     11.51403   -572.29554   -560.78151    14028.841    31949.263    49002.898   -38865.637      15.2149      13.1765      28.7324    5760.2466 
  203000      202.987    296.59026    12.382948   -573.14744   -560.76449    13559.883     34295.79    51124.308    -44740.45      15.2149      13.1765      28.7324    5760.2466 
  203500      203.487    283.47897    11.835538   -572.58084    -560.7453    13134.298    35943.212    51084.265   -47624.584      15.2149      13.1765      28.7324    5760.2466 
  204000      203.987    284.36798    11.872655   -572.60141   -560.72875    11886.545     34404.15    46298.115    -45042.63      15.2149      13.1765      28.7324    5760.2466 
  204500      204.487    287.91677    12.020821   -572.73278   -560.71195    13382.107    34798.321    50988.635   -45640.636      15.2149      13.1765      28.7324    5760.2466 
  205000      204.987    269.45096    11.249854   -571.94246   -560.69261    12480.465    36001.395    47487.063   -46047.062      15.2149      13.1765      28.7324    5760.2466 
  205500      205.487    279.89041    11.685712   -572.36193   -560.67622    15544.442     35526.82    49651.944   -38545.436      15.2149      13.1765      28.7324    5760.2466 
  206000      205.987    284.54251    11.879942   -572.53852   -560.65857    12093.854    34942.057    47067.079   -45727.576      15.2149      13.1765      28.7324    5760.2466 
  206500      206.487    292.48808    12.211678   -572.85318   -560.64151    13528.459    36681.162    51281.179   -47376.964      15.2149      13.1765      28.7324    5760.2466 
  207000      206.987    266.40642    11.122742   -571.74499   -560.62224    13661.186    34296.976    47726.942   -41040.359      15.2149      13.1765      28.7324    5760.2466 
  207500      207.487    287.13822    11.988316   -572.59404   -560.60572    13906.391    35324.107    49832.638   -43437.571      15.2149      13.1765      28.7324    5760.2466 
  208000      207.987    289.84415    12.101291   -572.68803   -560.58674    13830.979    33713.186    52105.744   -44325.994      15.2149      13.1765      28.7324    5760.2466 
  208500      208.487    284.99387    11.898787   -572.46806   -560.56928    13781.272     34541.44    49675.503   -42873.127      15.2149      13.1765      28.7324    5760.2466 
  209000      208.987    293.79056    12.266057   -572.81684   -560.55078     12968.94    36667.597    49164.189   -46924.965      15.2149      13.1765      28.7324    5760.2466 
  209500      209.487    288.85255     12.05989   -572.59322   -560.53333    13435.217    35876.871     50290.64   -45861.862      15.2149      13.1765      28.7324    5760.2466 
  210000      209.987    304.83525    12.727185   -573.24344   -560.51626    12974.444    37679.853    47571.593   -46328.114      15.2149      13.1765      28.7324    5760.2466 
  210500      210.487    277.65388    11.592334   -572.08916   -560.49683    13001.506    33891.483    49287.447   -44174.412      15.2149      13.1765      28.7324    5760.2466 
  211000      210.987     293.8259    12.267533   -572.74774   -560.48021    13520.196     34372.18    49769.419   -43581.012      15.2149      13.1765      28.7324    5760.2466 
  211500      211.487    277.09954     11.56919   -572.03127   -560.46208    14011.986    32726.695    52536.832   -43227.568      15.2149      13.1765      28.7324    5760.2466 
  212000      211.987    291.92164    12.188028   -572.63187   -560.44384    12593.372    33065.826     48751.12   -44036.829      15.2149      13.1765      28.7324    5760.2466 
[...]
  948500      948.487     381.7653    15.939093   -569.37862   -553.43953    15417.872    39193.437    51018.554   -43958.375      15.2149      13.1765      28.7324    5760.2466 
  949000      948.987    364.26367    15.208382   -568.64664   -553.43826    15017.325    42735.354    47584.287   -45267.664      15.2149      13.1765      28.7324    5760.2466 
  949500      949.487    372.51579    15.552917   -568.98923   -553.43631    15396.191    37776.506    53819.257   -45407.191      15.2149      13.1765      28.7324    5760.2466 
  950000      949.987    381.70106    15.936411   -569.37172    -553.4353    13889.432    40080.416    51217.612   -49629.732      15.2149      13.1765      28.7324    5760.2466 
  950500      950.487    370.59327     15.47265   -568.90508   -553.43243    15192.576    39010.912    47821.905   -41255.088      15.2149      13.1765      28.7324    5760.2466 
  951000      950.987    374.87349    15.651353   -569.08249   -553.43114    15303.445    38543.427    50338.903   -42971.993      15.2149      13.1765      28.7324    5760.2466 
  951500      951.487    374.26542    15.625966   -569.05667   -553.43071    15417.787    39741.991    50694.773   -44183.404      15.2149      13.1765      28.7324    5760.2466 
  952000      951.987    365.00462    15.239318   -568.66681    -553.4275    15513.296     39568.42    51505.575   -44534.105      15.2149      13.1765      28.7324    5760.2466 
  952500      952.487    370.87198    15.484286   -568.90996   -553.42568    15469.598     39325.79    41754.523   -34671.517      15.2149      13.1765      28.7324    5760.2466 
  953000      952.987    365.56353    15.262653   -568.68586   -553.42321    16887.829    36350.861    56202.587   -41889.962      15.2149      13.1765      28.7324    5760.2466 
  953500      953.487    377.63544    15.766667   -569.18734   -553.42068    14766.267    37522.551    53997.557   -47221.306      15.2149      13.1765      28.7324    5760.2466 
  954000      953.987    371.88116     15.52642   -568.94493   -553.41851    15440.407    34835.918     55759.74   -44274.435      15.2149      13.1765      28.7324    5760.2466 
  954500      954.487    388.19368    16.207485   -569.62482   -553.41734    14924.838    38102.947    53673.844   -47002.276      15.2149      13.1765      28.7324    5760.2466 
  955000      954.987    375.86221    15.692633   -569.10737   -553.41473    16355.942    36837.967    48935.753   -36705.894      15.2149      13.1765      28.7324    5760.2466 
  955500      955.487    372.45308    15.550299   -568.96412   -553.41382    15239.597     43383.28    47329.166   -44993.655      15.2149      13.1765      28.7324    5760.2466 
  956000      955.987    382.88284    15.985752   -569.39577   -553.41001    15269.677    41481.262    52799.308   -48471.538      15.2149      13.1765      28.7324    5760.2466 
  956500      956.487     374.6504    15.642039   -569.04928   -553.40724    16319.345    40718.943    45301.813   -37062.722      15.2149      13.1765      28.7324    5760.2466 
  957000      956.987    371.79586    15.522859   -568.92895   -553.40609    14698.799    36276.738    53193.975   -45374.315      15.2149      13.1765      28.7324    5760.2466 
  957500      957.487    369.24579    15.416391   -568.81958   -553.40319    15733.328    38756.732    55888.641    -47445.39      15.2149      13.1765      28.7324    5760.2466 
  958000      957.987     378.9491    15.821514   -569.22217   -553.40065    14697.486    37035.016    52703.839   -45646.398      15.2149      13.1765      28.7324    5760.2466 
  958500      958.487    364.49617     15.21809   -568.61713   -553.39904    14860.966     36165.03    54505.488   -46087.621      15.2149      13.1765      28.7324    5760.2466 
  959000      958.987    368.49631    15.385099   -568.77928   -553.39418    16804.839    37889.235    49967.028   -37441.747      15.2149      13.1765      28.7324    5760.2466 
  959500      959.487    381.71165    15.936853   -569.32871   -553.39186    15157.049    35008.174    49790.173     -39327.2      15.2149      13.1765      28.7324    5760.2466 
  960000      959.987    356.11748     14.86827   -568.25657    -553.3883     13751.85    35386.237    48346.444   -42477.131      15.2149      13.1765      28.7324    5760.2466 
  960500      960.487    378.01387    15.782467   -569.16799   -553.38552    12832.173    39645.922    50335.886   -51485.288      15.2149      13.1765      28.7324    5760.2466 
  961000      960.987    372.88839    15.568473   -568.95237   -553.38389    14501.552    37571.619    49086.151   -43153.114      15.2149      13.1765      28.7324    5760.2466 
  961500      961.487    379.00373    15.823795   -569.20471   -553.38091    14241.467    38197.561     43470.41   -38943.569      15.2149      13.1765      28.7324    5760.2466 
  962000      961.987    369.01019    15.406555   -568.78335   -553.37679    14741.355    36383.397    50350.444   -42509.775      15.2149      13.1765      28.7324    5760.2466 
  962500      962.487    356.12322     14.86851   -568.24151     -553.373    15635.795    37019.013    53758.265   -43869.891      15.2149      13.1765      28.7324    5760.2466 
  963000      962.987    375.79017    15.689626   -569.06077   -553.37114    14622.765    36289.837    52059.504   -44481.047      15.2149      13.1765      28.7324    5760.2466 
  963500      963.487    362.60118    15.138971   -568.50724   -553.36827    12922.499    33564.582    50295.589   -45092.675      15.2149      13.1765      28.7324    5760.2466 
  964000      963.987    361.64023    15.098851    -568.4639   -553.36505     14163.84    35291.897    47912.934   -40713.311      15.2149      13.1765      28.7324    5760.2466 
  964500      964.487    377.50963    15.761415   -569.12156   -553.36015    15564.697    35220.811    51909.687   -40436.406      15.2149      13.1765      28.7324    5760.2466 
  965000      964.987    381.71467    15.936979   -569.29586   -553.35889    15011.277    38655.392    54617.066   -48238.627      15.2149      13.1765      28.7324    5760.2466 
  965500      965.487    382.70123    15.978169   -569.33377    -553.3556    16006.764    35855.108    54244.105   -42078.922      15.2149      13.1765      28.7324    5760.2466 
  966000      965.987     371.7771    15.522076   -568.87196   -553.34988    15857.812    41076.373    55275.529   -48778.467      15.2149      13.1765      28.7324    5760.2466 
  966500      966.487     353.4274    14.755957   -568.10442   -553.34846    14588.998    38419.981    48347.134   -43000.122      15.2149      13.1765      28.7324    5760.2466 
  967000      966.987    372.39583    15.547908   -568.89289   -553.34498    15448.005    42770.187    51348.382   -47774.553      15.2149      13.1765      28.7324    5760.2466 
  967500      967.487    378.86357    15.817943   -569.15855   -553.34061    16848.799    45874.846    50284.635   -45613.085      15.2149      13.1765      28.7324    5760.2466 
  968000      967.987    382.02661    15.950003   -569.28805   -553.33804    14430.253    37557.908    47245.962   -41513.111      15.2149      13.1765      28.7324    5760.2466 
  968500      968.487    373.77572     15.60552   -568.93878   -553.33326    14252.961    41164.213    48863.433   -47268.762      15.2149      13.1765      28.7324    5760.2466 
  969000      968.987    383.50816    16.011859   -569.34256    -553.3307     14277.96    36926.615    47817.324   -41910.059      15.2149      13.1765      28.7324    5760.2466 
  969500      969.487    365.93983    15.278364   -568.60504   -553.32668    14380.652    39171.345    51112.319   -47141.709      15.2149      13.1765      28.7324    5760.2466 
  970000      969.987    359.18221    14.996226   -568.32128   -553.32505    15100.054    36205.581    47661.966   -38567.384      15.2149      13.1765      28.7324    5760.2466 
  970500      970.487    381.10738    15.911624   -569.23183    -553.3202    14539.032    39427.054    50370.516   -46180.473      15.2149      13.1765      28.7324    5760.2466 
  971000      970.987    379.79765    15.856942   -569.17227   -553.31533    14422.392    40911.415    47141.899   -44786.137      15.2149      13.1765      28.7324    5760.2466 
  971500      971.487    367.86772    15.358855   -568.67022   -553.31137    15212.704    38590.016    48243.168   -41195.072      15.2149      13.1765      28.7324    5760.2466 
  972000      971.987    380.88815    15.902471   -569.21208   -553.30961    13508.997    37371.206    46903.201   -43747.417      15.2149      13.1765      28.7324    5760.2466 
  972500      972.487    361.86077    15.108059   -568.41264   -553.30459     15117.55    39161.635    53552.953   -47361.937      15.2149      13.1765      28.7324    5760.2466 
  973000      972.987    368.94161    15.403691   -568.70543   -553.30174     15739.84    37372.095    51125.859   -41278.433      15.2149      13.1765      28.7324    5760.2466 
  973500      973.487    387.42672    16.175463   -569.47227    -553.2968    15539.679    36216.384    53305.426   -42902.773      15.2149      13.1765      28.7324    5760.2466 
  974000      973.987    375.08448    15.660162   -568.95479   -553.29463    16013.815    33222.169    54551.184   -39731.906      15.2149      13.1765      28.7324    5760.2466 
  974500      974.487    366.76581    15.312849   -568.60277   -553.28992    15237.774    35407.734    53899.498   -43593.909      15.2149      13.1765      28.7324    5760.2466 
  975000      974.987    359.64488    15.015543   -568.30083   -553.28528    15693.629    38868.317    52283.933   -44071.363      15.2149      13.1765      28.7324    5760.2466 
  975500      975.487    398.67044      16.6449   -569.92895   -553.28405    16705.475    41599.051    49164.709   -40647.335      15.2149      13.1765      28.7324    5760.2466 
  976000      975.987    371.18868    15.497509   -568.77607   -553.27856    14600.325    40461.952     49428.92   -46089.898      15.2149      13.1765      28.7324    5760.2466 
  976500      976.487    402.59941    16.808939   -570.08475   -553.27581    16946.135    36044.251     58177.35   -43383.196      15.2149      13.1765      28.7324    5760.2466 
  977000      976.987     376.7112    15.728079   -568.99806   -553.26998    16309.883    38073.032    50443.177    -39586.56      15.2149      13.1765      28.7324    5760.2466 
  977500      977.487    368.53021    15.386515   -568.65183   -553.26532    15046.928    38132.724     51300.71   -44292.649      15.2149      13.1765      28.7324    5760.2466 
  978000      977.987    392.27048    16.377695   -569.63987   -553.26218    14440.998    33669.205    53516.165   -43862.377      15.2149      13.1765      28.7324    5760.2466 
  978500      978.487    368.70045    15.393622   -568.65116   -553.25754    15117.584    41961.026    50559.322   -47167.596      15.2149      13.1765      28.7324    5760.2466 
  979000      978.987    381.67256    15.935221   -569.18725   -553.25202    14334.588    40438.284    48696.256   -46130.776      15.2149      13.1765      28.7324    5760.2466 
  979500      979.487    383.81457    16.024652   -569.27333   -553.24868    13829.125    37133.427    49222.525   -44868.577      15.2149      13.1765      28.7324    5760.2466 
  980000      979.987    385.39289    16.090549   -569.33583   -553.24528    14239.687    33915.806     49490.88   -40687.624      15.2149      13.1765      28.7324    5760.2466 
  980500      980.487    388.53553    16.221757   -569.46363   -553.24187    13912.207    35366.106    51681.328   -45310.814      15.2149      13.1765      28.7324    5760.2466 
  981000      980.987    376.53588    15.720759   -568.95659   -553.23583    14260.509    34951.475    51433.535   -43603.482      15.2149      13.1765      28.7324    5760.2466 
  981500      981.487    409.25729    17.086912   -570.32016   -553.23325    14770.334    35133.245    52742.751   -43564.995      15.2149      13.1765      28.7324    5760.2466 
  982000      981.987    395.67205    16.519714   -569.74748   -553.22777    14926.284     37917.83    48777.572   -41916.549      15.2149      13.1765      28.7324    5760.2466 
  982500      982.487    393.38649     16.42429   -569.64871   -553.22442    14914.661    40845.664    48538.311   -44639.991      15.2149      13.1765      28.7324    5760.2466 
  983000      982.987    376.49296    15.718968   -568.93624   -553.21727    13925.158    40203.165    50038.451   -48466.142      15.2149      13.1765      28.7324    5760.2466 
  983500      983.487    377.78518    15.772919   -568.98483   -553.21191    15242.092    37443.041    52786.249   -44503.014      15.2149      13.1765      28.7324    5760.2466 
  984000      983.987    387.14779    16.163818    -569.3719   -553.20808    13750.603    37825.742    49936.085   -46510.017      15.2149      13.1765      28.7324    5760.2466 
  984500      984.487    385.45388    16.093095   -569.29616   -553.20307    14538.265    36690.574    50323.795   -43399.575      15.2149      13.1765      28.7324    5760.2466 
  985000      984.987    376.48617    15.718684   -568.91793   -553.19925      16569.9    37044.283    57583.945   -44918.528      15.2149      13.1765      28.7324    5760.2466 
  985500      985.487    411.28913    17.171743   -570.36708   -553.19533     14511.05    39600.788    50312.553   -46380.191      15.2149      13.1765      28.7324    5760.2466 
  986000      985.987    375.18891    15.664522   -568.85501   -553.19049    13479.813    34887.359    54515.605   -48963.525      15.2149      13.1765      28.7324    5760.2466 
  986500      986.487    377.88253    15.776984   -568.96129   -553.18431    15325.259    37198.179    54706.387   -45928.789      15.2149      13.1765      28.7324    5760.2466 
  987000      986.987    392.58002    16.390619   -569.57177   -553.18115    15342.979    39434.711    45426.028   -38831.803      15.2149      13.1765      28.7324    5760.2466 
  987500      987.487    390.42239    16.300536   -569.47844   -553.17791    15269.973    39012.442    47963.545   -41166.067      15.2149      13.1765      28.7324    5760.2466 
  988000      987.987     380.8935    15.902695   -569.07484   -553.17215    15487.017    37995.298    56068.429   -47602.675      15.2149      13.1765      28.7324    5760.2466 
  988500      988.487    384.58221    16.056702   -569.22233   -553.16563    14164.582    39749.594    47100.997   -44356.843      15.2149      13.1765      28.7324    5760.2466 
  989000      988.987    397.32607    16.588772   -569.75051   -553.16174    15132.329    39344.704    50809.328   -44757.045      15.2149      13.1765      28.7324    5760.2466 
  989500      989.487    393.98781    16.449396   -569.60691   -553.15752    15505.468    35180.855    53143.211   -41807.662      15.2149      13.1765      28.7324    5760.2466 
  990000      989.987    364.36895    15.212778   -568.36525   -553.15248    14524.752    34220.784    52966.848   -43613.376      15.2149      13.1765      28.7324    5760.2466 
  990500      990.487    375.89669    15.694073    -568.8397   -553.14562    15268.564    36501.979    51594.302   -42290.589      15.2149      13.1765      28.7324    5760.2466 
  991000      990.987    380.14984    15.871646    -569.0142   -553.14255    14213.869    39741.341    48488.378   -45588.112      15.2149      13.1765      28.7324    5760.2466 
  991500      991.487    376.16089    15.705103   -568.84147   -553.13637    15820.461    40853.609    46142.091   -39534.316      15.2149      13.1765      28.7324    5760.2466 
  992000      991.987    390.14435    16.288927   -569.42117   -553.13224    16383.991    43614.782    49394.688   -43857.498      15.2149      13.1765      28.7324    5760.2466 
  992500      992.487    371.77039    15.521795   -568.64789    -553.1261    15034.111    36800.682    52257.647   -43955.997      15.2149      13.1765      28.7324    5760.2466 
  993000      992.987    378.50629    15.803026   -568.92451   -553.12149     15303.26    40313.238    51777.618   -46181.077      15.2149      13.1765      28.7324    5760.2466 
  993500      993.487      372.385    15.547456   -568.66327   -553.11581    12538.107    41537.431    47056.348    -50979.46      15.2149      13.1765      28.7324    5760.2466 
  994000      993.987    375.00236    15.656733   -568.76742   -553.11068    14722.399    36860.654    52372.149   -45065.607      15.2149      13.1765      28.7324    5760.2466 
  994500      994.487    395.68692    16.520335   -569.62752   -553.10718    14683.288    37152.125    49710.253   -42812.513      15.2149      13.1765      28.7324    5760.2466 
  995000      994.987    377.15059    15.746424   -568.84667   -553.10025    13940.538    38707.861    48604.405   -45490.651      15.2149      13.1765      28.7324    5760.2466 
  995500      995.487     363.4382    15.173918   -568.26947   -553.09555    15954.149    38791.614    52030.841   -42960.008      15.2149      13.1765      28.7324    5760.2466 
  996000      995.987    377.46651    15.759614   -568.84949   -553.08988      14292.2    41178.652    47671.805   -45973.857      15.2149      13.1765      28.7324    5760.2466 
  996500      996.487    362.21589    15.122886   -568.20814   -553.08526    17024.157    37114.343    56279.268   -42321.139      15.2149      13.1765      28.7324    5760.2466 
  997000      996.987    408.68242    17.062911   -570.14458   -553.08167    15026.148    38438.753    48561.955   -41922.265      15.2149      13.1765      28.7324    5760.2466 
  997500      997.487    367.76615    15.354615   -568.42861     -553.074    15149.246    37332.924    53568.218   -45453.405      15.2149      13.1765      28.7324    5760.2466 
  998000      997.987    386.15447    16.122346   -569.19207   -553.06972    14738.197    37305.311     51416.63   -44507.349      15.2149      13.1765      28.7324    5760.2466 
  998500      998.487    389.52747    16.263172    -569.3268   -553.06362    14875.621    39510.169    51109.112   -45992.419      15.2149      13.1765      28.7324    5760.2466 
  999000      998.987    379.69526    15.852667   -568.91109   -553.05842    15519.739     38059.02    52967.152   -44466.956      15.2149      13.1765      28.7324    5760.2466 
  999500      999.487    377.90411    15.777885   -568.83107   -553.05318    15293.432    34211.859    56111.032   -44442.595      15.2149      13.1765      28.7324    5760.2466 
 1000000      999.987    378.07783    15.785138   -568.83152   -553.04639     13590.36    37259.297    51772.867   -48261.084      15.2149      13.1765      28.7324    5760.2466 
 1000013         1000    361.09129    15.075932   -568.12025   -553.04431    13963.219     35632.71    51792.443   -45535.497      15.2149      13.1765      28.7324    5760.2466 
Loop time of 925.377 on 28 procs for 1000000 steps with 324 atoms

Performance: 93.367 ns/day, 0.257 hours/ns, 1080.640 timesteps/s
88.2% CPU use with 28 MPI tasks x no OpenMP threads

MPI task timing breakdown:
Section |  min time  |  avg time  |  max time  |%varavg| %total
---------------------------------------------------------------
Pair    | 731.38     | 795.52     | 861.35     | 107.4 | 85.97
Neigh   | 0          | 0          | 0          |   0.0 |  0.00
Comm    | 53.979     | 115.79     | 179.47     | 288.4 | 12.51
Output  | 0.10003    | 0.10297    | 0.12619    |   1.4 |  0.01
Modify  | 4.3793     | 8.7577     | 22.093     | 188.1 |  0.95
Other   |            | 5.201      |            |       |  0.56

Nlocal:    11.5714 ave 15 max 6 min
Histogram: 1 2 3 1 2 3 4 3 4 5
Nghost:    661.429 ave 717 max 620 min
Histogram: 7 5 0 0 7 1 0 0 3 5
Neighs:    723.571 ave 962 max 394 min
Histogram: 3 1 3 1 2 3 2 6 3 4
FullNghs:  1447.14 ave 1862 max 761 min
Histogram: 1 2 3 1 2 3 4 0 5 7

Total # of neighbors = 40520
Ave neighs/atom = 125.062
Neighbor list builds = 0
Dangerous builds = 0

write_restart   POSCAR_1x1x1.rest

#unfix    1
#undump   1
Total wall time: 0:15:25
