LAMMPS (7 Dec 2015)
#----------- Initialize Simulation ------------ restart01
#processors	2 2 2
units		metal
boundary	p p p     ## periodic boundary condition  on x y z axis ##
atom_style atomic
#atom_modify map array sort 0 0.0

read_data	POSCAR_1x1x1.lammps
  triclinic box = (0 0 0) to (15.2149 13.1765 28.7324) with tilt (-7.60743 0 0)
  2 by 2 by 7 MPI processor grid
  reading atoms ...
  324 atoms

#----------- Define Potential -----------------
pair_style meam
pair_coeff * * MgAlZn.library.meam Mg Al Zn MgAlZn.parameter.meam Mg Al Zn 	#1=Mg 2=Al 3=Zn	#atoms/mass

#----------- Neighbor List --------------------
neighbor 2.0 bin
neigh_modify delay 10 check yes

#--------------  Run a simulation (minimization) ---------------------------------------
minimize       1.0e-4   1.0e-6   100   1000          #結構優化的條件
WARNING: Resetting reneighboring criteria during minimization (../min.cpp:168)
Neighbor list info ...
  2 neighbor list requests
  update every 1 steps, delay 0 steps, check yes
  max neighbors/atom: 2000, page size: 100000
  master list distance cutoff = 8
  ghost atom cutoff = 8
  binsize = 4 -> bins = 6 4 8
Memory usage per processor = 8.65027 Mbytes
Step Temp E_pair E_mol TotEng Press 
       0            0   -665.79244            0   -665.79244    19361.042 
      14            0   -681.06774            0   -681.06774    19176.246 
Loop time of 0.025671 on 28 procs for 14 steps with 324 atoms

88.0% CPU use with 28 MPI tasks x no OpenMP threads

Minimization stats:
  Stopping criterion = energy tolerance
  Energy initial, next-to-last, final = 
        -665.792436479     -681.003935345     -681.067736752
  Force two-norm initial, final = 23.4502 2.12333
  Force max component initial, final = 4.09669 0.672334
  Final line search alpha, max atom move = 0.165298 0.111135
  Iterations, force evaluations = 14 26

MPI task timing breakdown:
Section |  min time  |  avg time  |  max time  |%varavg| %total
---------------------------------------------------------------
Pair    | 0.0194     | 0.021572   | 0.023444   |   0.7 | 84.03
Neigh   | 0          | 0          | 0          |   0.0 |  0.00
Comm    | 0.0013435  | 0.0031783  | 0.0052943  |   1.9 | 12.38
Output  | 0          | 0          | 0          |   0.0 |  0.00
Modify  | 0          | 0          | 0          |   0.0 |  0.00
Other   |            | 0.0009203  |            |       |  3.59

Nlocal:    11.5714 ave 15 max 6 min
Histogram: 1 4 1 1 1 1 7 4 4 4
Nghost:    649.786 ave 714 max 606 min
Histogram: 4 3 5 4 2 2 2 2 3 1
Neighs:    722.5 ave 967 max 376 min
Histogram: 2 3 1 2 0 3 5 5 4 3
FullNghs:  1445 ave 1900 max 753 min
Histogram: 1 4 1 1 1 1 7 4 4 4

Total # of neighbors = 40460
Ave neighs/atom = 124.877
Neighbor list builds = 0
Dangerous builds = 0
velocity all  create 393.0 4928459 #rot yes dist gaussian

#--------------  Run a simulation (Relaxation)  ----------------------------------------
fix  1  all  nvt   temp  393.0  393.0  100				#damping constant
#fix  2  all  npt   temp  393.0  393.0  50 iso 0.0 0.0 1000.0
#fix  2  all deform 1 x final 0 15.6906 y final 0 13.5884 z final 0 25.2339 xy final -7.8452 units lattice
#fix  3  all  npt   temp  393.0  393.0  50 z 0.0 0.0 1000.0

#variable b equal 1
#fix 2 all efield  0.0  0.0  v_b
#compute pot all pe/atom


#----------- Output --------------------------
thermo	 500
timestep  0.001		#1.0 fs
thermo_style	custom step time temp ke pe etotal press pxx pyy pzz lx ly lz vol

dump 1 all custom 10000 dump.eq id type x y z
dump_modify 1 sort  id

run        1000000	#10000	 ps
Neighbor list info ...
  2 neighbor list requests
  update every 1 steps, delay 10 steps, check yes
  max neighbors/atom: 2000, page size: 100000
  master list distance cutoff = 8
  ghost atom cutoff = 8
  binsize = 4 -> bins = 6 4 8
Memory usage per processor = 7.54074 Mbytes
Step Time Temp KinEng PotEng TotEng Press Pxx Pyy Pzz Lx Ly Lz Volume 
      14            0          393    16.408154   -681.06774   -664.65958    22218.796    41687.101    41680.944   -16711.656      15.2149      13.1765      28.7324    5760.2466 
     500        0.486    227.08871     9.481187   -674.13533   -664.65414    22589.287    42803.979    47064.419   -22100.538      15.2149      13.1765      28.7324    5760.2466 
    1000        0.986     215.5309    8.9986363   -673.65236   -664.65372    22778.873    47858.626    46509.779   -26031.786      15.2149      13.1765      28.7324    5760.2466 
    1500        1.486    237.20981     9.903753   -674.55759   -664.65384    21664.942    42355.113    45602.842    -22963.13      15.2149      13.1765      28.7324    5760.2466 
    2000        1.986     221.2507    9.2374438   -673.89095   -664.65351    22259.197    43641.741    47766.422   -24630.573      15.2149      13.1765      28.7324    5760.2466 
    2500        2.486    230.66649     9.630563   -674.28323   -664.65267    21954.773    44139.617    46397.294   -24672.593      15.2149      13.1765      28.7324    5760.2466 
    3000        2.986    204.61912    8.5430586   -673.19345   -664.65039    21920.763    44665.885    45617.685   -24521.281      15.2149      13.1765      28.7324    5760.2466 
    3500        3.486    209.65764    8.7534217   -673.40201   -664.64859    24337.537     47502.58    46721.222   -21211.191      15.2149      13.1765      28.7324    5760.2466 
    4000        3.986    215.64903    9.0035685   -673.65102   -664.64745    21960.981    43494.677    44862.018   -22473.753      15.2149      13.1765      28.7324    5760.2466 
    4500        4.486     225.6705    9.4219753   -674.06835   -664.64637    22446.363    41201.172    47592.082   -21454.167      15.2149      13.1765      28.7324    5760.2466 
    5000        4.986    211.03392     8.810883   -673.45511   -664.64423    23454.364    44762.595     47435.76   -21835.264      15.2149      13.1765      28.7324    5760.2466 
    5500        5.486    215.42967    8.9944098   -673.63625   -664.64184    22066.215    42386.117    44355.016   -20542.489      15.2149      13.1765      28.7324    5760.2466 
    6000        5.986    223.70129    9.3397587   -673.97915   -664.63939    21223.277    43426.135      45783.7   -25540.005      15.2149      13.1765      28.7324    5760.2466 
    6500        6.486    203.28817    8.4874897   -673.12394   -664.63645    21175.323    42819.207    45393.794   -24687.033      15.2149      13.1765      28.7324    5760.2466 
    7000        6.986     208.4489    8.7029558   -673.33694   -664.63399    23278.929    42482.011    47291.696   -19936.919      15.2149      13.1765      28.7324    5760.2466 
    7500        7.486    210.29448    8.7800106   -673.41184   -664.63182     21023.25    42187.729    47472.861   -26590.841      15.2149      13.1765      28.7324    5760.2466 
    8000        7.986     224.6203     9.378128   -674.00668   -664.62855    24184.892    45399.231    44824.559   -17669.115      15.2149      13.1765      28.7324    5760.2466 
    8500        8.486     199.8209    8.3427277   -672.96669   -664.62397    22282.307    42962.254    45818.551   -21933.882      15.2149      13.1765      28.7324    5760.2466 
    9000        8.986    228.96602    9.5595663   -674.18195   -664.62239     21803.61    43629.162    46110.571   -24328.903      15.2149      13.1765      28.7324    5760.2466 
    9500        9.486    213.82048    8.9272245   -673.54479   -664.61756    22728.502    41836.898    49683.132   -23334.522      15.2149      13.1765      28.7324    5760.2466 
   10000        9.986     211.5815    8.8337448   -673.44743   -664.61368    23840.338    44166.859    45369.933    -18015.78      15.2149      13.1765      28.7324    5760.2466 
   10500       10.486    214.08284    8.9381783   -673.54714   -664.60896      21825.4     43770.97    46693.996   -24988.767      15.2149      13.1765      28.7324    5760.2466 
   11000       10.986    214.81237     8.968637    -673.5736   -664.60497    21001.743    43603.438    44502.477   -25100.686      15.2149      13.1765      28.7324    5760.2466 
   11500       11.486    210.75363    8.7991803   -673.39974   -664.60056     23690.93    45079.276    47705.797   -21712.284      15.2149      13.1765      28.7324    5760.2466 
   12000       11.986    221.39175    9.2433331   -673.83955   -664.59621    21856.827    43142.141    47541.901   -25113.559      15.2149      13.1765      28.7324    5760.2466 
   12500       12.486    217.96486    9.1002567   -673.69119   -664.59093    21768.887    45574.353    45519.374   -25787.066      15.2149      13.1765      28.7324    5760.2466 
   13000       12.986    231.10953    9.6490603   -674.23551   -664.58645    22251.039    42715.335    46702.479   -22664.698      15.2149      13.1765      28.7324    5760.2466 
   13500       13.486    209.31414    8.7390803   -673.31853   -664.57945    21372.777    43229.267     47659.79   -26770.726      15.2149      13.1765      28.7324    5760.2466 
   14000       13.986    219.06199    9.1460629   -673.72088   -664.57482    23615.535    45570.127    46285.798   -21009.321      15.2149      13.1765      28.7324    5760.2466 
   14500       14.486    211.02373    8.8104576   -673.37864   -664.56819    21963.595    44618.004    45057.005   -23784.223      15.2149      13.1765      28.7324    5760.2466 
   15000       14.986    209.95642    8.7658961   -673.32801   -664.56212    24427.399     44134.48    50644.119   -21496.403      15.2149      13.1765      28.7324    5760.2466 
   15500       15.486    211.00596    8.8097157   -673.36555   -664.55584     21538.18    47078.437    44622.075   -27085.973      15.2149      13.1765      28.7324    5760.2466 
   16000       15.986    223.44336    9.3289899   -673.87928   -664.55029    24179.736    41843.978     47613.87   -16918.639      15.2149      13.1765      28.7324    5760.2466 
   16500       16.486      229.685    9.5895847   -674.13328   -664.54369    21046.648    42693.336    48077.671   -27631.063      15.2149      13.1765      28.7324    5760.2466 
   17000       16.986     222.9832    9.3097776   -673.84664   -664.53686    23120.697    46612.555    46085.259   -23335.724      15.2149      13.1765      28.7324    5760.2466 
   17500       17.486    225.24492    9.4042066   -673.93388   -664.52967    22449.261    43810.982    44500.477   -20963.675      15.2149      13.1765      28.7324    5760.2466 
   18000       17.986    223.34358    9.3248237   -673.84705   -664.52222      20502.1    42361.931    48173.308   -29028.939      15.2149      13.1765      28.7324    5760.2466 
   18500       18.486    213.27528    8.9044617   -673.41935   -664.51489    22389.157    44927.491    46273.726   -24033.747      15.2149      13.1765      28.7324    5760.2466 
   19000       18.986    218.49856    9.1225391   -673.63022   -664.50768    23893.729    45985.337    48861.675   -23165.826      15.2149      13.1765      28.7324    5760.2466 
   19500       19.486    222.78295    9.3014168   -673.80104   -664.49963    23395.751    44507.773    46297.411    -20617.93      15.2149      13.1765      28.7324    5760.2466 
   20000       19.986    211.65346    8.8367492   -673.32811   -664.49136    22795.722    42065.121     47158.83   -20836.786      15.2149      13.1765      28.7324    5760.2466 
   20500       20.486    220.08014    9.1885717   -673.67229   -664.48372    22870.713    44567.006     48704.83   -24659.696      15.2149      13.1765      28.7324    5760.2466 
   21000       20.986    221.96535    9.2672812   -673.74168    -664.4744    22538.851     42706.89    46160.565   -21250.902      15.2149      13.1765      28.7324    5760.2466 
   21500       21.486     212.1038    8.8555514   -673.32188   -664.46633    23502.462    48827.701    48334.928   -26655.242      15.2149      13.1765      28.7324    5760.2466 
   22000       21.986    217.00612    9.0602284   -673.51746   -664.45723    23607.809    47442.719    44427.733   -21047.024      15.2149      13.1765      28.7324    5760.2466 
   22500       22.486    222.32324    9.2822235     -673.731   -664.44878    23211.099    42228.095    49040.225   -21635.024      15.2149      13.1765      28.7324    5760.2466 
   23000       22.986    233.62862    9.7542346    -674.1939   -664.43966    22807.926    41571.118    46399.421   -19546.761      15.2149      13.1765      28.7324    5760.2466 
   23500       23.486    217.83851    9.0949815   -673.52485   -664.42987    21071.779    42491.016    46871.271   -26146.949      15.2149      13.1765      28.7324    5760.2466 
   24000       23.986    208.49794    8.7050031   -673.12538   -664.42037     22316.72    45014.013    45170.721   -23234.574      15.2149      13.1765      28.7324    5760.2466 
   24500       24.486    217.94341     9.099361   -673.51055   -664.41118    23467.727    43137.188    46906.545   -19640.553      15.2149      13.1765      28.7324    5760.2466 
   25000       24.986    218.08688    9.1053514   -673.50704   -664.40169    21786.726     44831.71    48513.092   -27984.623      15.2149      13.1765      28.7324    5760.2466 
   25500       25.486    230.98456    9.6438424   -674.03531   -664.39147    20938.805    40599.404    42153.049   -19936.037      15.2149      13.1765      28.7324    5760.2466 
   26000       25.986    218.92496    9.1403417   -673.52192   -664.38158    22680.794    42992.866    48264.198   -23214.681      15.2149      13.1765      28.7324    5760.2466 
   26500       26.486    220.71459     9.215061    -673.5853   -664.37024    23341.177    43391.945    48294.886     -21663.3      15.2149      13.1765      28.7324    5760.2466 
   27000       26.986    208.23823    8.6941599   -673.05358   -664.35942    21891.823    42724.711    47944.248   -24993.488      15.2149      13.1765      28.7324    5760.2466 
   27500       27.486    218.38561    9.1178235   -673.46719   -664.34937    23076.977    45122.441    44399.596   -20291.108      15.2149      13.1765      28.7324    5760.2466 
   28000       27.986    222.11358    9.2734698   -673.61195   -664.33848    22075.313    41779.279    46556.846   -22110.187      15.2149      13.1765      28.7324    5760.2466 
   28500       28.486    227.61511    9.5031647   -673.83124   -664.32808    23558.827    44696.448    49261.034   -23281.002      15.2149      13.1765      28.7324    5760.2466 
   29000       28.986    216.14145    9.0241277   -673.34039   -664.31627    21483.858    43450.605    46065.361   -25064.393      15.2149      13.1765      28.7324    5760.2466 
   29500       29.486    226.16089    9.4424494   -673.74824   -664.30579    24644.069    45681.408    46181.024   -17930.227      15.2149      13.1765      28.7324    5760.2466 
   30000       29.986    221.05463    9.2292576   -673.52256    -664.2933    23202.967    45397.236    47356.703   -23145.039      15.2149      13.1765      28.7324    5760.2466 
   30500       30.486     223.2727    9.3218646   -673.60454   -664.28268    23779.402     46745.35    47595.542   -23002.686      15.2149      13.1765      28.7324    5760.2466 
   31000       30.986    232.16317    9.6930509    -673.9641   -664.27105    21983.994     43156.33    48425.646   -25629.995      15.2149      13.1765      28.7324    5760.2466 
   31500       31.486    210.08917    8.7714384   -673.02909   -664.25765    23034.927    44958.662    47271.325   -23125.207      15.2149      13.1765      28.7324    5760.2466 
   32000       31.986     207.0689     8.645339   -672.89104    -664.2457    20569.257    40834.987    45723.425    -24850.64      15.2149      13.1765      28.7324    5760.2466 
   32500       32.486    226.30059    9.4482822   -673.68305   -664.23477     21894.75    43071.995    46768.297   -24156.041      15.2149      13.1765      28.7324    5760.2466 
   33000       32.986    215.44085    8.9948765    -673.2171   -664.22222    22466.282    44208.228    49579.547   -26388.931      15.2149      13.1765      28.7324    5760.2466 
   33500       33.486    217.92244    9.0984855   -673.30923   -664.21074    21761.791    44576.207    46325.018   -25615.853      15.2149      13.1765      28.7324    5760.2466 
   34000       33.986    216.04298    9.0200164   -673.21779   -664.19778    22778.736    45779.776    43457.948   -20901.514      15.2149      13.1765      28.7324    5760.2466 
   34500       34.486    219.38781    9.1596662   -673.34496   -664.18529    22297.242    44892.686    45565.432   -23566.391      15.2149      13.1765      28.7324    5760.2466 
   35000       34.986    223.75491    9.3419973   -673.51552   -664.17352    23566.094    47188.606    47418.752   -23909.077      15.2149      13.1765      28.7324    5760.2466 
   35500       35.486    224.16694       9.3592   -673.51952   -664.16032    22285.145    43050.343    46418.818   -22613.725      15.2149      13.1765      28.7324    5760.2466 
   36000       35.986    217.22276    9.0692734   -673.21692   -664.14764    23225.779     44766.63    44827.547    -19916.84      15.2149      13.1765      28.7324    5760.2466 
   36500       36.486    232.45132    9.7050812   -673.84025   -664.13517    22709.504    43022.646    47780.983   -22675.117      15.2149      13.1765      28.7324    5760.2466 
   37000       36.986    227.67409     9.505627   -673.62862   -664.12299    22041.155    44045.145    46119.221   -24040.901      15.2149      13.1765      28.7324    5760.2466 
   37500       37.486    229.82931    9.5956098   -673.70526   -664.10965    21282.914    45354.211    46937.532   -28443.001      15.2149      13.1765      28.7324    5760.2466 
   38000       37.986     223.7754    9.3428528   -673.43964   -664.09679    21759.464    44407.203    45038.713   -24167.523      15.2149      13.1765      28.7324    5760.2466 
   38500       38.486    225.26148    9.4048979   -673.48906   -664.08416    21466.769    43997.742    48432.069   -28029.505      15.2149      13.1765      28.7324    5760.2466 
   39000       38.986    230.59116    9.6274179   -673.69862    -664.0712     21374.63    46368.839    46199.615   -28444.564      15.2149      13.1765      28.7324    5760.2466 
   39500       39.486    210.80715    8.8014149   -672.85912   -664.05771    21472.911    45388.684    48993.907   -29963.857      15.2149      13.1765      28.7324    5760.2466 
   40000       39.986    236.50123    9.8741691   -673.91981   -664.04564    24260.354    46480.864    47184.773   -20884.574      15.2149      13.1765      28.7324    5760.2466 
   40500       40.486    235.72244    9.8416538    -673.8746   -664.03295    22686.462     43575.25    48157.534   -23673.396      15.2149      13.1765      28.7324    5760.2466 
   41000       40.986    224.46426    9.3716133   -673.39121    -664.0196    22182.613    45053.119    46118.234   -24623.516      15.2149      13.1765      28.7324    5760.2466 
   41500       41.486    230.65545     9.630102   -673.63658   -664.00647    21898.644    40800.425    48032.869   -23137.362      15.2149      13.1765      28.7324    5760.2466 
   42000       41.986    220.63952    9.2119266   -673.20475   -663.99283    22533.174    45238.338    45855.391   -23494.206      15.2149      13.1765      28.7324    5760.2466 
   42500       42.486    230.26171    9.6136628   -673.59359   -663.97992    21466.949    43408.908    47384.854   -26392.915      15.2149      13.1765      28.7324    5760.2466 
   43000       42.986    222.95259    9.3084997   -673.27657   -663.96807    23617.932    45584.162    46298.484    -21028.85      15.2149      13.1765      28.7324    5760.2466 
   43500       43.486    219.70183    9.1727772   -673.12672   -663.95394    23169.229    47459.733    47134.071   -25086.116      15.2149      13.1765      28.7324    5760.2466 
   44000       43.986    233.35259    9.7427102   -673.68498   -663.94227    21877.148    43415.613    46704.628   -24488.796      15.2149      13.1765      28.7324    5760.2466 
   44500       44.486    226.67704    9.4639993   -673.39336   -663.92936    23479.202     45308.61    49344.398   -24215.402      15.2149      13.1765      28.7324    5760.2466 
   45000       44.986     213.7799    8.9255302   -672.84105   -663.91552    23525.326    48208.746    47585.374   -25218.142      15.2149      13.1765      28.7324    5760.2466 
   45500       45.486    220.23331    9.1949668   -673.09816    -663.9032    22538.221    42537.219    44259.373   -19181.928      15.2149      13.1765      28.7324    5760.2466 
   46000       45.986    217.10423    9.0643246   -672.95455   -663.89023    20482.028    42501.025    44670.371   -25725.313      15.2149      13.1765      28.7324    5760.2466 
   46500       46.486    217.95764    9.0999552   -672.97757   -663.87761    21498.712    41684.255     44115.21    -21303.33      15.2149      13.1765      28.7324    5760.2466 
   47000       46.986    230.27758    9.6143253   -673.47996   -663.86564     22687.71    42086.311    49016.514   -23039.693      15.2149      13.1765      28.7324    5760.2466 
   47500       47.486    216.80908    9.0520018   -672.90414   -663.85214    21841.665    42173.643    45841.498   -22490.145      15.2149      13.1765      28.7324    5760.2466 
   48000       47.986    217.77463    9.0923144   -672.93252    -663.8402    24319.337    44325.684    48541.936    -19909.61      15.2149      13.1765      28.7324    5760.2466 
   48500       48.486    228.53842    9.5417138   -673.36937   -663.82766    21432.761    40835.632    46000.667   -22538.017      15.2149      13.1765      28.7324    5760.2466 
   49000       48.986    230.44761    9.6214242   -673.43605   -663.81463    23769.292    46825.202    44768.422   -20285.749      15.2149      13.1765      28.7324    5760.2466 
   49500       49.486     225.1289    9.3993628     -673.201   -663.80164    22330.279    42993.754    47819.323   -23822.241      15.2149      13.1765      28.7324    5760.2466 
   50000       49.986    233.74939    9.7592771   -673.54924   -663.78997    23239.093    46271.518    44484.855   -21039.096      15.2149      13.1765      28.7324    5760.2466 
   50500       50.486    228.14487    9.5252826    -673.3031   -663.77782    23113.397    44556.008    50022.263   -25238.079      15.2149      13.1765      28.7324    5760.2466 
   51000       50.986    229.82132    9.5952763   -673.36076   -663.76549    23184.534    47372.736    45595.514   -23414.648      15.2149      13.1765      28.7324    5760.2466 
   51500       51.486    225.94441    9.4334111   -673.18665   -663.75324    21423.094    41381.383    46389.965   -23502.067      15.2149      13.1765      28.7324    5760.2466 
   52000       51.986     231.3036    9.6571626   -673.39819   -663.74103    22810.217    45255.283    43899.654   -20724.286      15.2149      13.1765      28.7324    5760.2466 
   52500       52.486    222.92281    9.3072561   -673.03604   -663.72879    23737.376    45066.801    48441.327   -22295.999      15.2149      13.1765      28.7324    5760.2466 
   53000       52.986    223.49288    9.3310571   -673.04803   -663.71698    21768.768    41321.315    47847.641   -23862.654      15.2149      13.1765      28.7324    5760.2466 
   53500       53.486    225.85048    9.4294894   -673.13457   -663.70508    22355.296    45283.902    46484.038   -24702.052      15.2149      13.1765      28.7324    5760.2466 
   54000       53.986    225.27043    9.4052716   -673.09925   -663.69398    21635.677    39787.661    49724.035   -24604.666      15.2149      13.1765      28.7324    5760.2466 
   54500       54.486    229.73454    9.5916529   -673.27353   -663.68188    23770.729    44851.011    48074.673   -21613.497      15.2149      13.1765      28.7324    5760.2466 
   55000       54.986    232.55136    9.7092579   -673.37896   -663.66971    22195.325    42608.511    51416.685   -27439.221      15.2149      13.1765      28.7324    5760.2466 
   55500       55.486    227.23391    9.4872493   -673.14589   -663.65864    20806.994    41881.411    43934.591    -23395.02      15.2149      13.1765      28.7324    5760.2466 
   56000       55.986     227.8084    9.5112346   -673.15768   -663.64645    23169.586    43753.998    47854.416   -22099.656      15.2149      13.1765      28.7324    5760.2466 
   56500       56.486    229.28299    9.5728002   -673.20782   -663.63502    22443.795    42199.213    48363.066   -23230.895      15.2149      13.1765      28.7324    5760.2466 
   57000       56.986     206.2493    8.6111201   -672.23324   -663.62212    23669.169    43230.068    50459.894   -22682.456      15.2149      13.1765      28.7324    5760.2466 
   57500       57.486    220.51481    9.2067198   -672.81842    -663.6117    22140.331    43037.772    48698.996   -25315.774      15.2149      13.1765      28.7324    5760.2466 
   58000       57.986    232.05619    9.6885841   -673.28947   -663.60089    22525.478    43390.528    47579.196   -23393.289      15.2149      13.1765      28.7324    5760.2466 
   58500       58.486    229.31698    9.5742193   -673.16342    -663.5892    23940.631    44105.125    49862.964   -22146.195      15.2149      13.1765      28.7324    5760.2466 
   59000       58.986    237.34664    9.9094657   -673.48761   -663.57815    20355.776    41252.479    48166.844   -28351.994      15.2149      13.1765      28.7324    5760.2466 
   59500       59.486     232.7252    9.7165161   -673.28269   -663.56617    22124.798     44296.61    45528.437   -23450.654      15.2149      13.1765      28.7324    5760.2466 
   60000       59.986    238.11089    9.9413742   -673.49756   -663.55619    23364.493    43204.679    50805.478   -23916.678      15.2149      13.1765      28.7324    5760.2466 
   60500       60.486    222.99248     9.310165   -672.85331   -663.54314    24490.921    43647.689     48922.21   -19097.137      15.2149      13.1765      28.7324    5760.2466 
   61000       60.986     231.0388    9.6461073   -673.17895   -663.53284    22494.667     42309.81    49575.817   -24401.627      15.2149      13.1765      28.7324    5760.2466 
   61500       61.486    233.32227    9.7414442    -673.2637   -663.52226    22355.819    44099.966    47744.347   -24776.855      15.2149      13.1765      28.7324    5760.2466 
   62000       61.986    234.65898    9.7972534   -673.30833   -663.51108    23632.305    43360.383    49011.183   -21474.649      15.2149      13.1765      28.7324    5760.2466 
   62500       62.486    229.16912     9.568046   -673.06752   -663.49948    22285.977    43447.164    47113.755   -23702.987      15.2149      13.1765      28.7324    5760.2466 
   63000       62.986    233.67915    9.7563446   -673.24531   -663.48896    22537.702    42587.192    47758.102   -22732.189      15.2149      13.1765      28.7324    5760.2466 
   63500       63.486    236.28857    9.8652905    -673.3436   -663.47831    21389.017    43224.789    45425.332   -24483.069      15.2149      13.1765      28.7324    5760.2466 
   64000       63.986    233.65039    9.7551437   -673.22239   -663.46724    22848.094    44891.385    47855.557    -24202.66      15.2149      13.1765      28.7324    5760.2466 
   64500       64.486    236.46677    9.8727306   -673.32948   -663.45675    23369.016    45429.858      46879.4   -22202.209      15.2149      13.1765      28.7324    5760.2466 
   65000       64.986    235.18865    9.8193676   -673.26507    -663.4457    23015.211    43102.318    46442.033   -20498.718      15.2149      13.1765      28.7324    5760.2466 
   65500       65.486    230.74486    9.6338348   -673.06945   -663.43562     22396.92    44298.177    46078.181   -23185.599      15.2149      13.1765      28.7324    5760.2466 
   66000       65.986    239.03354    9.9798958    -673.4043    -663.4244    23361.292    43456.691    46750.843   -20123.659      15.2149      13.1765      28.7324    5760.2466 
   66500       66.486    240.75699    10.051852   -673.46571   -663.41386    22007.525    41097.423    46375.682    -21450.53      15.2149      13.1765      28.7324    5760.2466 
   67000       66.986      236.877    9.8898581   -673.29218   -663.40233    23045.651    42863.048    45850.449   -19576.545      15.2149      13.1765      28.7324    5760.2466 
   67500       67.486    233.43159    9.7460087   -673.13849   -663.39249    22751.208    44328.875    45242.917   -21318.168      15.2149      13.1765      28.7324    5760.2466 
   68000       67.986    220.04978    9.1873041   -672.56877   -663.38147    22727.767    41485.222    46433.214   -19735.135      15.2149      13.1765      28.7324    5760.2466 
   68500       68.486    232.30265     9.698874   -673.06969   -663.37081    23279.202    42535.408    46646.055   -19343.857      15.2149      13.1765      28.7324    5760.2466 
   69000       68.986    237.11809    9.8999236   -673.26016   -663.36024    22676.553    43181.425    48920.255    -24072.02      15.2149      13.1765      28.7324    5760.2466 
   69500       69.486     229.0641    9.5636616   -672.91337   -663.34971    21230.181    43640.967    46071.585   -26022.009      15.2149      13.1765      28.7324    5760.2466 
   70000       69.986    225.28798    9.4060044    -672.7449   -663.33889    22022.391    44436.004    48906.219   -27275.049      15.2149      13.1765      28.7324    5760.2466 
   70500       70.486    231.15232    9.6508467   -672.97849   -663.32765    21204.545    43843.394    47840.728   -28070.487      15.2149      13.1765      28.7324    5760.2466 
   71000       70.986    238.15306    9.9431346   -673.26111   -663.31797    21274.559    42637.016    47706.692   -26520.031      15.2149      13.1765      28.7324    5760.2466 
   71500       71.486    233.90105    9.7656089   -673.07266   -663.30705    23492.594    43065.981    52512.953   -25101.151      15.2149      13.1765      28.7324    5760.2466 
   72000       71.986     240.2356    10.030083   -673.32709     -663.297    22150.257    44759.308    49321.198   -27629.734      15.2149      13.1765      28.7324    5760.2466 
   72500       72.486    243.09558     10.14949   -673.43597   -663.28648    21833.358    43065.521    44570.472   -22135.917      15.2149      13.1765      28.7324    5760.2466 
   73000       72.986    229.59593    9.5858657   -672.86074   -663.27487    22075.617    43519.908    49131.483   -26424.541      15.2149      13.1765      28.7324    5760.2466 
   73500       73.486     227.1222    9.4825852   -672.74642   -663.26383    23014.089    42220.054      48945.7   -22123.487      15.2149      13.1765      28.7324    5760.2466 
   74000       73.986    231.06996     9.647408   -672.90058   -663.25317    21025.178    42835.117    46800.586    -26560.17      15.2149      13.1765      28.7324    5760.2466 
   74500       74.486    245.78869     10.26193   -673.50567   -663.24374    22522.966    42517.446    48810.713    -23759.26      15.2149      13.1765      28.7324    5760.2466 
   75000       74.986    240.16798     10.02726   -673.25964   -663.23238    20388.098    42816.495    48025.977   -29678.179      15.2149      13.1765      28.7324    5760.2466 
   75500       75.486    232.65932    9.7137653   -672.93542   -663.22166    23080.011    43762.866    45132.258    -19655.09      15.2149      13.1765      28.7324    5760.2466 
   76000       75.986    235.15974    9.8181605   -673.02898   -663.21082    23073.793    44312.894     47653.78   -22745.294      15.2149      13.1765      28.7324    5760.2466 
   76500       76.486    231.28894    9.6565508   -672.85614   -663.19959    22277.596     42285.54     48162.06   -23614.813      15.2149      13.1765      28.7324    5760.2466 
   77000       76.986     242.5857    10.128202   -673.31807   -663.18987    22571.017    44448.736    44978.187   -21713.872      15.2149      13.1765      28.7324    5760.2466 
   77500       77.486    245.64757    10.256038   -673.43448   -663.17844    22161.948    40727.975    48202.863   -22444.995      15.2149      13.1765      28.7324    5760.2466 
   78000       77.986    254.05062    10.606874   -673.77537   -663.16849    22980.295    44364.502    45980.291   -21403.909      15.2149      13.1765      28.7324    5760.2466 
   78500       78.486    237.72888    9.9254249    -673.0819   -663.15647    23241.855    46946.813    47731.145   -24952.393      15.2149      13.1765      28.7324    5760.2466 
   79000       78.986    236.94387    9.8926501   -673.03774   -663.14509    21639.856     41867.47     46120.43   -23068.334      15.2149      13.1765      28.7324    5760.2466 
   79500       79.486    246.05959     10.27324   -673.40872   -663.13548    23368.358    46411.525     46994.25   -23300.701      15.2149      13.1765      28.7324    5760.2466 
   80000       79.986    224.99587    9.3938084    -672.5169   -663.12309    22903.145     43647.68    49726.045    -24664.29      15.2149      13.1765      28.7324    5760.2466 
   80500       80.486    234.29352     9.781995   -672.89356   -663.11157    22305.726     40865.75    46749.034   -20697.607      15.2149      13.1765      28.7324    5760.2466 
   81000       80.986    251.77484    10.511858   -673.61415   -663.10229     23303.37    43864.632    45821.078   -19775.599      15.2149      13.1765      28.7324    5760.2466 
   81500       81.486    239.33718    9.9925731   -673.08266   -663.09009    24297.264    47051.524    46739.952   -20899.684      15.2149      13.1765      28.7324    5760.2466 
   82000       81.986    236.85069    9.8887594   -672.96719   -663.07843     22855.99    45156.496    48724.878   -25313.404      15.2149      13.1765      28.7324    5760.2466 
   82500       82.486    242.40033    10.120463   -673.18815   -663.06769    23198.861    43396.429    47153.979   -20953.824      15.2149      13.1765      28.7324    5760.2466 
   83000       82.986    253.23763    10.572931   -673.62926   -663.05633    22526.679     45619.34     45209.96   -23249.264      15.2149      13.1765      28.7324    5760.2466 
   83500       83.486    226.49305    9.4563172   -672.50043   -663.04412    22710.784    41153.943    47576.845   -20598.435      15.2149      13.1765      28.7324    5760.2466 
   84000       83.986    249.61614     10.42173   -673.45518   -663.03345    23785.675    45629.103    46890.758   -21162.835      15.2149      13.1765      28.7324    5760.2466 
   84500       84.486    241.11937    10.066981   -673.08933   -663.02235    24500.674    46064.173    46228.567    -18790.72      15.2149      13.1765      28.7324    5760.2466 
   85000       84.986     242.1172    10.108642   -673.11881   -663.01016    22304.545    47771.528    48605.031   -29462.926      15.2149      13.1765      28.7324    5760.2466 
   85500       85.486    240.35058    10.034884   -673.03388     -662.999    22385.542    41818.376    48617.817   -23279.567      15.2149      13.1765      28.7324    5760.2466 
   86000       85.986     232.4059    9.7031848   -672.69091   -662.98772    21874.879    40338.448    43448.369   -18162.179      15.2149      13.1765      28.7324    5760.2466 
   86500       86.486    232.97722    9.7270382   -672.70306   -662.97602    22915.783    43089.887     48559.33   -22901.868      15.2149      13.1765      28.7324    5760.2466 
   87000       86.986    242.72385     10.13397   -673.09928   -662.96531    23504.966    43672.932    46232.623   -19390.658      15.2149      13.1765      28.7324    5760.2466 
   87500       87.486    234.07547    9.7728913   -672.72597   -662.95308    22668.029    40293.413     49288.42   -21577.744      15.2149      13.1765      28.7324    5760.2466 
   88000       87.986     243.4779    10.165452   -673.10562   -662.94017    22959.642    44691.531     50534.68   -26347.285      15.2149      13.1765      28.7324    5760.2466 
   88500       88.486    236.14051    9.8591088   -672.78791    -662.9288    23511.764    46640.325    48202.538    -24307.57      15.2149      13.1765      28.7324    5760.2466 
   89000       88.986    243.80142     10.17896   -673.09565   -662.91669    21352.702    40989.126    47556.641   -24487.661      15.2149      13.1765      28.7324    5760.2466 
   89500       89.486    237.37113    9.9104882   -672.81544   -662.90495    22393.712    43525.365    46141.664   -22485.894      15.2149      13.1765      28.7324    5760.2466 
   90000       89.986    230.76175      9.63454   -672.52689   -662.89235    23195.382    42390.667    49581.361   -22385.881      15.2149      13.1765      28.7324    5760.2466 
   90500       90.486    254.37173    10.620281   -673.50124   -662.88096    22678.689    42750.131    46647.766   -21361.828      15.2149      13.1765      28.7324    5760.2466 
   91000       90.986    237.08956    9.8987328    -672.7676   -662.86887    23280.687    46010.576    48132.515    -24301.03      15.2149      13.1765      28.7324    5760.2466 
   91500       91.486    246.27651    10.282297   -673.13943   -662.85713    22920.608    44903.417     48708.06   -24849.653      15.2149      13.1765      28.7324    5760.2466 
   92000       91.986     244.9916    10.228651   -673.07417   -662.84552    22139.448     43125.42    48623.666   -25330.742      15.2149      13.1765      28.7324    5760.2466 
   92500       92.486    232.34993    9.7008482   -672.53335    -662.8325    23267.128    43522.846    47395.418   -21116.881      15.2149      13.1765      28.7324    5760.2466 
   93000       92.986    234.49254    9.7903043   -672.61014   -662.81984    22114.507    41371.749    48748.881    -23777.11      15.2149      13.1765      28.7324    5760.2466 
   93500       93.486     247.1964    10.320703    -673.1281    -662.8074    22929.819    45296.801    48439.693   -24947.039      15.2149      13.1765      28.7324    5760.2466 
   94000       93.986    237.95063    9.9346833   -672.73002   -662.79534    20783.233    44462.246    45616.328   -27728.874      15.2149      13.1765      28.7324    5760.2466 
   94500       94.486    234.16689    9.7767081   -672.55859   -662.78188    23578.661    45107.264    48615.662   -22986.944      15.2149      13.1765      28.7324    5760.2466 
   95000       94.986    243.12205    10.150595   -672.91995   -662.76935    20431.397    40916.856    45733.015   -25355.681      15.2149      13.1765      28.7324    5760.2466 
   95500       95.486    234.76927    9.8018581   -672.55816    -662.7563    24156.933    40607.979    50887.392   -19024.573      15.2149      13.1765      28.7324    5760.2466 
   96000       95.986    227.47398    9.4972722   -672.24102   -662.74375    22226.793    39450.214    49822.862   -22592.698      15.2149      13.1765      28.7324    5760.2466 
   96500       96.486    245.73623     10.25974    -672.9907   -662.73096    23402.811    43915.579    47731.407   -21438.553      15.2149      13.1765      28.7324    5760.2466 
   97000       96.986     255.8734    10.682977   -673.40157   -662.71859    21754.254    42341.395    47422.575   -24501.207      15.2149      13.1765      28.7324    5760.2466 
   97500       97.486    259.51678    10.835092   -673.54093   -662.70584    22794.138    45995.266    48904.927   -26517.778      15.2149      13.1765      28.7324    5760.2466 
   98000       97.986    236.62322    9.8792624   -672.57118   -662.69191    21776.305    41407.057    49514.745   -25592.887      15.2149      13.1765      28.7324    5760.2466 
   98500       98.486    253.66016    10.590572   -673.26965   -662.67907    24035.617    44721.397    48237.998   -20852.544      15.2149      13.1765      28.7324    5760.2466 
   99000       98.986    244.14752     10.19341   -672.85933   -662.66592     21016.79    40850.462    46850.849    -24650.94      15.2149      13.1765      28.7324    5760.2466 
   99500       99.486     242.5401    10.126298   -672.77819    -662.6519    25024.007    46612.981    51055.424   -22596.383      15.2149      13.1765      28.7324    5760.2466 
  100000       99.986    250.17384    10.445015   -673.08442   -662.63941    22939.785    41786.241    46831.766   -19798.653      15.2149      13.1765      28.7324    5760.2466 
  100500      100.486    242.97192    10.144327   -672.77005   -662.62572    20917.823    48612.236    43819.102    -29677.87      15.2149      13.1765      28.7324    5760.2466 
  101000      100.986    244.95912    10.227295   -672.84025   -662.61296    21447.328    41235.293    45722.113   -22615.422      15.2149      13.1765      28.7324    5760.2466 
  101500      101.486    254.11692    10.609642   -673.20859   -662.59895    23172.224    43625.419    50645.304    -24754.05      15.2149      13.1765      28.7324    5760.2466 
  102000      101.986    253.49227    10.583563   -673.16963   -662.58607    23761.652    44889.933     49468.17   -23073.146      15.2149      13.1765      28.7324    5760.2466 
  102500      102.486    237.23271    9.9047094   -672.47647   -662.57176    22430.091    44649.862    47827.529   -25187.117      15.2149      13.1765      28.7324    5760.2466 
  103000      102.986    258.24529    10.782006   -673.34178   -662.55978    22185.685    45244.191    46197.852   -24884.989      15.2149      13.1765      28.7324    5760.2466 
  103500      103.486    242.07787       10.107   -672.65216   -662.54516    23247.967    46581.807    47017.299   -23855.204      15.2149      13.1765      28.7324    5760.2466 
  104000      103.986    245.33462    10.242972   -672.77445   -662.53148    23549.779    45928.366    45895.657   -21174.687      15.2149      13.1765      28.7324    5760.2466 
  104500      104.486    245.74527    10.260117   -672.77779   -662.51768    22398.059    45710.877    46955.771   -25472.473      15.2149      13.1765      28.7324    5760.2466 
  105000      104.986     247.6774    10.340786   -672.84521   -662.50442    23245.016    46135.139    47372.556   -23772.648      15.2149      13.1765      28.7324    5760.2466 
  105500      105.486    255.29849    10.658974   -673.15014   -662.49117    22493.547    44671.629    46995.014   -24186.001      15.2149      13.1765      28.7324    5760.2466 
  106000      105.986    243.58939    10.170107   -672.64638   -662.47628    21645.952    45361.093    48298.819   -28722.057      15.2149      13.1765      28.7324    5760.2466 
  106500      106.486    251.23407    10.489281   -672.95156   -662.46228    23061.217    47643.476    47628.046   -26087.872      15.2149      13.1765      28.7324    5760.2466 
  107000      106.986    244.42031    10.204799    -672.6538     -662.449    22967.314    45961.307    45119.027   -22178.394      15.2149      13.1765      28.7324    5760.2466 
  107500      107.486    250.88957    10.474897   -672.90908   -662.43418    21460.439    40809.763    47661.606   -24090.053      15.2149      13.1765      28.7324    5760.2466 
  108000      107.986    242.46611    10.123209   -672.54341    -662.4202    21269.569    41384.437     49770.91   -27346.641      15.2149      13.1765      28.7324    5760.2466 
  108500      108.486    253.09866    10.567129   -672.97374   -662.40661    22943.659    46742.215    47523.182   -25434.419      15.2149      13.1765      28.7324    5760.2466 
  109000      108.986    248.00383    10.354414   -672.74666   -662.39225    21565.349    43690.621    49847.375   -28841.948      15.2149      13.1765      28.7324    5760.2466 
  109500      109.486    256.35948    10.703271    -673.0817   -662.37843     24045.06    48035.459    47794.165   -23694.445      15.2149      13.1765      28.7324    5760.2466 
  110000      109.986    238.48068    9.9568134   -672.31976   -662.36295    23459.567    43689.121    49603.752   -22914.173      15.2149      13.1765      28.7324    5760.2466 
  110500      110.486    225.87923    9.4306897   -671.77991   -662.34922    22501.693    50888.519    44556.351   -27939.792      15.2149      13.1765      28.7324    5760.2466 
  111000      110.986    263.30619    10.993304   -673.32967   -662.33636    23578.818     45287.15    48315.418   -22866.114      15.2149      13.1765      28.7324    5760.2466 
  111500      111.486    234.55131     9.792758   -672.11326    -662.3205    22670.633    42395.811    47185.665   -21569.576      15.2149      13.1765      28.7324    5760.2466 
  112000      111.986     263.5773    11.004623   -673.31311   -662.30849    25243.781     44797.79     50346.32   -19412.768      15.2149      13.1765      28.7324    5760.2466 
  112500      112.486    253.16283    10.569808   -672.86215   -662.29234    21957.183    39088.469     47090.75   -20307.671      15.2149      13.1765      28.7324    5760.2466 
  113000      112.986    246.53345    10.293025   -672.57014   -662.27711    22201.394    45250.108     48996.55   -27642.475      15.2149      13.1765      28.7324    5760.2466 
  113500      113.486     246.4068    10.287737   -672.55085   -662.26311    21996.332    43188.197    44809.475   -22008.677      15.2149      13.1765      28.7324    5760.2466 
  114000      113.986    253.31524    10.576172   -672.82545   -662.24928    22269.324    44281.181    43836.801   -21310.009      15.2149      13.1765      28.7324    5760.2466 
  114500      114.486    240.71424    10.050067   -672.28403   -662.23397    23867.049    46245.295    46181.279   -20825.425      15.2149      13.1765      28.7324    5760.2466 
  115000      114.986    258.16527    10.778665   -672.99888   -662.22021    22242.392    43541.504    47565.742   -24380.068      15.2149      13.1765      28.7324    5760.2466 
  115500      115.486    247.23015    10.322113   -672.52737   -662.20526    22798.284    47067.323    45591.846   -24264.317      15.2149      13.1765      28.7324    5760.2466 
  116000      115.986    253.00773    10.563333    -672.7536   -662.19027    23276.715    47012.284    47061.851   -24243.991      15.2149      13.1765      28.7324    5760.2466 
  116500      116.486    245.63937    10.255696   -672.43118   -662.17549    20936.593    41418.357    46498.459   -25107.036      15.2149      13.1765      28.7324    5760.2466 
  117000      116.986    243.82652    10.180008   -672.34001      -662.16    22439.093    48520.693    47219.976    -28423.39      15.2149      13.1765      28.7324    5760.2466 
  117500      117.486    252.58996     10.54589   -672.69197   -662.14608    23028.749    40891.688     47006.62    -18812.06      15.2149      13.1765      28.7324    5760.2466 
  118000      117.986    244.76483    10.219183   -672.35036   -662.13118    22465.246    42914.511    49001.591   -24520.365      15.2149      13.1765      28.7324    5760.2466 
  118500      118.486    250.26382    10.448771    -672.5653   -662.11652    22620.933     46603.78    46235.424   -24976.407      15.2149      13.1765      28.7324    5760.2466 
  119000      118.986    261.27619    10.908549   -673.01057   -662.10202     23185.61     45522.91    47412.663   -23378.742      15.2149      13.1765      28.7324    5760.2466 
  119500      119.486    234.97365    9.8103913   -671.89708   -662.08669    23313.334      46903.4    47183.836   -24147.235      15.2149      13.1765      28.7324    5760.2466 
  120000      119.986     256.8948    10.725622   -672.79789   -662.07227    22498.319    47097.344    45501.903   -25104.289      15.2149      13.1765      28.7324    5760.2466 
  120500      120.486    250.73255    10.468341   -672.52557   -662.05722    23117.589    44084.483    45139.421   -19871.137      15.2149      13.1765      28.7324    5760.2466 
  121000      120.986    250.90253    10.475438   -672.51726   -662.04183    22638.105    41142.264    49404.477   -22632.426      15.2149      13.1765      28.7324    5760.2466 
  121500      121.486    258.70494    10.801197   -672.82847   -662.02728    21735.787    44458.256    43959.649   -23210.545      15.2149      13.1765      28.7324    5760.2466 
  122000      121.986    253.42535    10.580768   -672.59316   -662.01239    24644.044    44932.886    47806.866   -18807.618      15.2149      13.1765      28.7324    5760.2466 
  122500      122.486    241.49446    10.082642   -672.07955   -661.99691    23276.927    43898.114    49488.466   -23555.797      15.2149      13.1765      28.7324    5760.2466 
  123000      122.986    264.48969    11.042716   -673.02535   -661.98264    23090.485     45299.76    46668.905   -22697.209      15.2149      13.1765      28.7324    5760.2466 
  123500      123.486    257.59876    10.755013    -672.7223   -661.96729    23121.563    45827.831    48344.084   -24807.225      15.2149      13.1765      28.7324    5760.2466 
  124000      123.986    253.34764    10.577524   -672.52953   -661.95201    23110.466    45285.271    47631.486    -23585.36      15.2149      13.1765      28.7324    5760.2466 
  124500      124.486    259.18346    10.821175   -672.75863   -661.93746    23790.916    46902.306    45483.943     -21013.5      15.2149      13.1765      28.7324    5760.2466 
  125000      124.986    252.13756    10.527002   -672.44831    -661.9213    23669.336    47236.417     47570.15    -23798.56      15.2149      13.1765      28.7324    5760.2466 
  125500      125.486     242.7574    10.135371   -672.04073   -661.90536     22870.86    43315.911    45768.219    -20471.55      15.2149      13.1765      28.7324    5760.2466 
  126000      125.986    262.47551    10.958622   -672.85032    -661.8917    25276.926    44627.054    49449.019   -18245.295      15.2149      13.1765      28.7324    5760.2466 
  126500      126.486    259.15241    10.819879   -672.69575   -661.87587    21649.266    44180.487    45630.187   -24862.877      15.2149      13.1765      28.7324    5760.2466 
  127000      126.986    259.24575    10.823776   -672.68423   -661.86045     21588.94    45129.226     47476.86   -27839.265      15.2149      13.1765      28.7324    5760.2466 
  127500      127.486    261.93781    10.936172   -672.78127    -661.8451    23313.023    45978.071    48235.522   -24274.523      15.2149      13.1765      28.7324    5760.2466 
  128000      127.986    245.36413    10.244205   -672.07239   -661.82819    22712.849    42220.348    48637.669   -22719.471      15.2149      13.1765      28.7324    5760.2466 
  128500      128.486    256.73749    10.719054   -672.53239   -661.81334    23810.813    46535.879    48816.227   -23919.666      15.2149      13.1765      28.7324    5760.2466 
  129000      128.986    254.42872     10.62266   -672.42092   -661.79826    22344.468    45982.094    48780.436   -27729.127      15.2149      13.1765      28.7324    5760.2466 
  129500      129.486    254.63197    10.631146   -672.41399   -661.78284    24022.698    44713.256     52713.59   -25358.753      15.2149      13.1765      28.7324    5760.2466 
  130000      129.986    261.76196    10.928831   -672.69598   -661.76715     22811.51    42865.266    49420.571   -23851.308      15.2149      13.1765      28.7324    5760.2466 
  130500      130.486    254.06467    10.607461   -672.35861   -661.75115    22916.051    41455.209    49776.813   -22483.868      15.2149      13.1765      28.7324    5760.2466 
  131000      130.986    256.08058    10.691627   -672.42701   -661.73538     21887.06    40821.025    47149.849   -22309.693      15.2149      13.1765      28.7324    5760.2466 
  131500      131.486    255.28527    10.658422   -672.37821   -661.71979    23993.801    44416.521    48424.202    -20859.32      15.2149      13.1765      28.7324    5760.2466 
  132000      131.986    267.13354      11.1531   -672.85811   -661.70501    23361.073    45395.265    47959.489   -23271.534      15.2149      13.1765      28.7324    5760.2466 
  132500      132.486    242.95232    10.143509    -671.8313   -661.68779     24030.88    47094.199    48774.542     -23776.1      15.2149      13.1765      28.7324    5760.2466 
  133000      132.986    255.78785    10.679405   -672.35207   -661.67266    23089.313    43985.254      47797.3   -22514.614      15.2149      13.1765      28.7324    5760.2466 
  133500      133.486    263.03912    10.982153   -672.63989   -661.65773    22570.867    43327.321     50793.57   -26408.289      15.2149      13.1765      28.7324    5760.2466 
  134000      133.986    252.59668    10.546171    -672.1871   -661.64092    24400.869     48510.13    45500.439   -20807.963      15.2149      13.1765      28.7324    5760.2466 
  134500      134.486    260.00006     10.85527   -672.48131   -661.62604    21682.195    38803.189    47588.775   -21345.379      15.2149      13.1765      28.7324    5760.2466 
  135000      134.986    250.10735    10.442239     -672.052   -661.60976    23562.524      46503.3    45784.731    -21600.46      15.2149      13.1765      28.7324    5760.2466 
  135500      135.486    264.22017    11.031463   -672.62547   -661.59401    22211.707    44048.582    48783.452   -26196.913      15.2149      13.1765      28.7324    5760.2466 
  136000      135.986    271.58896    11.339118   -672.91938   -661.58026    22804.428    43659.508    46734.547    -21980.77      15.2149      13.1765      28.7324    5760.2466 
  136500      136.486    253.93982    10.602248     -672.165   -661.56275    21342.507    41329.014    46705.883   -24007.377      15.2149      13.1765      28.7324    5760.2466 
  137000      136.986    255.27716    10.658083   -672.20642   -661.54833    23165.248    45065.407    47245.402   -22815.066      15.2149      13.1765      28.7324    5760.2466 
  137500      137.486    247.24031    10.322537   -671.85358   -661.53105    22062.207    43129.156     48831.68   -25774.214      15.2149      13.1765      28.7324    5760.2466 
  138000      137.986    248.61791    10.380053   -671.89521   -661.51516    21701.658    45857.801    44709.082   -25461.907      15.2149      13.1765      28.7324    5760.2466 
  138500      138.486    261.01626    10.897697   -672.39749   -661.49979    20425.215    37619.425    48054.357   -24398.138      15.2149      13.1765      28.7324    5760.2466 
  139000      138.986    266.57749    11.129884   -672.61553   -661.48564    22865.159    45954.091    48658.515    -26017.13      15.2149      13.1765      28.7324    5760.2466 
  139500      139.486    260.05044    10.857373   -672.32648    -661.4691     23579.87    42248.709     48506.89   -20015.989      15.2149      13.1765      28.7324    5760.2466 
  140000      139.986    256.53596     10.71064   -672.16347   -661.45284    23467.851    44528.289    47528.907   -21653.644      15.2149      13.1765      28.7324    5760.2466 
  140500      140.486    246.61878    10.296587   -671.73319    -661.4366    21317.414    41459.355    45922.748   -23429.863      15.2149      13.1765      28.7324    5760.2466 
  141000      140.986    280.31053    11.703252   -673.12604   -661.42278    23297.641    43281.446    48889.954   -22278.478      15.2149      13.1765      28.7324    5760.2466 
  141500      141.486    262.47126    10.958445   -672.36463   -661.40618    22422.629    42506.032     48258.25   -23496.394      15.2149      13.1765      28.7324    5760.2466 
  142000      141.986     253.1172    10.567903   -671.95755   -661.38965    22480.779    42486.781    49797.101   -24841.545      15.2149      13.1765      28.7324    5760.2466 
  142500      142.486    257.86216     10.76601   -672.13982   -661.37381    22224.092    44230.925    47040.305   -24598.954      15.2149      13.1765      28.7324    5760.2466 
  143000      142.986    277.00911    11.565415   -672.92425   -661.35884    23752.404    41393.104    49479.582   -19615.473      15.2149      13.1765      28.7324    5760.2466 
  143500      143.486    246.68602    10.299395    -671.6412   -661.34181    23187.382    44011.127    47369.977   -21818.957      15.2149      13.1765      28.7324    5760.2466 
  144000      143.986    250.88352    10.474644   -671.80044    -661.3258    21083.288    42218.261    46560.489   -25528.885      15.2149      13.1765      28.7324    5760.2466 
  144500      144.486    257.17186    10.737189   -672.04737   -661.31018    23360.304    43214.796    49018.156   -22152.039      15.2149      13.1765      28.7324    5760.2466 
  145000      144.986    255.64206    10.673318   -671.96788   -661.29456    23410.873    44797.948    46438.267   -21003.596      15.2149      13.1765      28.7324    5760.2466 
  145500      145.486    247.05232    10.314688   -671.59136   -661.27668    21237.471    39848.562    47626.758   -23762.908      15.2149      13.1765      28.7324    5760.2466 
  146000      145.986    253.76739    10.595049   -671.85688   -661.26183    22829.391    45975.906    48907.954   -26395.686      15.2149      13.1765      28.7324    5760.2466 
  146500      146.486    268.13892    11.195075   -672.44128    -661.2462    21982.629    40422.847    47760.854   -22235.813      15.2149      13.1765      28.7324    5760.2466 
  147000      146.986     269.2792    11.242683   -672.47232   -661.22964    23353.333    44306.542    48142.729   -22389.271      15.2149      13.1765      28.7324    5760.2466 
  147500      147.486    260.35605    10.870132   -672.08415   -661.21402    22803.207    42903.219     49039.59   -23533.187      15.2149      13.1765      28.7324    5760.2466 
  148000      147.986    272.47653    11.376175   -672.57413   -661.19796    23514.075    47260.458    45584.547   -22302.781      15.2149      13.1765      28.7324    5760.2466 
  148500      148.486    258.82111    10.806047   -671.98702   -661.18097    23591.182    44370.161    49966.492   -23563.107      15.2149      13.1765      28.7324    5760.2466 
  149000      148.986    250.61106    10.463269   -671.62823   -661.16496    24715.345    45087.838    48681.287   -19623.089      15.2149      13.1765      28.7324    5760.2466 
  149500      149.486    271.73103    11.345049   -672.49434   -661.14929     21123.07    45315.174    47478.468    -29424.43      15.2149      13.1765      28.7324    5760.2466 
  150000      149.986    270.20564    11.281363   -672.41436   -661.13299    20917.068    42517.187    48505.919   -28271.903      15.2149      13.1765      28.7324    5760.2466 
  150500      150.486    267.98552    11.188671   -672.30564   -661.11696    22954.906    43757.381    46998.742   -21891.404      15.2149      13.1765      28.7324    5760.2466 
  151000      150.986     267.5993    11.172546   -672.27286   -661.10032    23690.606    44280.426    51300.193     -24508.8      15.2149      13.1765      28.7324    5760.2466 
  151500      151.486    260.26504    10.866333   -671.95059   -661.08425    21054.574    46940.939     46003.45   -29780.666      15.2149      13.1765      28.7324    5760.2466 
  152000      151.986    264.37408    11.037889   -672.10662   -661.06874    22143.803     43463.89    47594.365   -24626.845      15.2149      13.1765      28.7324    5760.2466 
  152500      152.486    257.23717    10.739916   -671.79147   -661.05156    22731.191    43111.798    49558.411   -24476.638      15.2149      13.1765      28.7324    5760.2466 
  153000      152.986    257.37666     10.74574   -671.78222   -661.03648    22551.831    46019.765    45927.008    -24291.28      15.2149      13.1765      28.7324    5760.2466 
  153500      153.486     261.4721    10.916729   -671.93599   -661.01926    23739.183    49103.898    48510.071    -26396.42      15.2149      13.1765      28.7324    5760.2466 
  154000      153.986    260.00556    10.855499   -671.86018   -661.00468    22696.268    45571.087    52032.134   -29514.417      15.2149      13.1765      28.7324    5760.2466 
  154500      154.486    255.39268    10.662907   -671.65008   -660.98718    23007.084    45603.799    48854.086   -25436.634      15.2149      13.1765      28.7324    5760.2466 
  155000      154.986     262.1654    10.945675    -671.9168   -660.97112    23696.637    43774.739    50023.103   -22707.931      15.2149      13.1765      28.7324    5760.2466 
  155500      155.486    262.03686    10.940308   -671.89521    -660.9549    21631.448    39601.111    47459.291    -22166.06      15.2149      13.1765      28.7324    5760.2466 
  156000      155.986    255.56868    10.670255   -671.60852   -660.93827    22691.975    45653.401    47767.556   -25345.032      15.2149      13.1765      28.7324    5760.2466 
  156500      156.486    249.54652    10.418823   -671.33984   -660.92102      23125.2    47007.732    47403.904   -25036.035      15.2149      13.1765      28.7324    5760.2466 
  157000      156.986     270.1302    11.278213   -672.18369   -660.90548    22192.563    43847.056    45786.255   -23055.623      15.2149      13.1765      28.7324    5760.2466 
  157500      157.486    261.62006    10.922906    -671.8121    -660.8892    23678.598    47416.859    48314.664    -24695.73      15.2149      13.1765      28.7324    5760.2466 
  158000      157.986    258.41849    10.789237    -671.6623   -660.87306     20436.78    40377.868    44625.354   -23692.881      15.2149      13.1765      28.7324    5760.2466 
  158500      158.486    256.99857    10.729954   -671.58684   -660.85689     23145.13    45683.539    48708.071    -24956.22      15.2149      13.1765      28.7324    5760.2466 
  159000      158.986    259.27592    10.825036   -671.66577   -660.84073    23200.276    43412.651    46614.371   -20426.194      15.2149      13.1765      28.7324    5760.2466 
  159500      159.486    253.90828    10.600932   -671.42512   -660.82419    23031.452    45079.068    49425.955   -25410.666      15.2149      13.1765      28.7324    5760.2466 
  160000      159.986    250.86679    10.473946   -671.28202   -660.80807    22615.421    40501.381    47982.848   -20637.967      15.2149      13.1765      28.7324    5760.2466 
  160500      160.486    266.70186    11.135077   -671.92664   -660.79156    22090.934    44302.408    47065.617   -25095.223      15.2149      13.1765      28.7324    5760.2466 
  161000      160.986    276.36809    11.538651   -672.31433   -660.77568    23414.916    46392.762    47672.223   -23820.236      15.2149      13.1765      28.7324    5760.2466 
  161500      161.486    286.17216    11.947982   -672.70746   -660.75948    23680.185    45754.843    48664.008   -23378.295      15.2149      13.1765      28.7324    5760.2466 
  162000      161.986    276.10389    11.527621   -672.27036   -660.74274    22432.322    43939.779    45869.275    -22512.09      15.2149      13.1765      28.7324    5760.2466 
  162500      162.486    257.61435    10.755663   -671.48022   -660.72455    25107.721    46424.862    50758.727   -21860.426      15.2149      13.1765      28.7324    5760.2466 
  163000      162.986    254.92169    10.643242   -671.35182   -660.70858    23359.393     47813.03    48655.983   -26390.833      15.2149      13.1765      28.7324    5760.2466 
  163500      163.486     258.4016    10.788532   -671.48084   -660.69231    22370.619    44819.688    47933.076   -25640.906      15.2149      13.1765      28.7324    5760.2466 
  164000      163.986    272.34122    11.370525   -672.04596   -660.67544    24140.321    47276.322    47213.207   -22068.565      15.2149      13.1765      28.7324    5760.2466 
  164500      164.486    261.12595    10.902276   -671.56131   -660.65903    22503.243    44772.227    47577.503       -24840      15.2149      13.1765      28.7324    5760.2466 
  165000      164.986     260.9234     10.89382   -671.53565   -660.64183    21588.515    44214.935    46582.995   -26032.386      15.2149      13.1765      28.7324    5760.2466 
  165500      165.486    266.02427    11.106786   -671.73257   -660.62578    22877.203     44879.43    47710.549    -23958.37      15.2149      13.1765      28.7324    5760.2466 
  166000      165.986    263.16799    10.987534   -671.59648   -660.60894    22892.822    46548.262    47672.179   -25541.974      15.2149      13.1765      28.7324    5760.2466 
  166500      166.486    280.48268     11.71044   -672.30292   -660.59248      23107.9    44596.531    45738.725   -21011.557      15.2149      13.1765      28.7324    5760.2466 
  167000      166.986    283.92342    11.854094   -672.43073   -660.57663    23184.704    43138.726    47314.934   -20899.547      15.2149      13.1765      28.7324    5760.2466 
  167500      167.486    270.42225    11.290406   -671.84951    -660.5591    24198.893    45862.936    50205.345   -23471.601      15.2149      13.1765      28.7324    5760.2466 
  168000      167.986    263.23076    10.990154   -671.53248   -660.54232    24628.547    48418.425    52122.349   -26655.132      15.2149      13.1765      28.7324    5760.2466 
  168500      168.486    268.28369     11.20112   -671.72664   -660.52552     22536.52    44776.541    48321.056   -25488.036      15.2149      13.1765      28.7324    5760.2466 
  169000      168.986    257.31147    10.743018   -671.25162    -660.5086    24843.518    44718.003    48637.828   -18825.276      15.2149      13.1765      28.7324    5760.2466 
  169500      169.486    262.56588    10.962395   -671.45453   -660.49214    24650.367    46988.758    48885.407   -21923.064      15.2149      13.1765      28.7324    5760.2466 
  170000      169.986    275.63384    11.507996   -671.98345   -660.47545    23009.215    41725.711    48086.773   -20784.838      15.2149      13.1765      28.7324    5760.2466 
  170500      170.486    265.20463    11.072566   -671.53194   -660.45938    24489.338    48913.964    48973.209   -24419.159      15.2149      13.1765      28.7324    5760.2466 
  171000      170.986    263.78545    11.013313   -671.45487   -660.44156    23773.708     43937.14    48757.903   -21373.918      15.2149      13.1765      28.7324    5760.2466 
  171500      171.486    267.62202    11.173494   -671.59876   -660.42527     22509.93    44428.757    49528.703   -26427.669      15.2149      13.1765      28.7324    5760.2466 
  172000      171.986    258.73367    10.802397   -671.21113   -660.40873    22823.832    46349.088    47549.368   -25426.961      15.2149      13.1765      28.7324    5760.2466 
  172500      172.486    274.48346    11.459966   -671.85166   -660.39169    24384.895    47100.301    48376.636   -22322.251      15.2149      13.1765      28.7324    5760.2466 
  173000      172.986    281.71746    11.761993   -672.13731   -660.37531    22507.402    45002.564    47671.534   -25151.894      15.2149      13.1765      28.7324    5760.2466 
  173500      173.486    299.14003    12.489403   -672.84879   -660.35938    23263.838    42278.046    50289.043   -22775.576      15.2149      13.1765      28.7324    5760.2466 
  174000      173.986    260.94167    10.894583    -671.2355   -660.34092    24742.347    47284.644    48503.692   -21561.296      15.2149      13.1765      28.7324    5760.2466 
  174500      174.486    263.27489    10.991997   -671.31652   -660.32452    22200.786    46041.187    48739.609   -28178.437      15.2149      13.1765      28.7324    5760.2466 
  175000      174.986    269.16959    11.238107    -671.5456   -660.30749    24821.857     46600.16    46889.795   -19024.385      15.2149      13.1765      28.7324    5760.2466 
  175500      175.486    254.54653    10.627579   -670.91738    -660.2898    24117.707    43425.094    54026.914   -25098.886      15.2149      13.1765      28.7324    5760.2466 
  176000      175.986    260.76108    10.887043    -671.1603   -660.27325    24699.388    45525.284     49698.88   -21125.999      15.2149      13.1765      28.7324    5760.2466 
  176500      176.486    265.68972    11.092819   -671.35048   -660.25766    24102.655    43793.386    48788.004   -20273.424      15.2149      13.1765      28.7324    5760.2466 
  177000      176.986    269.30054    11.243574   -671.48335   -660.23978     21997.23    47340.346    47219.103   -28567.758      15.2149      13.1765      28.7324    5760.2466 
  177500      177.486    281.75944    11.763746   -671.98725    -660.2235    23588.605    47033.711    47512.854   -23780.749      15.2149      13.1765      28.7324    5760.2466 
  178000      177.986    286.75047    11.972127   -672.17875   -660.20663    23361.421    42988.833    50578.499   -23483.067      15.2149      13.1765      28.7324    5760.2466 
  178500      178.486    258.73978    10.802651    -670.9914   -660.18875    20019.058     42366.79    45974.402    -28284.02      15.2149      13.1765      28.7324    5760.2466 
  179000      178.986    268.12013    11.194291    -671.3667   -660.17241    24442.982    45108.792    46477.953   -18257.798      15.2149      13.1765      28.7324    5760.2466 
  179500      179.486    275.49543    11.502217    -671.6577   -660.15548    24901.305    42581.085    48445.889   -16323.058      15.2149      13.1765      28.7324    5760.2466 
  180000      179.986    282.65236    11.801026   -671.93936   -660.13834     24483.58    48311.181    48259.417   -23119.859      15.2149      13.1765      28.7324    5760.2466 
  180500      180.486    262.71387    10.968574   -671.08931   -660.12073    22209.701    42660.371    47923.854   -23955.122      15.2149      13.1765      28.7324    5760.2466 
  181000      180.986    256.76996    10.720409   -670.82337   -660.10296    22605.435    45556.762    45196.725   -22937.181      15.2149      13.1765      28.7324    5760.2466 
  181500      181.486    279.37899     11.66436   -671.75135   -660.08699    22772.823    43680.941    48854.396   -24216.868      15.2149      13.1765      28.7324    5760.2466 
  182000      181.986    283.86866    11.851808   -671.92187   -660.07007    23942.045    48104.442    46269.091   -22547.399      15.2149      13.1765      28.7324    5760.2466 
  182500      182.486    268.59846    11.214262   -671.26676   -660.05249    24172.013     43362.38    49638.807   -20485.149      15.2149      13.1765      28.7324    5760.2466 
  183000      182.986    273.01992    11.398862   -671.43469   -660.03582    23508.181    44189.695    52611.255   -26276.407      15.2149      13.1765      28.7324    5760.2466 
  183500      183.486    269.89246    11.268287   -671.28646   -660.01817    22526.917    44576.643    47791.792   -24787.684      15.2149      13.1765      28.7324    5760.2466 
  184000      183.986    270.19576    11.280951   -671.28166   -660.00071    23263.955    43978.016    46776.122   -20962.273      15.2149      13.1765      28.7324    5760.2466 
  184500      184.486    281.33198    11.745899   -671.72959   -659.98369    21996.193    46317.683    46953.219   -27282.324      15.2149      13.1765      28.7324    5760.2466 
  185000      184.986    278.66587    11.634586   -671.60098   -659.96639    21383.878     42626.63    47054.332   -25529.328      15.2149      13.1765      28.7324    5760.2466 
  185500      185.486    292.90463    12.229069   -672.17959   -659.95052    22799.713    46883.705    45939.119   -24423.686      15.2149      13.1765      28.7324    5760.2466 
  186000      185.986    283.17219     11.82273   -671.75533    -659.9326    21172.929    44502.906    47642.218   -28626.336      15.2149      13.1765      28.7324    5760.2466 
  186500      186.486    292.94224    12.230639   -672.14586   -659.91522    24688.552    44648.855    51365.927   -21949.125      15.2149      13.1765      28.7324    5760.2466 
  187000      186.986     271.0934    11.318428   -671.21527   -659.89684    24508.132    47124.714     49254.77   -22855.088      15.2149      13.1765      28.7324    5760.2466 
  187500      187.486    287.45105    12.001376   -671.88286   -659.88149    22035.025    43943.408    47458.624   -25296.957      15.2149      13.1765      28.7324    5760.2466 
  188000      187.986    271.24004     11.32455   -671.18729   -659.86274    21396.096    47049.976    45839.439   -28701.127      15.2149      13.1765      28.7324    5760.2466 
  188500      188.486    265.65577    11.091401   -670.93777   -659.84637    22714.487    46053.048    47489.191   -25398.778      15.2149      13.1765      28.7324    5760.2466 
  189000      188.986    265.25505    11.074671   -670.90291   -659.82824    22670.603    45724.265    45998.414   -23710.871      15.2149      13.1765      28.7324    5760.2466 
  189500      189.486    275.76727    11.513567   -671.32518   -659.81161    22552.736    43643.835     45940.83   -21926.457      15.2149      13.1765      28.7324    5760.2466 
  190000      189.986     287.8075    12.016259   -671.81149   -659.79523    21932.843    40811.331    47400.869   -22413.671      15.2149      13.1765      28.7324    5760.2466 
  190500      190.486    284.36375    11.872478    -671.6497   -659.77722    23423.628    45307.457    49392.897   -24429.469      15.2149      13.1765      28.7324    5760.2466 
  191000      190.986    279.29285    11.660763   -671.42049   -659.75972    23546.824    46603.317    50870.411   -26833.256      15.2149      13.1765      28.7324    5760.2466 
  191500      191.486    271.14197    11.320456   -671.06271   -659.74225    22356.055    43337.447    48125.689   -24394.972      15.2149      13.1765      28.7324    5760.2466 
  192000      191.986    277.35786    11.579975   -671.30527    -659.7253    23475.412    47249.434    45465.272   -22288.469      15.2149      13.1765      28.7324    5760.2466 
  192500      192.486    276.66806    11.551176    -671.2575   -659.70632    23497.984    44970.595    50652.472   -25129.114      15.2149      13.1765      28.7324    5760.2466 
  193000      192.986    280.79836     11.72362   -671.41344   -659.68982    23398.118    42949.408    47181.857   -19936.912      15.2149      13.1765      28.7324    5760.2466 
  193500      193.486    274.88598    11.476772    -671.1494   -659.67263     23122.89    46929.808    49062.194   -26623.331      15.2149      13.1765      28.7324    5760.2466 
  194000      193.986    293.38333    12.249055    -671.9037   -659.65464    23749.715    42446.612    48879.268   -20076.734      15.2149      13.1765      28.7324    5760.2466 
  194500      194.486    283.76023    11.847281   -671.48491   -659.63762    22512.881     42650.82    48371.027   -23483.205      15.2149      13.1765      28.7324    5760.2466 
  195000      194.986    268.18121    11.196841   -670.81609   -659.61925    21882.038     43552.71    49304.972   -27211.568      15.2149      13.1765      28.7324    5760.2466 
  195500      195.486    279.93741    11.687674   -671.28997    -659.6023    21706.712    48088.133    47191.978   -30159.974      15.2149      13.1765      28.7324    5760.2466 
  196000      195.986    287.68715    12.011234   -671.59655   -659.58531    25171.528     48704.78    47825.685   -21015.882      15.2149      13.1765      28.7324    5760.2466 
  196500      196.486    274.73108    11.470305   -671.03854   -659.56823    23174.708     46035.69    46109.428   -22620.993      15.2149      13.1765      28.7324    5760.2466 
  197000      196.986    276.47757    11.543222   -671.09382    -659.5506    23960.693    46621.104    49341.694    -24080.72      15.2149      13.1765      28.7324    5760.2466 
  197500      197.486    275.36039    11.496579    -671.0296   -659.53302    21960.241    47944.257    45225.979   -27289.514      15.2149      13.1765      28.7324    5760.2466 
  198000      197.986    283.62712    11.841724   -671.35797   -659.51625    24048.509    49432.756    45881.924   -23169.153      15.2149      13.1765      28.7324    5760.2466 
  198500      198.486    279.05146    11.650685   -671.14891   -659.49823    22586.375    42781.866    48154.749   -23177.489      15.2149      13.1765      28.7324    5760.2466 
  199000      198.986    279.06746    11.651353   -671.13222   -659.48086    25072.337    46871.062    51329.576   -22983.627      15.2149      13.1765      28.7324    5760.2466 
  199500      199.486    287.63187    12.008926   -671.47241   -659.46348     24482.81    47381.523    47658.269    -21591.36      15.2149      13.1765      28.7324    5760.2466 
  200000      199.986    297.25697    12.410784    -671.8567   -659.44592    23043.258    46051.078    46428.688   -23349.991      15.2149      13.1765      28.7324    5760.2466 
  200500      200.486    281.09327    11.735933   -671.16343    -659.4275    23110.516    45401.007     43007.03   -19076.489      15.2149      13.1765      28.7324    5760.2466 
  201000      200.986    274.86478    11.475887   -670.88591   -659.41003    22696.409    45038.579    48481.888    -25431.24      15.2149      13.1765      28.7324    5760.2466 
  201500      201.486    273.49336    11.418629   -670.81132   -659.39269    23426.554    45292.265    51947.072   -26959.676      15.2149      13.1765      28.7324    5760.2466 
  202000      201.986    286.30206    11.953405   -671.32924   -659.37584    23287.859    44357.097     49489.73   -23983.249      15.2149      13.1765      28.7324    5760.2466 
  202500      202.486    272.14689    11.362412   -670.72007   -659.35766     23235.27    43605.668     46043.62   -19943.477      15.2149      13.1765      28.7324    5760.2466 
  203000      202.986    253.71194    10.592734   -669.93179   -659.33906    21618.716    43847.429      48072.2   -27063.479      15.2149      13.1765      28.7324    5760.2466 
  203500      203.486    272.02722    11.357416   -670.68009   -659.32267    23586.769    46060.487     49688.62     -24988.8      15.2149      13.1765      28.7324    5760.2466 
  204000      203.986    272.87125    11.392655   -670.69749   -659.30483    22950.651    45085.783    45662.607   -21896.436      15.2149      13.1765      28.7324    5760.2466 
  204500      204.486    283.08838    11.819231   -671.10768   -659.28845    21966.103    43564.646    49397.358   -27063.695      15.2149      13.1765      28.7324    5760.2466 
  205000      204.986    286.04637     11.94273   -671.21423    -659.2715    22831.779    45702.165    43729.384    -20936.21      15.2149      13.1765      28.7324    5760.2466 
  205500      205.486    280.81092    11.724144    -670.9773   -659.25316    24192.787    43380.728    52272.037   -23074.405      15.2149      13.1765      28.7324    5760.2466 
  206000      205.986    297.72623    12.430376   -671.66724   -659.23686    23310.655    46768.237    46774.272   -23610.543      15.2149      13.1765      28.7324    5760.2466 
  206500      206.486    274.59994    11.464829   -670.68155   -659.21672    22124.075    46885.456    49153.088   -29666.319      15.2149      13.1765      28.7324    5760.2466 
  207000      206.986    287.92554    12.021187    -671.2214   -659.20021     23085.08    43897.351    48312.751   -22954.861      15.2149      13.1765      28.7324    5760.2466 
  207500      207.486    288.44618    12.042924   -671.22577   -659.18285    23247.086    43896.384    51810.656   -25965.781      15.2149      13.1765      28.7324    5760.2466 
  208000      207.986    280.24357    11.700457   -670.86603   -659.16557    22804.219    46341.717    49422.137   -27351.197      15.2149      13.1765      28.7324    5760.2466 
  208500      208.486    266.89089    11.142969   -670.28827    -659.1453    23180.626      44961.1    50557.011   -25976.234      15.2149      13.1765      28.7324    5760.2466 
  209000      208.986    276.96648    11.563635    -670.6923   -659.12866    21677.933    40619.548    45995.954   -21581.702      15.2149      13.1765      28.7324    5760.2466 
  209500      209.486     289.0016    12.066114   -671.17652   -659.11041    22246.854    45744.699     49108.43   -28112.566      15.2149      13.1765      28.7324    5760.2466 
  210000      209.986    281.51669    11.753611    -670.8458   -659.09219    23083.612    46871.709     49085.57   -26706.441      15.2149      13.1765      28.7324    5760.2466 
  210500      210.486    300.79196    12.558373   -671.63405   -659.07567    23459.986    44065.623    46311.335   -19996.998      15.2149      13.1765      28.7324    5760.2466 
  211000      210.986    293.80584    12.266696   -671.32475   -659.05805    23327.947     44982.09    46144.409   -21142.659      15.2149      13.1765      28.7324    5760.2466 
  211500      211.486    285.29552    11.911381   -670.95153   -659.04015    22909.051    44378.674    46228.276   -21879.798      15.2149      13.1765      28.7324    5760.2466 
  212000      211.986    296.67992    12.386691   -671.40928   -659.02259    22392.068    43655.128     45661.83   -22140.755      15.2149      13.1765      28.7324    5760.2466 
[...]
  948500      948.486    378.35283    15.796619   -667.65658   -651.85996    24428.363    47505.743    50284.795   -24505.449      15.2149      13.1765      28.7324    5760.2466 
  949000      948.986    368.96458     15.40465   -667.26099   -651.85634    22989.676    42835.085    48890.975   -22757.033      15.2149      13.1765      28.7324    5760.2466 
  949500      949.486    372.78376    15.564105   -667.41764   -651.85354    23050.496    45901.958    47711.903   -24462.372      15.2149      13.1765      28.7324    5760.2466 
  950000      949.986     375.5298    15.678755   -667.53135   -651.85259     23085.67    42782.457    45987.394   -19512.841      15.2149      13.1765      28.7324    5760.2466 
  950500      950.486    382.07626    15.952076   -667.80193   -651.84985    24012.726    47702.299    50322.367   -25986.487      15.2149      13.1765      28.7324    5760.2466 
  951000      950.986    337.90072    14.107702   -665.95393   -651.84622     23809.87    46591.798    49676.397   -24838.584      15.2149      13.1765      28.7324    5760.2466 
  951500      951.486    384.01003    16.032813   -667.87736   -651.84455    24812.783    44165.999    53571.204   -23298.854      15.2149      13.1765      28.7324    5760.2466 
  952000      951.986    378.37099    15.797377    -667.6399   -651.84252    23064.063     45657.95    49396.013   -25861.774      15.2149      13.1765      28.7324    5760.2466 
  952500      952.486    390.97983    16.323809   -668.16334   -651.83953    21265.198    44024.648    48757.572   -28986.625      15.2149      13.1765      28.7324    5760.2466 
  953000      952.986    375.52891    15.678718   -667.51537   -651.83666    25074.613    47267.497    50919.771   -22963.428      15.2149      13.1765      28.7324    5760.2466 
  953500      953.486    384.83682    16.067333   -667.90112   -651.83378    23000.263    44186.929    47363.993   -22550.132      15.2149      13.1765      28.7324    5760.2466 
  954000      953.986    373.81301    15.607077   -667.43838   -651.83131    22243.042    46611.386    46310.744   -26193.003      15.2149      13.1765      28.7324    5760.2466 
  954500      954.486    357.29339    14.917366    -666.7449   -651.82753    24379.542    47338.515    48559.664   -22759.554      15.2149      13.1765      28.7324    5760.2466 
  955000      954.986     375.3927    15.673031   -667.49791   -651.82488    21861.548    50228.218      48876.2   -33519.776      15.2149      13.1765      28.7324    5760.2466 
  955500      955.486    373.52994    15.595259    -667.4174   -651.82214    23874.183    48659.242    48179.134   -25215.827      15.2149      13.1765      28.7324    5760.2466 
  956000      955.986    376.65662    15.725801   -667.54454   -651.81874    24871.744    43991.044    50668.999    -20044.81      15.2149      13.1765      28.7324    5760.2466 
  956500      956.486    374.16561    15.621798   -667.43741   -651.81561    23934.066    48338.103    46781.453   -23317.358      15.2149      13.1765      28.7324    5760.2466 
  957000      956.986    372.87683     15.56799   -667.38113   -651.81314    24679.857    46222.405    52823.757   -25006.591      15.2149      13.1765      28.7324    5760.2466 
  957500      957.486    370.62236    15.473864   -667.28431   -651.81044    23606.371    45009.906     49116.97   -23307.763      15.2149      13.1765      28.7324    5760.2466 
  958000      957.986    379.17804    15.831072    -667.6378   -651.80673    23232.598    49022.725    46398.882   -25723.813      15.2149      13.1765      28.7324    5760.2466 
  958500      958.486    352.17392    14.703623   -666.50607   -651.80245     21974.05    43739.232    51693.504   -29510.586      15.2149      13.1765      28.7324    5760.2466 
  959000      958.986    374.43846     15.63319   -667.43264   -651.79945     25070.58    49431.756    46505.948   -20725.965      15.2149      13.1765      28.7324    5760.2466 
  959500      959.486    377.27556    15.751642    -667.5479   -651.79626    23894.805    48048.459    51197.979   -27562.023      15.2149      13.1765      28.7324    5760.2466 
  960000      959.986    406.92223    16.989421   -668.78481   -651.79538    22964.541    43140.692    47564.863   -21811.934      15.2149      13.1765      28.7324    5760.2466 
  960500      960.486    374.96086    15.655001   -667.44594   -651.79094    22461.286    44251.879    49895.274   -26763.295      15.2149      13.1765      28.7324    5760.2466 
  961000      960.986    375.57948    15.680829   -667.46777   -651.78694    25904.388    46044.329    53574.634   -21905.797      15.2149      13.1765      28.7324    5760.2466 
  961500      961.486    362.42972    15.131813   -666.91506   -651.78324    21514.691    41672.099     48776.24   -25904.266      15.2149      13.1765      28.7324    5760.2466 
  962000      961.986     375.9588    15.696666    -667.4773   -651.78064    22448.314     46510.43    48270.256   -27435.745      15.2149      13.1765      28.7324    5760.2466 
  962500      962.486    362.45502    15.132869   -666.91022   -651.77735     24530.04    44091.223    49905.797   -20406.899      15.2149      13.1765      28.7324    5760.2466 
  963000      962.986    359.77615    15.021024   -666.79441   -651.77338    21126.932    44741.143    47425.663   -28786.009      15.2149      13.1765      28.7324    5760.2466 
  963500      963.486    375.60434    15.681867   -667.45289   -651.77102    23887.443    49283.043    50923.341   -28544.055      15.2149      13.1765      28.7324    5760.2466 
  964000      963.986    375.94055    15.695904    -667.4627    -651.7668    24146.797    46145.883    51657.036   -25362.528      15.2149      13.1765      28.7324    5760.2466 
  964500      964.486    375.58351    15.680997   -667.44398   -651.76299    22328.707    47516.028    51020.831   -31550.738      15.2149      13.1765      28.7324    5760.2466 
  965000      964.986    385.27669    16.085697   -667.84639    -651.7607    24337.799    45113.878    47542.971   -19643.453      15.2149      13.1765      28.7324    5760.2466 
  965500      965.486    350.77524    14.645227   -666.39971   -651.75448    23416.531    43184.654    56926.098   -29861.159      15.2149      13.1765      28.7324    5760.2466 
  966000      965.986    366.15392    15.287302   -667.03952   -651.75222    22292.928    46107.561    48952.562    -28181.34      15.2149      13.1765      28.7324    5760.2466 
  966500      966.486    361.53262    15.094358   -666.84211   -651.74775    23376.693    44312.579    49713.783   -23896.285      15.2149      13.1765      28.7324    5760.2466 
  967000      966.986    389.21012    16.249922   -667.99479   -651.74486    24469.572    45383.734    48495.377   -20470.394      15.2149      13.1765      28.7324    5760.2466 
  967500      967.486    350.88505    14.649811   -666.39032   -651.74051    24017.234    47466.338    49921.271   -25335.908      15.2149      13.1765      28.7324    5760.2466 
  968000      967.986    368.81455    15.398386   -667.13565   -651.73726    24413.516    48537.511    50096.247   -25393.211      15.2149      13.1765      28.7324    5760.2466 
  968500      968.486    376.14741    15.704541   -667.43664    -651.7321    23070.958    45734.085    45973.619   -22494.831      15.2149      13.1765      28.7324    5760.2466 
  969000      968.986    375.12694    15.661935   -667.39083    -651.7289    23449.997    48986.108    47067.996   -25704.112      15.2149      13.1765      28.7324    5760.2466 
  969500      969.486     388.9773    16.240202   -667.96684   -651.72664     23890.88    47825.134    48515.616    -24668.11      15.2149      13.1765      28.7324    5760.2466 
  970000      969.986      380.815    15.899417   -667.62209   -651.72267    23477.439     44685.89    48824.682   -23078.256      15.2149      13.1765      28.7324    5760.2466 
  970500      970.486    374.20222    15.623327   -667.34167   -651.71834    23078.045    44653.678    49533.633   -24953.175      15.2149      13.1765      28.7324    5760.2466 
  971000      970.986    379.03275    15.825007   -667.53871   -651.71371    25146.107    45207.044    53762.542   -23531.265      15.2149      13.1765      28.7324    5760.2466 
  971500      971.486    380.59203    15.890108   -667.60092   -651.71081    22701.022    47012.176    47698.166   -26607.275      15.2149      13.1765      28.7324    5760.2466 
  972000      971.986    387.22269    16.166945   -667.87446   -651.70752    22366.734    44844.715    48981.239   -26725.751      15.2149      13.1765      28.7324    5760.2466 
  972500      972.486    388.95963    16.239464   -667.94127    -651.7018     22031.44    45626.853    46359.629   -25892.163      15.2149      13.1765      28.7324    5760.2466 
  973000      972.986     380.2466    15.875686    -667.5736   -651.69791     24192.08    45438.018    49058.672   -21920.449      15.2149      13.1765      28.7324    5760.2466 
  973500      973.486     375.4821    15.676763   -667.37002   -651.69326    21448.926    42664.401    47759.257   -26076.881      15.2149      13.1765      28.7324    5760.2466 
  974000      973.986    377.26562    15.751227   -667.44189   -651.69066    26248.928    42335.062    54433.959   -18022.236      15.2149      13.1765      28.7324    5760.2466 
  974500      974.486    371.54407    15.512346   -667.19632   -651.68397    22177.045    40414.651     50434.24   -24317.756      15.2149      13.1765      28.7324    5760.2466 
  975000      974.986    367.87794    15.359282    -667.0396   -651.68031    23367.891    43365.505    56208.258   -29470.088      15.2149      13.1765      28.7324    5760.2466 
  975500      975.486    367.04435    15.324478   -667.00126   -651.67678    22232.915    46793.835    48204.084   -28299.176      15.2149      13.1765      28.7324    5760.2466 
  976000      975.986     373.7198    15.603185   -667.27535   -651.67217    22233.255    44977.772    51656.906   -29934.913      15.2149      13.1765      28.7324    5760.2466 
  976500      976.486    366.86478    15.316981   -666.98381   -651.66683    22956.398    45959.188    48364.349   -25454.342      15.2149      13.1765      28.7324    5760.2466 
  977000      976.986     365.2951    15.251446   -666.91502   -651.66357    22154.925    44857.256    49555.602   -27948.085      15.2149      13.1765      28.7324    5760.2466 
  977500      977.486    357.92269     14.94364    -666.6027   -651.65906    23812.454     45875.32     46443.69   -20881.649      15.2149      13.1765      28.7324    5760.2466 
  978000      977.986    363.26853    15.166834   -666.82082   -651.65399    23822.459    41305.935    51299.677   -21138.235      15.2149      13.1765      28.7324    5760.2466 
  978500      978.486    377.15806    15.746736   -667.39605   -651.64932    25071.794    43660.757      53631.9   -22077.274      15.2149      13.1765      28.7324    5760.2466 
  979000      978.986    376.94464    15.737826   -667.38328   -651.64546    22176.568    44811.328    52488.534   -30770.156      15.2149      13.1765      28.7324    5760.2466 
  979500      979.486    369.57766    15.430247   -667.07018   -651.63993    22765.461    45647.369    52445.885   -29796.872      15.2149      13.1765      28.7324    5760.2466 
  980000      979.986    363.44016       15.174   -666.80858   -651.63457    20955.017    45373.991    48809.823   -31318.764      15.2149      13.1765      28.7324    5760.2466 
  980500      980.486    359.34965    15.003217    -666.6334   -651.63018    22608.449    44883.228    50180.772   -27238.653      15.2149      13.1765      28.7324    5760.2466 
  981000      980.986    364.37157    15.212887   -666.83921   -651.62632    23197.012    47155.575    47718.996   -25283.536      15.2149      13.1765      28.7324    5760.2466 
  981500      981.486    387.96144    16.197789   -667.82057   -651.62278    24323.835    46265.348    48922.737   -22216.579      15.2149      13.1765      28.7324    5760.2466 
  982000      981.986    362.75375    15.145341   -666.76238   -651.61704    25284.769    51017.624    47939.743   -23103.058      15.2149      13.1765      28.7324    5760.2466 
  982500      982.486     397.8561    16.610901   -668.22342   -651.61252     24325.96    41933.333    49039.936    -17995.39      15.2149      13.1765      28.7324    5760.2466 
  983000      982.986    380.94134    15.904692   -667.51247   -651.60777     22235.83    43638.027    51189.595    -28120.13      15.2149      13.1765      28.7324    5760.2466 
  983500      983.486    374.14636    15.620995   -667.22325   -651.60226    25204.045    45080.331    52647.831   -22116.028      15.2149      13.1765      28.7324    5760.2466 
  984000      983.986    351.68728    14.683305   -666.28008   -651.59677    20991.026    45671.485    45678.832   -28377.238      15.2149      13.1765      28.7324    5760.2466 
  984500      984.486     394.0815    16.453307   -668.04609   -651.59278    22003.448    47681.482    46442.905   -28114.044      15.2149      13.1765      28.7324    5760.2466 
  985000      984.986    386.20354    16.124394   -667.71179    -651.5874     24080.74    48561.191    52754.986   -29073.956      15.2149      13.1765      28.7324    5760.2466 
  985500      985.486    368.11052    15.368992   -666.95249    -651.5835    25209.112    44480.165    51136.378   -19989.209      15.2149      13.1765      28.7324    5760.2466 
  986000      985.986    398.07201    16.619915   -668.19596   -651.57605    22485.122    44004.109    44791.932   -21340.674      15.2149      13.1765      28.7324    5760.2466 
  986500      986.486    382.17758    15.956306   -667.52703   -651.57072    22138.347    41338.869    49853.364   -24777.191      15.2149      13.1765      28.7324    5760.2466 
  987000      986.986    370.88028    15.484633   -667.05095   -651.56632    25179.332    44072.829    49104.013   -17638.847      15.2149      13.1765      28.7324    5760.2466 
  987500      987.486     392.0168    16.367104   -667.92793   -651.56082    21770.321    41439.257    44763.924   -20892.217      15.2149      13.1765      28.7324    5760.2466 
  988000      987.986    392.51145    16.387756   -667.94322   -651.55546    23218.537    46829.072    49441.111   -26614.572      15.2149      13.1765      28.7324    5760.2466 
  988500      988.486     379.0215    15.824537   -667.37305   -651.54851    26428.623    44123.008    51298.589   -16135.729      15.2149      13.1765      28.7324    5760.2466 
  989000      988.986    396.20624    16.542017   -668.08627   -651.54426     23385.26    48030.036    49760.147   -27634.403      15.2149      13.1765      28.7324    5760.2466 
  989500      989.486    383.19621    15.998835   -667.53764    -651.5388    21932.037    43112.986    49477.207   -26794.081      15.2149      13.1765      28.7324    5760.2466 
  990000      989.986      381.604    15.932359   -667.46625   -651.53389    24077.105    45649.962    50271.891    -23690.54      15.2149      13.1765      28.7324    5760.2466 
  990500      990.486    362.78342     15.14658   -666.67294   -651.52636    22398.034    43176.593    49038.594   -25021.085      15.2149      13.1765      28.7324    5760.2466 
  991000      990.986    366.16469    15.287752   -666.80964   -651.52189    25771.712    49267.989    51430.581   -23383.434      15.2149      13.1765      28.7324    5760.2466 
  991500      991.486    362.20045    15.122241   -666.63844    -651.5162    23659.858    47883.781    43938.831   -20843.038      15.2149      13.1765      28.7324    5760.2466 
  992000      991.986     399.2567    16.669377   -668.18192   -651.51254    24322.357    42966.419     54018.84   -24018.189      15.2149      13.1765      28.7324    5760.2466 
  992500      992.486    376.22833    15.707919   -667.21392   -651.50601    22580.967    44364.348    50765.342    -27386.79      15.2149      13.1765      28.7324    5760.2466 
  993000      992.986     347.3736    14.503204   -666.00171    -651.4985    23406.316     45570.94    49666.165   -25018.157      15.2149      13.1765      28.7324    5760.2466 
  993500      993.486    387.52574    16.179598   -667.67427   -651.49468    23884.361    41723.659    50765.427   -20836.002      15.2149      13.1765      28.7324    5760.2466 
  994000      993.986    388.13496    16.205033    -667.6933   -651.48827     24391.31     45672.62    51933.396   -24432.086      15.2149      13.1765      28.7324    5760.2466 
  994500      994.486    361.93529     15.11117   -666.59361   -651.48244    23063.765    43464.264    52663.976   -26936.944      15.2149      13.1765      28.7324    5760.2466 
  995000      994.986    360.28114    15.042108   -666.51832   -651.47622    25040.818    52508.781    52113.069   -29499.396      15.2149      13.1765      28.7324    5760.2466 
  995500      995.486    382.70354    15.978266   -667.44843   -651.47016    23325.261    45969.889    49166.776   -25160.882      15.2149      13.1765      28.7324    5760.2466 
  996000      995.986    380.18033    15.872919    -667.3374   -651.46448    24637.296    44144.729    50418.053   -20650.893      15.2149      13.1765      28.7324    5760.2466 
  996500      996.486     368.8317    15.399102   -666.85814   -651.45903    22947.146    43113.083     51002.86   -25274.505      15.2149      13.1765      28.7324    5760.2466 
  997000      996.986    363.99298    15.197081   -666.64893   -651.45185    23654.586    45108.826    52738.419   -26883.488      15.2149      13.1765      28.7324    5760.2466 
  997500      997.486    380.60503    15.890651   -667.33746   -651.44681    23740.335    42763.265    53806.149   -25348.408      15.2149      13.1765      28.7324    5760.2466 
  998000      997.986    372.60341    15.556575   -666.99736   -651.44078    23058.105    44222.034    48974.658   -24022.377      15.2149      13.1765      28.7324    5760.2466 
  998500      998.486    388.57694    16.223486   -667.65895   -651.43547      23011.8    49771.717    47481.437   -28217.755      15.2149      13.1765      28.7324    5760.2466 
  999000      998.986    392.19342    16.374478   -667.80402   -651.42954    23139.014    46071.037    50301.733   -26955.727      15.2149      13.1765      28.7324    5760.2466 
  999500      999.486    375.04107     15.65835   -667.08278   -651.42443    22241.688    47337.293     49675.49    -30287.72      15.2149      13.1765      28.7324    5760.2466 
 1000000      999.986    388.44494    16.217975   -667.63579   -651.41782     22976.85    49184.624    49253.901   -29507.976      15.2149      13.1765      28.7324    5760.2466 
 1000014         1000    372.00831    15.531729   -666.94928   -651.41755    22911.467    50465.891    47670.743   -29402.233      15.2149      13.1765      28.7324    5760.2466 
Loop time of 945.831 on 28 procs for 1000000 steps with 324 atoms

Performance: 91.348 ns/day, 0.263 hours/ns, 1057.271 timesteps/s
88.8% CPU use with 28 MPI tasks x no OpenMP threads

MPI task timing breakdown:
Section |  min time  |  avg time  |  max time  |%varavg| %total
---------------------------------------------------------------
Pair    | 739        | 811.81     | 880.21     | 130.8 | 85.83
Neigh   | 0          | 0          | 0          |   0.0 |  0.00
Comm    | 53.003     | 121.19     | 193.21     | 335.4 | 12.81
Output  | 0.098965   | 0.10162    | 0.11774    |   1.0 |  0.01
Modify  | 4.7958     | 7.6392     | 14.951     | 109.7 |  0.81
Other   |            | 5.091      |            |       |  0.54

Nlocal:    11.5714 ave 15 max 6 min
Histogram: 1 3 2 2 1 1 5 4 5 4
Nghost:    647.071 ave 705 max 600 min
Histogram: 5 2 4 3 3 2 1 3 1 4
Neighs:    725.536 ave 1007 max 390 min
Histogram: 3 2 2 2 1 2 7 4 3 2
FullNghs:  1451.07 ave 1917 max 761 min
Histogram: 1 3 2 2 1 1 5 4 5 4

Total # of neighbors = 40630
Ave neighs/atom = 125.401
Neighbor list builds = 0
Dangerous builds = 0

write_restart   POSCAR_1x1x1.rest

#unfix    1
#undump   1
Total wall time: 0:15:45
