LAMMPS (7 Dec 2015)
#----------- Initialize Simulation ------------ restart01
#processors	2 2 2
units		metal
boundary	p p p     ## periodic boundary condition  on x y z axis ##
atom_style atomic
#atom_modify map array sort 0 0.0

read_data	POSCAR_1x1x1.lammps
  triclinic box = (0 0 0) to (15.2149 13.1765 28.7324) with tilt (-7.60743 0 0)
  2 by 2 by 7 MPI processor grid
  reading atoms ...
  324 atoms

#----------- Define Potential -----------------
pair_style meam
pair_coeff * * MgAlZn.library.meam Mg Al Zn MgAlZn.parameter.meam Mg Al Zn 	#1=Mg 2=Al 3=Zn	#atoms/mass

#----------- Neighbor List --------------------
neighbor 2.0 bin
neigh_modify delay 10 check yes

#--------------  Run a simulation (minimization) ---------------------------------------
minimize       1.0e-4   1.0e-6   100   1000          #結構優化的條件
WARNING: Resetting reneighboring criteria during minimization (../min.cpp:168)
Neighbor list info ...
  2 neighbor list requests
  update every 1 steps, delay 0 steps, check yes
  max neighbors/atom: 2000, page size: 100000
  master list distance cutoff = 8
  ghost atom cutoff = 8
  binsize = 4 -> bins = 6 4 8
Memory usage per processor = 8.65224 Mbytes
Step Temp E_pair E_mol TotEng Press 
       0            0   -715.00998            0   -715.00998     23985.98 
      19            0   -731.09663            0   -731.09663    22224.675 
Loop time of 0.0371178 on 28 procs for 19 steps with 324 atoms

87.2% CPU use with 28 MPI tasks x no OpenMP threads

Minimization stats:
  Stopping criterion = energy tolerance
  Energy initial, next-to-last, final = 
        -715.009981822     -731.033265982     -731.096627663
  Force two-norm initial, final = 22.0448 2.39561
  Force max component initial, final = 3.87965 0.764979
  Final line search alpha, max atom move = 0.0933232 0.0713903
  Iterations, force evaluations = 19 37

MPI task timing breakdown:
Section |  min time  |  avg time  |  max time  |%varavg| %total
---------------------------------------------------------------
Pair    | 0.028422   | 0.030929   | 0.034267   |   0.8 | 83.33
Neigh   | 0          | 0          | 0          |   0.0 |  0.00
Comm    | 0.0017796  | 0.0049359  | 0.0075554  |   2.0 | 13.30
Output  | 0          | 0          | 0          |   0.0 |  0.00
Modify  | 0          | 0          | 0          |   0.0 |  0.00
Other   |            | 0.001253   |            |       |  3.38

Nlocal:    11.5714 ave 16 max 7 min
Histogram: 1 0 6 4 3 4 3 3 3 1
Nghost:    651.393 ave 712 max 599 min
Histogram: 2 2 4 5 3 4 3 2 1 2
Neighs:    723.429 ave 988 max 483 min
Histogram: 2 4 4 2 3 3 2 4 2 2
FullNghs:  1446.86 ave 2002 max 903 min
Histogram: 1 5 1 4 3 4 3 3 2 2

Total # of neighbors = 40512
Ave neighs/atom = 125.037
Neighbor list builds = 0
Dangerous builds = 0
velocity all  create 393.0 4928459 #rot yes dist gaussian

#--------------  Run a simulation (Relaxation)  ----------------------------------------
fix  1  all  nvt   temp  393.0  393.0  100				#damping constant
#fix  2  all  npt   temp  393.0  393.0  50 iso 0.0 0.0 1000.0
#fix  2  all deform 1 x final 0 15.6906 y final 0 13.5884 z final 0 25.2339 xy final -7.8452 units lattice
#fix  3  all  npt   temp  393.0  393.0  50 z 0.0 0.0 1000.0

#variable b equal 1
#fix 2 all efield  0.0  0.0  v_b
#compute pot all pe/atom


#----------- Output --------------------------
thermo	 500
timestep  0.001		#1.0 fs
thermo_style	custom step time temp ke pe etotal press pxx pyy pzz lx ly lz vol

dump 1 all custom 10000 dump.eq id type x y z
dump_modify 1 sort  id

run        1000000	#10000	 ps
Neighbor list info ...
  2 neighbor list requests
  update every 1 steps, delay 10 steps, check yes
  max neighbors/atom: 2000, page size: 100000
  master list distance cutoff = 8
  ghost atom cutoff = 8
  binsize = 4 -> bins = 6 4 8
Memory usage per processor = 7.54287 Mbytes
Step Time Temp KinEng PotEng TotEng Press Pxx Pyy Pzz Lx Ly Lz Volume 
      19            0          393    16.408154   -731.09663   -714.68847    25267.225    43249.673    42828.763   -10276.761      15.2149      13.1765      28.7324    5760.2466 
     500        0.481    249.46787     10.41554   -725.10001   -714.68447    33809.894    51897.525    49004.212    527.94605      15.2149      13.1765      28.7324    5760.2466 
    1000        0.981    237.03539    9.8964709   -724.58027    -714.6838    33277.832    54429.338    45015.126    389.03121      15.2149      13.1765      28.7324    5760.2466 
    1500        1.481    235.16459     9.818363    -724.5018   -714.68343    32201.618    48531.868    46750.873    1322.1125      15.2149      13.1765      28.7324    5760.2466 
    2000        1.981    245.91127    10.267048   -724.94974    -714.6827    32936.766    51478.771    48674.322   -1342.7941      15.2149      13.1765      28.7324    5760.2466 
    2500        2.481    241.40893    10.079071   -724.76149   -714.68242     33778.72    52298.754    48429.543    607.86132      15.2149      13.1765      28.7324    5760.2466 
    3000        2.981    241.87285     10.09844   -724.77915   -714.68071    34303.551    52519.231    49693.877    697.54549      15.2149      13.1765      28.7324    5760.2466 
    3500        3.481    241.09062    10.065781   -724.74543   -714.67965    33484.408    48361.583    49498.587    2593.0543      15.2149      13.1765      28.7324    5760.2466 
    4000        3.981     218.3248    9.1152845   -723.79286   -714.67758    32010.798    51465.294    46289.017   -1721.9177      15.2149      13.1765      28.7324    5760.2466 
    4500        4.481    237.07541     9.898142   -724.57361   -714.67547    33810.748    49703.792    48172.812    3555.6416      15.2149      13.1765      28.7324    5760.2466 
    5000        4.981    242.35323    10.118496   -724.79373   -714.67524    34843.801    51256.414    50979.106    2295.8841      15.2149      13.1765      28.7324    5760.2466 
    5500        5.481    236.79249    9.8863298   -724.55889   -714.67256    33808.981    52366.479    51000.934   -1940.4707      15.2149      13.1765      28.7324    5760.2466 
    6000        5.981    233.16214    9.7347589   -724.40469   -714.66993    32263.018    51215.057    47725.833   -2151.8349      15.2149      13.1765      28.7324    5760.2466 
    6500        6.481    234.88039    9.8064974   -724.47449   -714.66799    32087.515    48253.327    45617.504    2391.7129      15.2149      13.1765      28.7324    5760.2466 
    7000        6.981    241.49893    10.082828   -724.74741   -714.66458    33967.059    49321.982    49132.489    3446.7062      15.2149      13.1765      28.7324    5760.2466 
    7500        7.481    240.10969    10.024826   -724.68738   -714.66255    33260.854    50899.418    44943.886    3939.2583      15.2149      13.1765      28.7324    5760.2466 
    8000        7.981    238.35689    9.9516448   -724.61103   -714.65939    32538.587    49157.081     44467.73    3990.9502      15.2149      13.1765      28.7324    5760.2466 
    8500        8.481    244.36943    10.202675   -724.85911   -714.65643    32280.574    49655.037    47853.084   -666.39929      15.2149      13.1765      28.7324    5760.2466 
    9000        8.981    241.03049     10.06327   -724.71573   -714.65246    34135.756    51818.512    48032.216    2556.5412      15.2149      13.1765      28.7324    5760.2466 
    9500        9.481    231.23487    9.6542932    -724.3033     -714.649    34041.559    52756.663    47741.914    1626.1014      15.2149      13.1765      28.7324    5760.2466 
   10000        9.981    234.19802    9.7780077   -724.42252   -714.64451    32337.708    47314.128    48642.486    1056.5095      15.2149      13.1765      28.7324    5760.2466 
   10500       10.481    217.44899    9.0787187   -723.71931    -714.6406    31465.112    48948.347    44675.046    771.94256      15.2149      13.1765      28.7324    5760.2466 
   11000       10.981    241.66438    10.089736   -724.72663    -714.6369     34983.31    52384.849    49580.448    2984.6333      15.2149      13.1765      28.7324    5760.2466 
   11500       11.481     239.8985    10.016009   -724.64791    -714.6319    33431.029    49646.654    45699.588    4946.8441      15.2149      13.1765      28.7324    5760.2466 
   12000       11.981    227.23075    9.4871171   -724.11419   -714.62707     30647.07    47691.987    46455.075   -2205.8527      15.2149      13.1765      28.7324    5760.2466 
   12500       12.481    234.22555    9.7791573   -724.40119   -714.62203    33223.911    50876.291    48261.143    534.29905      15.2149      13.1765      28.7324    5760.2466 
   13000       12.981    244.67472    10.215421   -724.83337   -714.61795    34495.823    50799.173    47796.451    4891.8453      15.2149      13.1765      28.7324    5760.2466 
   13500       13.481    234.19462    9.7778657   -724.38981   -714.61194    33476.441    50560.334    49765.465    103.52403      15.2149      13.1765      28.7324    5760.2466 
   14000       13.981    240.40467    10.037142   -724.64467   -714.60753    33978.358    50766.708    49489.237    1679.1298      15.2149      13.1765      28.7324    5760.2466 
   14500       14.481    249.03626    10.397519   -724.99933   -714.60181    33646.558    52207.992     45762.69    2968.9902      15.2149      13.1765      28.7324    5760.2466 
   15000       14.981     232.3619    9.7013477   -724.29638   -714.59503    33684.383      52903.3    46815.042    1334.8074      15.2149      13.1765      28.7324    5760.2466 
   15500       15.481    239.02506    9.9795416     -724.569   -714.58945    33121.739    51660.414    46176.505    1528.2978      15.2149      13.1765      28.7324    5760.2466 
   16000       15.981    241.61459    10.087657   -724.67035   -714.58269    33886.055    49580.011    49488.025    2590.1305      15.2149      13.1765      28.7324    5760.2466 
   16500       16.481    263.61291     11.00611   -725.58407   -714.57796    33347.949    50239.355    48791.499    1012.9928      15.2149      13.1765      28.7324    5760.2466 
   17000       16.981     229.1418    9.5669055   -724.13646   -714.56955    33310.873    49545.376    50435.785   -48.542432      15.2149      13.1765      28.7324    5760.2466 
   17500       17.481    233.60949    9.7534361   -724.31682   -714.56339    33426.557    48803.421    52140.623   -664.37243      15.2149      13.1765      28.7324    5760.2466 
   18000       17.981     224.8362    9.3871424   -723.94307   -714.55593      34722.6    51874.443    50442.125    1851.2327      15.2149      13.1765      28.7324    5760.2466 
   18500       18.481     240.8686    10.056511   -724.60557   -714.54906    31354.099    48208.842    46454.701   -601.24712      15.2149      13.1765      28.7324    5760.2466 
   19000       18.981    239.96669    10.018856   -724.56115   -714.54229    32162.801    47754.278    46898.012    1836.1133      15.2149      13.1765      28.7324    5760.2466 
   19500       19.481    245.01139    10.229477   -724.76426   -714.53478    35103.364    51689.582    50267.704    3352.8049      15.2149      13.1765      28.7324    5760.2466 
   20000       19.981    241.41474    10.079313   -724.60565   -714.52634    33060.519    48635.236    48202.994    2343.3284      15.2149      13.1765      28.7324    5760.2466 
   20500       20.481    245.72969    10.259467   -724.77819   -714.51872    33465.742    51652.537    48516.085    228.60477      15.2149      13.1765      28.7324    5760.2466 
   21000       20.981    248.70598     10.38373   -724.89376   -714.51003    33814.689    51435.344    50407.289   -398.56757      15.2149      13.1765      28.7324    5760.2466 
   21500       21.481    249.92969    10.434821    -724.9367   -714.50188    34997.042    54495.753    48723.733    1771.6404      15.2149      13.1765      28.7324    5760.2466 
   22000       21.981    245.44621    10.247631   -724.74109   -714.49346    34119.949    49876.638    48853.214    3629.9947      15.2149      13.1765      28.7324    5760.2466 
   22500       22.481    242.37622    10.119456   -724.60342   -714.48396    33316.697    50141.252    49157.625    651.21495      15.2149      13.1765      28.7324    5760.2466 
   23000       22.981    233.42676     9.745807   -724.22106   -714.47526    33099.746    49660.654    48052.789    1585.7947      15.2149      13.1765      28.7324    5760.2466 
   23500       23.481    250.05694    10.440134    -724.9068   -714.46667    33950.207    54252.059     45098.35    2500.2113      15.2149      13.1765      28.7324    5760.2466 
   24000       23.981    241.50126    10.082926   -724.53957   -714.45665    34932.971    55083.513    45333.484    4381.9156      15.2149      13.1765      28.7324    5760.2466 
   24500       24.481    241.99707    10.103626   -724.55113    -714.4475    32409.324     50381.81    45147.221    1698.9397      15.2149      13.1765      28.7324    5760.2466 
   25000       24.981    234.58569    9.7941934   -724.23128   -714.43708    34193.375    50267.842    49299.249    3013.0348      15.2149      13.1765      28.7324    5760.2466 
   25500       25.481    243.98163    10.186483   -724.61471   -714.42822    33390.289    49650.242    49027.618    1493.0077      15.2149      13.1765      28.7324    5760.2466 
   26000       25.981    234.69062    9.7985744   -724.21552   -714.41695    35056.446    50596.685    49819.648    4753.0044      15.2149      13.1765      28.7324    5760.2466 
   26500       26.481    247.67692    10.340766   -724.74874   -714.40798    32971.122    49255.172    48803.563    854.63062      15.2149      13.1765      28.7324    5760.2466 
   27000       26.981     239.8211    10.012777   -724.40955   -714.39677     33425.05    51375.883    48313.212    586.05554      15.2149      13.1765      28.7324    5760.2466 
   27500       27.481    242.91523     10.14196   -724.52883   -714.38687    32625.991    50712.644    47172.554   -7.2249526      15.2149      13.1765      28.7324    5760.2466 
   28000       27.981    238.34593    9.9511875   -724.32698   -714.37579    34241.435    48891.673    50410.064    3422.5668      15.2149      13.1765      28.7324    5760.2466 
   28500       28.481    257.30705    10.742834   -725.10847   -714.36563    32981.978     49966.08    48231.473     748.3795      15.2149      13.1765      28.7324    5760.2466 
   29000       28.981    224.71739    9.3821817   -723.73535   -714.35317     33164.62    52116.258     45189.95    2187.6535      15.2149      13.1765      28.7324    5760.2466 
   29500       29.481    241.78012    10.094568   -724.43759   -714.34302     33961.13    49862.638    47710.721    4310.0312      15.2149      13.1765      28.7324    5760.2466 
   30000       29.981    225.35418    9.4087682   -723.74001   -714.33124    33431.382    52012.944    49521.548   -1240.3471      15.2149      13.1765      28.7324    5760.2466 
   30500       30.481    227.19439    9.4855992    -723.8056      -714.32      34472.1    51813.426    49630.457    1972.4177      15.2149      13.1765      28.7324    5760.2466 
   31000       30.981    230.67777    9.6310339   -723.93989   -714.30886    33840.739    51151.642    47179.812    3190.7614      15.2149      13.1765      28.7324    5760.2466 
   31500       31.481    242.89182    10.140983   -724.43931   -714.29833    32807.625    50268.171     49351.63   -1196.9271      15.2149      13.1765      28.7324    5760.2466 
   32000       31.981    235.91767     9.849805    -724.1346    -714.2848     34075.06    49960.198    51360.443    904.53873      15.2149      13.1765      28.7324    5760.2466 
   32500       32.481    256.45605    10.707303   -724.98236   -714.27506    35219.665    52855.734     49425.62    3377.6406      15.2149      13.1765      28.7324    5760.2466 
   33000       32.981    249.91619    10.434258   -724.69635   -714.26209    33598.545    50822.582    46402.864    3570.1885      15.2149      13.1765      28.7324    5760.2466 
   33500       33.481    237.47855    9.9149733   -724.16355   -714.24857    32443.819    49293.768    50288.366   -2250.6773      15.2149      13.1765      28.7324    5760.2466 
   34000       33.981    248.47408    10.374048   -724.61089   -714.23685    32518.166    48806.592    49863.921   -1116.0158      15.2149      13.1765      28.7324    5760.2466 
   34500       34.481    235.45999    9.8306963   -724.05474   -714.22405    34514.285    49752.796    49700.292    4089.7681      15.2149      13.1765      28.7324    5760.2466 
   35000       34.981    250.25706    10.448489   -724.66071   -714.21222    34356.031    51448.749    49687.976    1931.3686      15.2149      13.1765      28.7324    5760.2466 
   35500       35.481    238.27875    9.9483827   -724.14803   -714.19965    32489.227    50264.863    46544.427    658.39238      15.2149      13.1765      28.7324    5760.2466 
   36000       35.981    237.58121    9.9192597   -724.10544   -714.18618    31747.252    48694.927    48297.571   -1750.7433      15.2149      13.1765      28.7324    5760.2466 
   36500       36.481    241.09211    10.065843   -724.23933   -714.17349    33732.841     51378.31    49205.434    614.77958      15.2149      13.1765      28.7324    5760.2466 
   37000       36.981    243.45089    10.164325   -724.32563    -714.1613    33352.252    51049.381     47431.14    1576.2353      15.2149      13.1765      28.7324    5760.2466 
   37500       37.481    249.81249    10.429928   -724.57783    -714.1479    34960.027    51573.006    53330.905   -23.828875      15.2149      13.1765      28.7324    5760.2466 
   38000       37.981    247.11172    10.317168   -724.45276   -714.13559    32462.961    49545.424    46522.275    1321.1842      15.2149      13.1765      28.7324    5760.2466 
   38500       38.481    232.52706    9.7082435   -723.82961   -714.12136    33565.008    51596.171    50500.116   -1401.2636      15.2149      13.1765      28.7324    5760.2466 
   39000       38.981    242.43923    10.122087   -724.23105   -714.10896    33090.635    49692.496    49658.752   -79.342693      15.2149      13.1765      28.7324    5760.2466 
   39500       39.481    236.09618     9.857258   -723.95283   -714.09557    33959.069     54214.05    49470.154   -1806.9957      15.2149      13.1765      28.7324    5760.2466 
   40000       39.981    230.96652    9.6430895    -723.7251   -714.08201    33620.238    52602.499    48683.918    -425.7017      15.2149      13.1765      28.7324    5760.2466 
   40500       40.481     259.1118    10.818184    -724.8881   -714.06992    31155.973    47399.524    50480.641   -4412.2467      15.2149      13.1765      28.7324    5760.2466 
   41000       40.981      239.875    10.015028   -724.07061   -714.05558    31875.934    50143.047    46828.691   -1343.9357      15.2149      13.1765      28.7324    5760.2466 
   41500       41.481    256.43342    10.706359   -724.75054   -714.04418    32914.274    49383.701    48348.897    1010.2238      15.2149      13.1765      28.7324    5760.2466 
   42000       41.981    239.09923    9.9826384   -724.01297   -714.03034    33378.953    49359.745    50144.852    632.26265      15.2149      13.1765      28.7324    5760.2466 
   42500       42.481    231.63398    9.6709564   -723.68699   -714.01603    32553.191    49728.252     50265.81   -2334.4873      15.2149      13.1765      28.7324    5760.2466 
   43000       42.981      257.885    10.766963   -724.77039   -714.00343    32984.934    50524.763    48656.173   -226.13503      15.2149      13.1765      28.7324    5760.2466 
   43500       43.481    247.51915    10.334179   -724.32482   -713.99064    32545.969    50328.463    48789.515   -1480.0714      15.2149      13.1765      28.7324    5760.2466 
   44000       43.981    261.15677    10.903563   -724.88119   -713.97762    33618.626    49758.263    50218.825    878.79032      15.2149      13.1765      28.7324    5760.2466 
   44500       44.481    243.37282    10.161065   -724.12442   -713.96336    34710.034    52769.901    50625.317    734.88336      15.2149      13.1765      28.7324    5760.2466 
   45000       44.981    241.70885    10.091593    -724.0411   -713.94951    33744.702    52262.057    46270.683    2701.3657      15.2149      13.1765      28.7324    5760.2466 
   45500       45.481    253.01348    10.563573   -724.49994   -713.93637    33587.793    52290.898    47426.517    1045.9639      15.2149      13.1765      28.7324    5760.2466 
   46000       45.981    260.36274    10.870412   -724.79451    -713.9241    33517.463    49435.388    47416.514    3700.4877      15.2149      13.1765      28.7324    5760.2466 
   46500       46.481    254.89485    10.642122   -724.55252    -713.9104    33432.555    53031.671    46387.714    878.27966      15.2149      13.1765      28.7324    5760.2466 
   47000       46.981    253.69869    10.592181   -724.48886   -713.89668    34911.488    50439.473    51001.426    3293.5646      15.2149      13.1765      28.7324    5760.2466 
   47500       47.481    229.97239    9.6015833   -723.48421   -713.88263    32200.035    47971.763    47585.492    1042.8494      15.2149      13.1765      28.7324    5760.2466 
   48000       47.981    250.87497    10.474288   -724.34469    -713.8704     31153.35    49088.747    48850.309   -4479.0051      15.2149      13.1765      28.7324    5760.2466 
   48500       48.481    246.08602    10.274344   -724.13109   -713.85674    35378.386    53834.723    48579.123    3721.3133      15.2149      13.1765      28.7324    5760.2466 
   49000       48.981    242.88424    10.140666   -723.98386   -713.84319     33250.06      47463.7    49479.574    2806.9074      15.2149      13.1765      28.7324    5760.2466 
   49500       49.481    237.09097    9.8987916   -723.72874   -713.82994    32207.685    50748.621    46276.106   -401.67149      15.2149      13.1765      28.7324    5760.2466 
   50000       49.981    248.13278    10.359798   -724.17714   -713.81735    33552.634    52154.767    46734.068    1769.0667      15.2149      13.1765      28.7324    5760.2466 
   50500       50.481    247.77001    10.344652   -724.14864   -713.80399    34256.171    51385.083    48627.187    2756.2435      15.2149      13.1765      28.7324    5760.2466 
   51000       50.981    235.10983    9.8160767   -723.60695   -713.79087    33400.821    50420.258    48937.711    844.49449      15.2149      13.1765      28.7324    5760.2466 
   51500       51.481    239.93829     10.01767   -723.79574   -713.77807    32607.518     50927.27     46831.61    63.675057      15.2149      13.1765      28.7324    5760.2466 
   52000       51.981    251.88995    10.516664    -724.2821   -713.76544    32825.519    52078.041    46131.495    267.02075      15.2149      13.1765      28.7324    5760.2466 
   52500       52.481    256.92747    10.726986    -724.4801   -713.75312    35498.974    51032.576    50347.486    5116.8601      15.2149      13.1765      28.7324    5760.2466 
   53000       52.981    245.73432     10.25966   -723.99937   -713.73971    32447.137     49308.66    47665.413    367.33872      15.2149      13.1765      28.7324    5760.2466 
   53500       53.481    264.16087    11.028987   -724.75702   -713.72803    32653.687    49674.078    48550.721   -263.73845      15.2149      13.1765      28.7324    5760.2466 
   54000       53.981    250.29456    10.450055   -724.16471   -713.71466    34521.265    53224.336    47609.898    2729.5608      15.2149      13.1765      28.7324    5760.2466 
   54500       54.481    260.74936    10.886553   -724.58991   -713.70336    33733.769    50199.936     44303.06    6698.3109      15.2149      13.1765      28.7324    5760.2466 
   55000       54.981    253.62153    10.588959   -724.27913   -713.69017    33181.786    48971.741     46760.89    3812.7269      15.2149      13.1765      28.7324    5760.2466 
   55500       55.481    240.44811    10.038955   -723.71578   -713.67683    32526.054    50885.166    46303.929    389.06687      15.2149      13.1765      28.7324    5760.2466 
   56000       55.981    246.02045    10.271607   -723.93646   -713.66486    32581.852    50632.092    48117.822    -1004.358      15.2149      13.1765      28.7324    5760.2466 
   56500       56.481    252.61293    10.546849   -724.20011   -713.65326    35067.787    50549.653    53172.112    1481.5953      15.2149      13.1765      28.7324    5760.2466 
   57000       56.981    259.99777    10.855174   -724.49583   -713.64066    32285.877    48991.167    47934.225   -67.760021      15.2149      13.1765      28.7324    5760.2466 
   57500       57.481    247.61815    10.338312   -723.96651    -713.6282     32916.08    51006.846    49171.915   -1430.5203      15.2149      13.1765      28.7324    5760.2466 
   58000       57.981    254.01017    10.605185   -724.22127   -713.61608    33095.349    50168.501    50559.078   -1441.5308      15.2149      13.1765      28.7324    5760.2466 
   58500       58.481    250.87975    10.474487   -724.07921   -713.60472    33966.879    53381.442    46388.257    2130.9396      15.2149      13.1765      28.7324    5760.2466 
   59000       58.981    249.26651    10.407133   -723.99993   -713.59279    33936.294     52121.71    48551.326    1135.8449      15.2149      13.1765      28.7324    5760.2466 
   59500       59.481    244.49497    10.207916   -723.78858   -713.58066    32921.898    49734.542    46449.937    2581.2151      15.2149      13.1765      28.7324    5760.2466 
   60000       59.981    247.72736    10.342872   -723.91141   -713.56854    32812.841    49143.701    48077.862    1216.9606      15.2149      13.1765      28.7324    5760.2466 
   60500       60.481    270.17455    11.280065   -724.83844   -713.55838    34554.963     51179.24    49728.545    2757.1034      15.2149      13.1765      28.7324    5760.2466 
   61000       60.981    263.05076    10.982639   -724.52916   -713.54653     33131.72    50072.527    48882.224    440.40857      15.2149      13.1765      28.7324    5760.2466 
   61500       61.481    252.41835    10.538725   -724.07307   -713.53434    32625.823    47868.466    47555.041    2453.9612      15.2149      13.1765      28.7324    5760.2466 
   62000       61.981    255.57117    10.670359   -724.19368   -713.52333    33459.041    49718.329    48503.245    2155.5484      15.2149      13.1765      28.7324    5760.2466 
   62500       62.481     251.6405    10.506249   -724.01707   -713.51082    33398.369    51048.756    49403.563   -257.21235      15.2149      13.1765      28.7324    5760.2466 
   63000       62.981     255.3933    10.662933   -724.16277   -713.49984    35299.033    50425.044    51127.505    4344.5513      15.2149      13.1765      28.7324    5760.2466 
   63500       63.481    240.48197    10.040369   -723.52732   -713.48695    32030.827    50279.434    47365.695   -1552.6472      15.2149      13.1765      28.7324    5760.2466 
   64000       63.981    238.66725    9.9646026   -723.44052   -713.47591    32411.312    47281.533    48439.377    1513.0254      15.2149      13.1765      28.7324    5760.2466 
   64500       64.481    243.44534    10.164093   -723.62922   -713.46513    33907.063    50578.768    47571.373     3571.049      15.2149      13.1765      28.7324    5760.2466 
   65000       64.981    253.50015    10.583891   -724.03886   -713.45497    33188.216    50655.436    48034.666    874.54431      15.2149      13.1765      28.7324    5760.2466 
   65500       65.481    253.25705    10.573742     -724.017   -713.44326    32933.815    48123.924    48859.808    1817.7121      15.2149      13.1765      28.7324    5760.2466 
   66000       65.981    252.20033    10.529623   -723.96193    -713.4323    33552.462    48368.593    50367.682    1921.1111      15.2149      13.1765      28.7324    5760.2466 
   66500       66.481     243.4899    10.165953   -723.58577   -713.41981     33944.24    53713.166    48763.209   -643.65691      15.2149      13.1765      28.7324    5760.2466 
   67000       66.981    264.86133    11.058232   -724.46853    -713.4103    34019.814    51459.929    49188.165    1411.3489      15.2149      13.1765      28.7324    5760.2466 
   67500       67.481    254.14691    10.610894   -724.00995   -713.39905    32418.437    48518.343    48896.537   -159.56816      15.2149      13.1765      28.7324    5760.2466 
   68000       67.981    240.37217    10.035785   -723.42325   -713.38746    32600.473    52376.756     47463.75   -2039.0864      15.2149      13.1765      28.7324    5760.2466 
   68500       68.481    243.20205    10.153935   -723.53167   -713.37773    34271.471    50496.735    46941.683    5375.9952      15.2149      13.1765      28.7324    5760.2466 
   69000       68.981    259.94929     10.85315   -724.21942   -713.36627    33070.626    50104.386    47283.657    1823.8346      15.2149      13.1765      28.7324    5760.2466 
   69500       69.481    270.36115    11.287856   -724.64321   -713.35536    34266.156    54579.391    46853.734    1365.3416      15.2149      13.1765      28.7324    5760.2466 
   70000       69.981    251.92231    10.518015   -723.86285   -713.34484    33197.809     51202.41    47424.672    966.34704      15.2149      13.1765      28.7324    5760.2466 
   70500       70.481    254.63686    10.631351   -723.96457   -713.33322    33967.405    51275.509    48846.223     1780.482      15.2149      13.1765      28.7324    5760.2466 
   71000       70.981    267.57852    11.171678   -724.49433   -713.32265     31724.43    48831.882    46588.006   -246.59961      15.2149      13.1765      28.7324    5760.2466 
   71500       71.481     275.2667    11.492667   -724.80498   -713.31231    34129.806    52209.741     47184.72    2994.9571      15.2149      13.1765      28.7324    5760.2466 
   72000       71.981    271.42193    11.332144   -724.63311   -713.30096    34141.466    51620.666    48253.379    2550.3536      15.2149      13.1765      28.7324    5760.2466 
   72500       72.481    263.70682     11.01003   -724.30042   -713.29039    34163.908    51117.817    48412.358    2961.5491      15.2149      13.1765      28.7324    5760.2466 
   73000       72.981    259.27777    10.825113   -724.10473   -713.27961    34177.521    49801.278    50315.191    2416.0923      15.2149      13.1765      28.7324    5760.2466 
   73500       73.481    265.31757    11.077281   -724.34557   -713.26829    32750.306    50261.823    49558.148   -1569.0537      15.2149      13.1765      28.7324    5760.2466 
   74000       73.981    247.14073    10.318379   -723.57549   -713.25711    32055.869    50565.482     43598.69    2003.4349      15.2149      13.1765      28.7324    5760.2466 
   74500       74.481    246.59695    10.295676   -723.54175   -713.24607    33124.199    50936.471    48149.959    286.16664      15.2149      13.1765      28.7324    5760.2466 
   75000       74.981      252.444    10.539796   -723.77608   -713.23628    34744.606    51678.518    49863.906    2691.3948      15.2149      13.1765      28.7324    5760.2466 
   75500       75.481     271.2847    11.326415   -724.55237   -713.22595    34741.523    51049.454    52795.272    379.84225      15.2149      13.1765      28.7324    5760.2466 
   76000       75.981     264.7934    11.055396   -724.27063   -713.21523    33403.251    51300.002    48654.867    254.88473      15.2149      13.1765      28.7324    5760.2466 
   76500       76.481    249.82454    10.430431   -723.63338   -713.20295    33979.972    50288.918    50496.781    1154.2164      15.2149      13.1765      28.7324    5760.2466 
   77000       76.981    247.66315    10.340191   -723.53225   -713.19206    33509.751    52039.473    50180.035   -1690.2549      15.2149      13.1765      28.7324    5760.2466 
   77500       77.481     259.7655    10.845476   -724.02807   -713.18259    33535.147    48446.015    51805.771    353.65603      15.2149      13.1765      28.7324    5760.2466 
   78000       77.981    252.64044    10.547998   -723.71927   -713.17128    32856.293    48854.831     49091.89     622.1585      15.2149      13.1765      28.7324    5760.2466 
   78500       78.481    241.38549    10.078092   -723.23815   -713.16006    32202.546    49250.109    47296.038    61.490373      15.2149      13.1765      28.7324    5760.2466 
   79000       78.981    231.94257    9.6838406   -722.83243   -713.14859    31016.694    48435.522      47570.4   -2955.8397      15.2149      13.1765      28.7324    5760.2466 
   79500       79.481    256.61725    10.714034    -723.8531   -713.13906    32309.292    50845.073    45763.733    319.07035      15.2149      13.1765      28.7324    5760.2466 
   80000       79.981    240.29071    10.032384   -723.15987   -713.12749    31979.481    49832.007    46166.939   -60.504665      15.2149      13.1765      28.7324    5760.2466 
   80500       80.481     255.4184    10.663981   -723.78138    -713.1174    32994.264    49481.414    47194.252    2307.1249      15.2149      13.1765      28.7324    5760.2466 
   81000       80.981    252.37971    10.537112   -723.64309   -713.10598    33073.995    50676.826    46686.708    1858.4505      15.2149      13.1765      28.7324    5760.2466 
   81500       81.481    248.66697    10.382101   -723.47776   -713.09566     34449.84    49657.153    50060.026    3632.3401      15.2149      13.1765      28.7324    5760.2466 
   82000       81.981    255.46538    10.665942    -723.7512   -713.08525    33086.875    50388.299    46037.201    2835.1259      15.2149      13.1765      28.7324    5760.2466 
   82500       82.481    245.91527    10.267215   -723.34023   -713.07302    33217.418    51667.979    48514.618   -530.34315      15.2149      13.1765      28.7324    5760.2466 
   83000       82.981    252.43832    10.539559   -723.60157   -713.06201    32488.262    48598.166    48088.722    777.89651      15.2149      13.1765      28.7324    5760.2466 
   83500       83.481    263.96091    11.020639   -724.07178   -713.05114    32962.888    51318.799    47815.879   -246.01207      15.2149      13.1765      28.7324    5760.2466 
   84000       83.981    257.01424    10.730608   -723.77141    -713.0408    33465.012    50945.083    47596.854    1853.1007      15.2149      13.1765      28.7324    5760.2466 
   84500       84.481    254.26111    10.615662    -723.6446   -713.02894    32867.956    49263.176    48358.932     981.7591      15.2149      13.1765      28.7324    5760.2466 
   85000       84.981    241.33535    10.075999   -723.09273   -713.01673    33755.409    50821.843    49131.397    1312.9881      15.2149      13.1765      28.7324    5760.2466 
   85500       85.481    248.32895    10.367988   -723.37473   -713.00674    33561.307    50560.208    47228.418    2895.2946      15.2149      13.1765      28.7324    5760.2466 
   86000       85.981    251.57064    10.503332   -723.49909   -712.99576    34127.135    49462.155    50019.635    2899.6152      15.2149      13.1765      28.7324    5760.2466 
   86500       86.481    251.57536    10.503529   -723.48745   -712.98392     32899.01    48489.346    49514.352    693.33188      15.2149      13.1765      28.7324    5760.2466 
   87000       86.981    264.16666    11.029229   -724.00264   -712.97341    32824.234    49156.069    46276.516    3040.1183      15.2149      13.1765      28.7324    5760.2466 
   87500       87.481    255.17717    10.653909   -723.61494   -712.96103    34394.994     53426.11    49387.987    370.88519      15.2149      13.1765      28.7324    5760.2466 
   88000       87.981     253.9242    10.601596   -723.55109   -712.94949    32094.784    49059.983     48475.81   -1251.4413      15.2149      13.1765      28.7324    5760.2466 
   88500       88.481    253.49928    10.583855   -723.52238   -712.93853    33241.883    49619.676    48063.156    2042.8175      15.2149      13.1765      28.7324    5760.2466 
   89000       88.981    253.38027    10.578886   -723.50574   -712.92685    33157.861    51024.581    49225.057   -776.05525      15.2149      13.1765      28.7324    5760.2466 
   89500       89.481    256.90177    10.725913   -723.64212   -712.91621    34559.297    52253.837    48741.277     2682.778      15.2149      13.1765      28.7324    5760.2466 
   90000       89.981    244.68002    10.215642   -723.11988   -712.90424    32797.243    51294.025    46429.688    668.01491      15.2149      13.1765      28.7324    5760.2466 
   90500       90.481    251.38013    10.495379   -723.38704   -712.89166    33050.077    51841.839     49981.83   -2673.4371      15.2149      13.1765      28.7324    5760.2466 
   91000       90.981    266.64104    11.132537   -724.01366   -712.88112    35462.909    51020.069    50770.904    4597.7535      15.2149      13.1765      28.7324    5760.2466 
   91500       91.481    260.65001    10.882406   -723.75112   -712.86872    33026.839    50484.701    49613.887   -1018.0713      15.2149      13.1765      28.7324    5760.2466 
   92000       91.981    259.36634    10.828811   -723.68525   -712.85644    33346.737    52843.072    48931.605   -1734.4651      15.2149      13.1765      28.7324    5760.2466 
   92500       92.481    274.89563    11.477175   -724.32277   -712.84559    33199.526    49064.372    49622.088    912.11895      15.2149      13.1765      28.7324    5760.2466 
   93000       92.981    247.02103    10.313382    -723.1454   -712.83202    33693.136    49753.858    50084.793    1240.7587      15.2149      13.1765      28.7324    5760.2466 
   93500       93.481    254.04264    10.606541   -723.42753   -712.82099    32811.253    49084.269    46988.588    2360.9028      15.2149      13.1765      28.7324    5760.2466 
   94000       93.981    252.64044    10.547998   -723.35573   -712.80773    33797.476     52713.18    48490.345    188.90128      15.2149      13.1765      28.7324    5760.2466 
   94500       94.481    269.97253    11.271631   -724.06897   -712.79734    32953.563    50932.283    48117.905   -189.50076      15.2149      13.1765      28.7324    5760.2466 
   95000       94.981    259.10811     10.81803   -723.60292   -712.78489    31595.104    49120.794    46404.624   -740.10702      15.2149      13.1765      28.7324    5760.2466 
   95500       95.481    273.00004    11.398032   -724.17101   -712.77297    32297.977    50630.098    46688.247   -424.41404      15.2149      13.1765      28.7324    5760.2466 
   96000       95.981    271.34941    11.329117    -724.0898   -712.76068    34194.698    51877.817    46932.849    3773.4275      15.2149      13.1765      28.7324    5760.2466 
   96500       96.481    263.22632    10.989969   -723.73837    -712.7484    32375.407    47080.821    48449.351    1596.0496      15.2149      13.1765      28.7324    5760.2466 
   97000       96.981    271.88338     11.35141   -724.08801    -712.7366    32998.321    49411.042    50860.352   -1276.4309      15.2149      13.1765      28.7324    5760.2466 
   97500       97.481    274.73488    11.470463    -724.1958   -712.72534    33519.775    48917.845    48062.374    3579.1076      15.2149      13.1765      28.7324    5760.2466 
   98000       97.981    263.90067    11.018124   -723.72953    -712.7114    31945.864    50124.819    48249.666   -2536.8925      15.2149      13.1765      28.7324    5760.2466 
   98500       98.481    256.36631    10.703557   -723.40192   -712.69836    32869.979    48107.462    46263.005    4239.4707      15.2149      13.1765      28.7324    5760.2466 
   99000       98.981    256.01734    10.688987   -723.37518   -712.68619    33268.523    49874.421    48633.158    1297.9892      15.2149      13.1765      28.7324    5760.2466 
   99500       99.481     274.2165     11.44882    -724.1229   -712.67408    33595.846    50807.709    48766.712    1213.1175      15.2149      13.1765      28.7324    5760.2466 
  100000       99.981    255.42207    10.664134   -723.32574    -712.6616    33107.128    49601.965    48300.962    1418.4565      15.2149      13.1765      28.7324    5760.2466 
  100500      100.481    255.51272    10.667918   -723.31591   -712.64799     33031.92    51339.376    46602.662    1153.7201      15.2149      13.1765      28.7324    5760.2466 
  101000      100.981    266.72117    11.135883   -723.77201   -712.63613     34090.34    50536.829     48819.22    2914.9711      15.2149      13.1765      28.7324    5760.2466 
  101500      101.481     256.7641    10.720165   -723.34293   -712.62277    32951.155    49558.484    49049.451    245.53142      15.2149      13.1765      28.7324    5760.2466 
  102000      101.981    260.53816    10.877736   -723.48765   -712.60991    34000.686    50933.469    49910.579    1158.0088      15.2149      13.1765      28.7324    5760.2466 
  102500      102.481    290.98754    12.149028   -724.74718   -712.59815    35296.503    50172.979    48701.399    7015.1322      15.2149      13.1765      28.7324    5760.2466 
  103000      102.981     253.6255    10.589125   -723.17326   -712.58414    33717.003    49888.135    47939.284    3323.5913      15.2149      13.1765      28.7324    5760.2466 
  103500      103.481    268.35168    11.203958   -723.77482   -712.57087    32965.532     51727.74    47412.399    -243.5429      15.2149      13.1765      28.7324    5760.2466 
  104000      103.981    271.35324    11.329276    -723.8875   -712.55823    32562.678    48938.549    47724.976    1024.5085      15.2149      13.1765      28.7324    5760.2466 
  104500      104.481    261.45282    10.915924   -723.46016   -712.54424    31880.038    49685.651    46869.291   -914.82961      15.2149      13.1765      28.7324    5760.2466 
  105000      104.981    263.22834    10.990054   -723.52058   -712.53053    34721.769    55079.119    47432.837    1653.3522      15.2149      13.1765      28.7324    5760.2466 
  105500      105.481    260.66416    10.882997   -723.40144   -712.51844     33817.72    53246.959    48080.524    125.67721      15.2149      13.1765      28.7324    5760.2466 
  106000      105.981    262.02376    10.939761   -723.44472   -712.50496    31612.696    48428.071    49607.105    -3197.086      15.2149      13.1765      28.7324    5760.2466 
  106500      106.481     269.9807    11.271971   -723.76403   -712.49206    33427.347    50499.015    49974.738    -191.7116      15.2149      13.1765      28.7324    5760.2466 
  107000      106.981    262.53985    10.961308   -723.43967   -712.47836    33542.892    50691.458    47762.648    2174.5711      15.2149      13.1765      28.7324    5760.2466 
  107500      107.481     272.1506    11.362567   -723.82692   -712.46436    34037.617    53742.312    47781.056    589.48324      15.2149      13.1765      28.7324    5760.2466 
  108000      107.981    275.57515    11.505545    -723.9571   -712.45155    33808.813    52597.811    49730.498   -901.87003      15.2149      13.1765      28.7324    5760.2466 
  108500      108.481    258.54873    10.794675   -723.23183   -712.43715    33648.589    48806.683    45507.487    6631.5977      15.2149      13.1765      28.7324    5760.2466 
  109000      108.981    262.97015    10.979274   -723.40395   -712.42467    33427.092    53019.518    48693.596   -1431.8372      15.2149      13.1765      28.7324    5760.2466 
  109500      109.481    258.44241    10.790236   -723.20081   -712.41058    32671.173    50967.233    46630.773    415.51384      15.2149      13.1765      28.7324    5760.2466 
  110000      109.981    257.40776    10.747038   -723.14382   -712.39678     33064.73    49742.587    48167.799    1283.8039      15.2149      13.1765      28.7324    5760.2466 
  110500      110.481    271.63254    11.340937   -723.72507   -712.38414    33930.865     50475.37    49600.649     1716.576      15.2149      13.1765      28.7324    5760.2466 
  111000      110.981    263.91227    11.018608   -723.38794   -712.36934    33394.858    48328.545    49517.307    2338.7224      15.2149      13.1765      28.7324    5760.2466 
  111500      111.481    277.08762    11.568693    -723.9252   -712.35651    34668.074    54147.483    46698.926    3157.8128      15.2149      13.1765      28.7324    5760.2466 
  112000      111.981    270.68841    11.301519   -723.64283   -712.34131    33787.605    51435.131    48187.398    1740.2869      15.2149      13.1765      28.7324    5760.2466 
  112500      112.481    281.31922    11.745366   -724.07284   -712.32748    33657.279    49328.427    49501.491    2141.9191      15.2149      13.1765      28.7324    5760.2466 
  113000      112.981    262.31497    10.951919   -723.26516   -712.31324    33581.863    50674.851      47829.3    2241.4364      15.2149      13.1765      28.7324    5760.2466 
  113500      113.481    267.16388    11.154366   -723.45377   -712.29941    33333.638    49120.132     49061.38    1819.4024      15.2149      13.1765      28.7324    5760.2466 
  114000      113.981    271.01967     11.31535   -723.60084   -712.28549    32775.378    49024.258    47913.539    1388.3378      15.2149      13.1765      28.7324    5760.2466 
  114500      114.481    242.92218    10.142251    -722.4127   -712.27045    33128.986    49037.485    46926.198    3423.2755      15.2149      13.1765      28.7324    5760.2466 
  115000      114.981    272.18126    11.363847    -723.6217   -712.25785    32762.894    52244.586    45624.557    419.53851      15.2149      13.1765      28.7324    5760.2466 
  115500      115.481    262.03127    10.940074    -723.1833   -712.24323    33459.986     52878.39    48872.542   -1370.9736      15.2149      13.1765      28.7324    5760.2466 
  116000      115.981    271.70567    11.343991   -723.57282   -712.22883    34573.027    54413.292    46594.325    2711.4639      15.2149      13.1765      28.7324    5760.2466 
  116500      116.481    268.58304    11.213618   -723.42885   -712.21523    33923.933    50304.157    51157.238    310.40402      15.2149      13.1765      28.7324    5760.2466 
  117000      116.981     259.8695    10.849819   -723.04997   -712.20015    35015.393    52245.211    51266.332    1534.6356      15.2149      13.1765      28.7324    5760.2466 
  117500      117.481    267.11858    11.152475   -723.33832   -712.18584    35179.775    55480.474    47183.445    2875.4064      15.2149      13.1765      28.7324    5760.2466 
  118000      117.981    274.20137    11.448189    -723.6196   -712.17141    34313.624    50500.864    47575.583    4864.4254      15.2149      13.1765      28.7324    5760.2466 
  118500      118.481    269.52421    11.252912   -723.41025   -712.15734    33313.733    50888.454    47937.427    1115.3193      15.2149      13.1765      28.7324    5760.2466 
  119000      118.981    256.73487    10.718945   -722.86143   -712.14249    33675.501    52238.839    45076.619    3711.0454      15.2149      13.1765      28.7324    5760.2466 
  119500      119.481    268.30939    11.202193   -723.33057   -712.12838    33596.677    51623.635    48044.472    1121.9251      15.2149      13.1765      28.7324    5760.2466 
  120000      119.981    272.12516    11.361505   -723.47573   -712.11423     34231.17    54898.242    46212.196    1583.0726      15.2149      13.1765      28.7324    5760.2466 
  120500      120.481     269.6245      11.2571   -723.35712   -712.10002    32580.535    50352.403    49636.498   -2247.2948      15.2149      13.1765      28.7324    5760.2466 
  121000      120.981    262.94612    10.978271   -723.06295   -712.08468    31573.161    48460.383    45105.748    1153.3519      15.2149      13.1765      28.7324    5760.2466 
  121500      121.481     255.9395    10.685737   -722.75561   -712.06987    33724.465    53208.895    46562.097    1402.4028      15.2149      13.1765      28.7324    5760.2466 
  122000      121.981    263.99413    11.022026   -723.07728   -712.05525    35130.594    52483.916    48367.813     4540.052      15.2149      13.1765      28.7324    5760.2466 
  122500      122.481    281.76362    11.763921   -723.80462    -712.0407    32742.536      52725.1    47387.794   -1885.2873      15.2149      13.1765      28.7324    5760.2466 
  123000      122.981     262.7105    10.968433   -722.99355   -712.02511    32716.777    51822.796     48294.12   -1966.5858      15.2149      13.1765      28.7324    5760.2466 
  123500      123.481     270.2089    11.281499   -723.29227   -712.01077    37029.379    52515.138    53110.199       5462.8      15.2149      13.1765      28.7324    5760.2466 
  124000      123.981    265.50903    11.085275   -723.08091   -711.99563    33331.321    51445.732    48695.268   -147.03784      15.2149      13.1765      28.7324    5760.2466 
  124500      124.481    271.91797    11.352855    -723.3339   -711.98105    31938.975    49177.086    46088.857    550.98096      15.2149      13.1765      28.7324    5760.2466 
  125000      124.981    258.94613    10.811267   -722.77643   -711.96516    34141.803    47702.202    51025.638    3697.5699      15.2149      13.1765      28.7324    5760.2466 
  125500      125.481    268.83246    11.224031   -723.17555   -711.95152    33346.158    51591.994    46831.231    1615.2499      15.2149      13.1765      28.7324    5760.2466 
  126000      125.981    279.24912    11.658938   -723.59567   -711.93673      32294.8    51603.911     49986.02   -4705.5318      15.2149      13.1765      28.7324    5760.2466 
  126500      126.481    274.58975    11.464404   -723.38681   -711.92241    33143.498    49017.599    48941.872    1471.0236      15.2149      13.1765      28.7324    5760.2466 
  127000      126.981    272.80293    11.389802   -723.29712   -711.90731    34185.318    51683.724    49009.925    1862.3054      15.2149      13.1765      28.7324    5760.2466 
  127500      127.481     283.4785    11.835519   -723.72755   -711.89203    33540.093    51555.641    46944.237    2120.4022      15.2149      13.1765      28.7324    5760.2466 
  128000      127.981    262.06228    10.941369   -722.81843   -711.87706    33608.903    51839.801    47287.277    1699.6317      15.2149      13.1765      28.7324    5760.2466 
  128500      128.481    265.96191    11.104183   -722.96552   -711.86134    32702.186    47504.964    46672.749    3928.8456      15.2149      13.1765      28.7324    5760.2466 
  129000      128.981    264.70926    11.051883   -722.89754   -711.84565    35504.671    49514.375    49741.925    7257.7139      15.2149      13.1765      28.7324    5760.2466 
  129500      129.481    270.58933    11.297383   -723.12871   -711.83133    32008.608    49971.355    46075.277   -20.807053      15.2149      13.1765      28.7324    5760.2466 
  130000      129.981    279.06879    11.651409   -723.46774   -711.81634    33026.315    51435.543    47594.663    48.740235      15.2149      13.1765      28.7324    5760.2466 
  130500      130.481    277.94887    11.604651   -723.40689   -711.80224    35703.125    53654.516    47625.353     5829.506      15.2149      13.1765      28.7324    5760.2466 
  131000      130.981    274.74528    11.470898   -723.25774   -711.78685    33824.176    53094.167    47154.116    1224.2448      15.2149      13.1765      28.7324    5760.2466 
  131500      131.481    267.99791    11.189188   -722.95953   -711.77034    33302.217    51519.741    48058.074    328.83548      15.2149      13.1765      28.7324    5760.2466 
  132000      131.981    277.55278    11.588114   -723.34463   -711.75652    34031.615    52733.378    49365.166   -3.6985373      15.2149      13.1765      28.7324    5760.2466 
  132500      132.481    291.54514    12.172309   -723.91371    -711.7414    33993.213    52429.455    48328.509    1221.6757      15.2149      13.1765      28.7324    5760.2466 
  133000      132.981    262.51189    10.960141   -722.68415   -711.72401    33035.238    50014.538    48177.649    913.52747      15.2149      13.1765      28.7324    5760.2466 
  133500      133.481    273.49282    11.418606   -723.12886   -711.71026    32707.031     50698.03    45150.096     2272.968      15.2149      13.1765      28.7324    5760.2466 
  134000      133.981    286.83878    11.975814   -723.67055   -711.69473    33979.899     53416.79    47525.824    997.08261      15.2149      13.1765      28.7324    5760.2466 
  134500      134.481    248.60326    10.379441   -722.05765   -711.67821    30791.149    51730.413    44755.288   -4112.2523      15.2149      13.1765      28.7324    5760.2466 
  135000      134.981     280.8368    11.725225   -723.39009   -711.66486    33014.247    49694.828    49477.363   -129.45142      15.2149      13.1765      28.7324    5760.2466 
  135500      135.481    265.96858    11.104461   -722.75343   -711.64897    34981.534    49775.492    50454.771     4714.339      15.2149      13.1765      28.7324    5760.2466 
  136000      135.981    271.48265    11.334679   -722.96752   -711.63284    34931.851    55219.224    47416.577    2159.7513      15.2149      13.1765      28.7324    5760.2466 
  136500      136.481    272.92824    11.395034   -723.01118   -711.61614     34841.73    54311.963    50889.195   -675.96782      15.2149      13.1765      28.7324    5760.2466 
  137000      136.981    286.42812    11.958668   -723.56053   -711.60186    32205.586    49583.158    49106.078   -2072.4789      15.2149      13.1765      28.7324    5760.2466 
  137500      137.481    273.65995    11.425584   -723.01247   -711.58689    34352.931    50066.762     50039.23    2952.7997      15.2149      13.1765      28.7324    5760.2466 
  138000      137.981    252.18901     10.52915   -722.09975    -711.5706    33899.866    53905.218    45880.294    1914.0858      15.2149      13.1765      28.7324    5760.2466 
  138500      138.481    288.99591    12.065876   -723.62245   -711.55657    32255.698    48872.912    45781.251    2112.9299      15.2149      13.1765      28.7324    5760.2466 
  139000      138.981    288.34225    12.038585   -723.57907   -711.54049    32175.624    51762.238    48087.069   -3322.4342      15.2149      13.1765      28.7324    5760.2466 
  139500      139.481    272.08447    11.359806   -722.88474   -711.52494     33611.45    51229.978    50586.499   -982.12693      15.2149      13.1765      28.7324    5760.2466 
  140000      139.981    266.61268    11.131353   -722.64114   -711.50979    32339.774     48695.14    47381.204    942.97797      15.2149      13.1765      28.7324    5760.2466 
  140500      140.481    260.45219    10.874146   -722.36849   -711.49434    33572.114    51464.283    48430.421    821.63711      15.2149      13.1765      28.7324    5760.2466 
  141000      140.981    273.54312    11.420706    -722.8994   -711.47869    32944.581     47535.39    46421.248    4877.1059      15.2149      13.1765      28.7324    5760.2466 
  141500      141.481    282.82305    11.808153    -723.2726   -711.46445    35058.202    52522.958    53093.275   -441.62581      15.2149      13.1765      28.7324    5760.2466 
  142000      141.981    273.73277    11.428624   -722.87554   -711.44691    31090.924    49142.658    44960.831   -830.71786      15.2149      13.1765      28.7324    5760.2466 
  142500      142.481    268.96802    11.229691    -722.6612   -711.43151    32179.875    50288.715    45593.039    657.86976      15.2149      13.1765      28.7324    5760.2466 
  143000      142.981    268.73462    11.219946   -722.63594   -711.41599    34562.811    51972.915    50459.495    1256.0214      15.2149      13.1765      28.7324    5760.2466 
  143500      143.481    295.79425    12.349714   -723.75132   -711.40161    33297.783    51548.353    47492.299    852.69738      15.2149      13.1765      28.7324    5760.2466 
  144000      143.981    272.46886    11.375855      -722.76   -711.38414    29963.809    45255.506    46859.364   -2223.4422      15.2149      13.1765      28.7324    5760.2466 
  144500      144.481    268.80323    11.222811   -722.59125   -711.36844    32522.455    47671.743    50542.481   -646.85927      15.2149      13.1765      28.7324    5760.2466 
  145000      144.981     276.0143     11.52388   -722.87736   -711.35348    33233.519    48607.005    46986.429    4107.1238      15.2149      13.1765      28.7324    5760.2466 
  145500      145.481    287.06863     11.98541    -723.3233   -711.33789    34105.814    51171.469    48315.512    2830.4615      15.2149      13.1765      28.7324    5760.2466 
  146000      145.981    265.16127    11.070755   -722.39221   -711.32146     32422.36    52062.478    47922.952   -2718.3498      15.2149      13.1765      28.7324    5760.2466 
  146500      146.481    275.92988    11.520356   -722.82619   -711.30583    32215.858    47255.012    48696.573    695.98817      15.2149      13.1765      28.7324    5760.2466 
  147000      146.981    270.10359    11.277102   -722.56723   -711.29013    34834.797    52858.167    50358.467    1287.7575      15.2149      13.1765      28.7324    5760.2466 
  147500      147.481    270.13352    11.278352   -722.55177   -711.27342    32200.965    49825.482    44662.346    2115.0655      15.2149      13.1765      28.7324    5760.2466 
  148000      147.981    276.94031    11.562542   -722.82058   -711.25804    32492.325     50336.92    46920.543    219.51106      15.2149      13.1765      28.7324    5760.2466 
  148500      148.481     282.0244    11.774808   -723.01824   -711.24343    34209.908    49728.792    49023.099    3877.8333      15.2149      13.1765      28.7324    5760.2466 
  149000      148.981    282.38527    11.789875   -723.01699   -711.22712    34159.636     53197.74    48137.355     1143.811      15.2149      13.1765      28.7324    5760.2466 
  149500      149.481    278.55883    11.630117   -722.84295   -711.21283    33181.035    52242.159     50676.74   -3375.7922      15.2149      13.1765      28.7324    5760.2466 
  150000      149.981    288.48795    12.044668   -723.24063   -711.19596    33046.042    48832.956    47157.976    3147.1954      15.2149      13.1765      28.7324    5760.2466 
  150500      150.481    285.17985    11.906552   -723.08703   -711.18048    34059.458    50495.699    48907.767    2774.9079      15.2149      13.1765      28.7324    5760.2466 
  151000      150.981    265.21101    11.072832   -722.23634    -711.1635    33520.947    49864.443    50247.892      450.507      15.2149      13.1765      28.7324    5760.2466 
  151500      151.481    280.42569     11.70806   -722.85598   -711.14792    33695.669    48723.689    47984.182    4379.1372      15.2149      13.1765      28.7324    5760.2466 
  152000      151.981    271.95675    11.354473   -722.48544   -711.13097    32462.299    49123.892    46971.813    1291.1922      15.2149      13.1765      28.7324    5760.2466 
  152500      152.481     274.4885    11.460177   -722.57591   -711.11573    34329.947    49578.357    48276.836    5134.6496      15.2149      13.1765      28.7324    5760.2466 
  153000      152.981    275.70524    11.510977   -722.61132   -711.10034    31787.564     48515.52    48128.085   -1280.9119      15.2149      13.1765      28.7324    5760.2466 
  153500      153.481    280.42996    11.708239   -722.79182   -711.08358    33434.647    53800.092    45892.214    611.63448      15.2149      13.1765      28.7324    5760.2466 
  154000      153.981    274.06754    11.442601   -722.51048   -711.06788    33545.631    53523.526    47228.909   -115.54126      15.2149      13.1765      28.7324    5760.2466 
  154500      154.481    257.64169    10.756805   -721.80678   -711.04997    30692.329    46137.243    46499.959   -560.21487      15.2149      13.1765      28.7324    5760.2466 
  155000      154.981    273.07622    11.401213   -722.43709   -711.03587    34407.983    50034.287    49363.077    3826.5869      15.2149      13.1765      28.7324    5760.2466 
  155500      155.481    304.72461    12.722565   -723.74392   -711.02135    32271.933    49536.857    49748.808   -2469.8643      15.2149      13.1765      28.7324    5760.2466 
  156000      155.981    277.92559    11.603679    -722.6071   -711.00342    30801.708     45144.14    47136.058    124.92415      15.2149      13.1765      28.7324    5760.2466 
  156500      156.481    288.23468    12.034094   -723.02199    -710.9879    32358.969     49364.11    47439.223    273.57393      15.2149      13.1765      28.7324    5760.2466 
  157000      156.981    281.69196    11.760929   -722.73333    -710.9724    33586.288    49151.371    49634.024    1973.4689      15.2149      13.1765      28.7324    5760.2466 
  157500      157.481    284.56168    11.880742   -722.83601   -710.95527    33103.994    47798.574    49795.925    1717.4835      15.2149      13.1765      28.7324    5760.2466 
  158000      157.981    274.38288    11.455767   -722.39508   -710.93932    32790.389    50508.091     46986.78    876.29717      15.2149      13.1765      28.7324    5760.2466 
  158500      158.481    288.42363    12.041983   -722.96585   -710.92387    33397.753    51214.464    48671.534    307.26189      15.2149      13.1765      28.7324    5760.2466 
  159000      158.981    289.94725    12.105596   -723.01337   -710.90777    35173.284    52144.688    48982.118    4393.0441      15.2149      13.1765      28.7324    5760.2466 
  159500      159.481    263.73233    11.011096   -721.90126   -710.89016    31281.818    47289.737    47376.059   -820.34208      15.2149      13.1765      28.7324    5760.2466 
  160000      159.981    282.02432    11.774805   -722.65094   -710.87613    33389.453    52898.335    46486.768     783.2564      15.2149      13.1765      28.7324    5760.2466 
  160500      160.481    272.36948    11.371706   -722.23102   -710.85931    35369.642    52101.551    49639.634    4367.7408      15.2149      13.1765      28.7324    5760.2466 
  161000      160.981    292.66936    12.219246   -723.06246   -710.84321    32468.984    50687.767    46144.882    574.30443      15.2149      13.1765      28.7324    5760.2466 
  161500      161.481    291.56084    12.172965   -723.00125   -710.82829     33442.77    52470.318    46891.825    966.16656      15.2149      13.1765      28.7324    5760.2466 
  162000      161.981    265.58073    11.088268   -721.89795   -710.80968    30903.281    52026.233    46891.063   -6207.4547      15.2149      13.1765      28.7324    5760.2466 
  162500      162.481    289.83818    12.101042   -722.89619   -710.79515    32812.918    50235.911     49517.95   -1315.1062      15.2149      13.1765      28.7324    5760.2466 
  163000      162.981    283.56759    11.839238   -722.61826   -710.77902    34066.239    49440.633    51760.485    997.59738      15.2149      13.1765      28.7324    5760.2466 
  163500      163.481    275.71336    11.511316    -722.2734   -710.76209    32651.126    52126.584    46881.482   -1054.6885      15.2149      13.1765      28.7324    5760.2466 
  164000      163.981    293.25088    12.243525   -722.98986   -710.74634    32130.971    51036.749    47381.754   -2025.5899      15.2149      13.1765      28.7324    5760.2466 
  164500      164.481     285.5179    11.920666   -722.65024   -710.72958    32045.018    48304.031    50034.055   -2203.0321      15.2149      13.1765      28.7324    5760.2466 
  165000      164.981    291.28885    12.161608   -722.87589   -710.71428    34587.365    49808.356    50400.711    3553.0273      15.2149      13.1765      28.7324    5760.2466 
  165500      165.481    278.36252    11.621921   -722.31924   -710.69732    32763.246    50024.956    47927.067    337.71638      15.2149      13.1765      28.7324    5760.2466 
  166000      165.981    270.04663    11.274724   -721.95521   -710.68049    30947.239    46589.459    45960.637    291.62006      15.2149      13.1765      28.7324    5760.2466 
  166500      166.481    282.73164    11.804336   -722.46958   -710.66524     33602.19    49479.385    49780.437    1546.7471      15.2149      13.1765      28.7324    5760.2466 
  167000      166.981    277.26205    11.575975   -722.22472   -710.64874    34347.998    50940.368    50501.417    1602.2092      15.2149      13.1765      28.7324    5760.2466 
  167500      167.481    292.84816    12.226712   -722.86033   -710.63362    33266.467    52417.385    49013.101   -1631.0862      15.2149      13.1765      28.7324    5760.2466 
  168000      167.981    279.19079    11.656502   -722.27225   -710.61575     32374.99    49663.434    47815.158   -353.62298      15.2149      13.1765      28.7324    5760.2466 
  168500      168.481    286.14981    11.947048   -722.54725    -710.6002    34196.867    50240.653    50009.425    2340.5229      15.2149      13.1765      28.7324    5760.2466 
  169000      168.981    295.55048    12.339536   -722.92506   -710.58553    34356.597    49046.691    50129.982    3893.1177      15.2149      13.1765      28.7324    5760.2466 
  169500      169.481    292.16185    12.198057   -722.76621   -710.56816    33049.885    46051.479    50627.684    2470.4937      15.2149      13.1765      28.7324    5760.2466 
  170000      169.981    284.60382    11.882502   -722.43433   -710.55183    32199.968    49936.665    48074.599   -1411.3591      15.2149      13.1765      28.7324    5760.2466 
  170500      170.481    285.66717    11.926898   -722.46247   -710.53557    33456.063     50876.28    51715.046   -2223.1386      15.2149      13.1765      28.7324    5760.2466 
  171000      170.981    290.02416    12.108806   -722.62812   -710.51932    30913.786     47416.62    46360.297    -1035.559      15.2149      13.1765      28.7324    5760.2466 
  171500      171.481    290.35726    12.122714   -722.62569   -710.50298    33909.486    50114.625    48071.595    3542.2376      15.2149      13.1765      28.7324    5760.2466 
  172000      171.981    303.32553    12.664152   -723.15153   -710.48737    33637.891    51672.765    48210.367    1030.5394      15.2149      13.1765      28.7324    5760.2466 
  172500      172.481    282.43718    11.792042   -722.26232   -710.47028    33790.219    50996.388    49974.897    399.37104      15.2149      13.1765      28.7324    5760.2466 
  173000      172.981    293.41824    12.250513   -722.70511    -710.4546    33915.319    49894.462    49084.905    2766.5904      15.2149      13.1765      28.7324    5760.2466 
  173500      173.481    285.15495    11.905512   -722.34373   -710.43822    32215.512     49327.49    46587.212    731.83495      15.2149      13.1765      28.7324    5760.2466 
  174000      173.981     293.2321    12.242741    -722.6644   -710.42166    32486.365     51748.74    46273.058   -562.70298      15.2149      13.1765      28.7324    5760.2466 
  174500      174.481    280.29762    11.702713   -722.10724   -710.40452    34518.303    53910.359    48110.446    1534.1044      15.2149      13.1765      28.7324    5760.2466 
  175000      174.981    281.97863    11.772897   -722.16088   -710.38798    31108.456    48440.455    44755.827    129.08705      15.2149      13.1765      28.7324    5760.2466 
  175500      175.481    283.67046    11.843533   -722.21589   -710.37235    33318.382    51129.354     48513.01    312.78137      15.2149      13.1765      28.7324    5760.2466 
  176000      175.981    307.19529    12.825719   -723.18197   -710.35625    34261.517    50518.798     51436.99    828.76367      15.2149      13.1765      28.7324    5760.2466 
  176500      176.481    306.38735    12.791986   -723.13143   -710.33944    33981.257    49729.535    48702.019    3512.2183      15.2149      13.1765      28.7324    5760.2466 
  177000      176.981    275.50029     11.50242   -721.82485   -710.32243    32178.593     47035.11    46265.696    3234.9726      15.2149      13.1765      28.7324    5760.2466 
  177500      177.481    297.52504    12.421976   -722.72984   -710.30786    33320.356    51738.246    47711.397    511.42697      15.2149      13.1765      28.7324    5760.2466 
  178000      177.981    274.09832    11.443886   -721.73329    -710.2894    33987.798    49181.609    50530.993    2250.7921      15.2149      13.1765      28.7324    5760.2466 
  178500      178.481    295.35468    12.331361   -722.60447   -710.27311    32430.782    47466.217      46742.3    3083.8304      15.2149      13.1765      28.7324    5760.2466 
  179000      178.981    305.19297     12.74212   -722.99853   -710.25641    32903.466    51469.879    47840.912   -600.39421      15.2149      13.1765      28.7324    5760.2466 
  179500      179.481    301.39783    12.583669   -722.82464   -710.24097    31562.441    49316.039    46226.988   -855.70294      15.2149      13.1765      28.7324    5760.2466 
  180000      179.981    288.77092    12.056483   -722.28053   -710.22405    33723.168    48572.158    51159.619    1437.7284      15.2149      13.1765      28.7324    5760.2466 
  180500      180.481     297.1649     12.40694   -722.61431   -710.20737    33186.485    48697.497    50323.132    538.82391      15.2149      13.1765      28.7324    5760.2466 
  181000      180.981    289.54312    12.088723   -722.27912    -710.1904    33083.504    49396.191    46758.624    3095.6979      15.2149      13.1765      28.7324    5760.2466 
  181500      181.481    283.43879    11.833861   -722.00775   -710.17389    32368.062    47201.636    50073.003   -170.45214      15.2149      13.1765      28.7324    5760.2466 
  182000      181.981    282.71587    11.803678   -721.96054   -710.15686    31159.565    50207.213    48757.737   -5486.2553      15.2149      13.1765      28.7324    5760.2466 
  182500      182.481    295.15577    12.323057   -722.46462   -710.14156     33415.92    51989.475    47168.342    1089.9426      15.2149      13.1765      28.7324    5760.2466 
  183000      182.981    322.79214    13.476903   -723.60368   -710.12678    33629.063    51166.542    50592.841    -872.1954      15.2149      13.1765      28.7324    5760.2466 
  183500      183.481     290.3592    12.122795   -722.23047   -710.10767    32339.848    51171.223    49123.408   -3275.0871      15.2149      13.1765      28.7324    5760.2466 
  184000      183.981    298.99981    12.483549   -722.57577   -710.09222    33364.112    51800.622      47359.3    932.41525      15.2149      13.1765      28.7324    5760.2466 
  184500      184.481    287.41627    11.999924   -722.07387   -710.07394    32728.243    50245.186    47498.338    441.20378      15.2149      13.1765      28.7324    5760.2466 
  185000      184.981    296.45793    12.377423   -722.43511   -710.05768    32258.746    50392.639    49346.579   -2962.9795      15.2149      13.1765      28.7324    5760.2466 
  185500      185.481    281.74499    11.763142   -721.80396   -710.04082    32438.375    49548.156    47887.433   -120.46493      15.2149      13.1765      28.7324    5760.2466 
  186000      185.981    298.69197    12.470696   -722.49599   -710.02529    34934.262     51994.01    47652.396    5156.3801      15.2149      13.1765      28.7324    5760.2466 
  186500      186.481    296.24912    12.368705   -722.37675   -710.00805    32812.084    50544.532    46632.354    1259.3653      15.2149      13.1765      28.7324    5760.2466 
  187000      186.981    279.56029    11.671929   -721.66284   -709.99091      30869.7    50076.127    47803.886   -5270.9138      15.2149      13.1765      28.7324    5760.2466 
  187500      187.481    295.49685    12.337297   -722.31286   -709.97556    33533.576    50368.187    48895.321    1337.2186      15.2149      13.1765      28.7324    5760.2466 
  188000      187.981    311.73725     13.01535   -722.97436   -709.95901    33207.713    53022.268    47718.796   -1117.9262      15.2149      13.1765      28.7324    5760.2466 
  188500      188.481    297.00564    12.400291   -722.34073   -709.94044    32705.501    52470.436    49998.772   -4352.7053      15.2149      13.1765      28.7324    5760.2466 
  189000      188.981    277.42878    11.582936   -721.50671   -709.92378    30289.362    47991.115     43189.47   -312.49813      15.2149      13.1765      28.7324    5760.2466 
  189500      189.481     293.1165    12.237915   -722.14651    -709.9086     32598.31    49749.698    46097.755    1947.4762      15.2149      13.1765      28.7324    5760.2466 
  190000      189.981    298.51769     12.46342   -722.35511   -709.89169     31980.48    52524.088    44503.336   -1085.9851      15.2149      13.1765      28.7324    5760.2466 
  190500      190.481     298.7558    12.473361   -722.34888   -709.87551    33047.461    51298.288    49142.587   -1298.4921      15.2149      13.1765      28.7324    5760.2466 
  191000      190.981    300.39998    12.542007   -722.39983   -709.85782    33370.065     51727.28     47608.33    774.58416      15.2149      13.1765      28.7324    5760.2466 
  191500      191.481    283.39368    11.831977   -721.67272   -709.84074    35126.965    52799.782    50733.662    1847.4518      15.2149      13.1765      28.7324    5760.2466 
  192000      191.981    293.13025    12.238489   -722.06338   -709.82489    32572.146    50606.075    45739.323    1371.0394      15.2149      13.1765      28.7324    5760.2466 
  192500      192.481    280.92573    11.728938   -721.53616   -709.80722    33552.506    52461.247    48637.019   -440.74838      15.2149      13.1765      28.7324    5760.2466 
  193000      192.981    303.36493    12.665797   -722.45662   -709.79082    33768.962    51347.642    47528.866    2430.3783      15.2149      13.1765      28.7324    5760.2466 
  193500      193.481    293.99345    12.274529   -722.04824   -709.77372     31611.81    49318.882    44222.087    1294.4596      15.2149      13.1765      28.7324    5760.2466 
  194000      193.981    306.79997    12.809214   -722.56685   -709.75763    34774.374    52107.207    49143.194     3072.721      15.2149      13.1765      28.7324    5760.2466 
  194500      194.481    297.43207    12.418094   -722.15938   -709.74129    33018.844     54143.71     48155.92   -3243.0963      15.2149      13.1765      28.7324    5760.2466 
  195000      194.981    297.57549    12.424082   -722.14826   -709.72418    33024.701    45718.078    46021.962    7334.0625      15.2149      13.1765      28.7324    5760.2466 
  195500      195.481    297.10146    12.404291   -722.11145   -709.70716    31556.826    51301.814    44308.874   -940.21127      15.2149      13.1765      28.7324    5760.2466 
  196000      195.981    291.75047    12.180882   -721.87007   -709.68919    31381.931    50388.828    46425.089   -2668.1241      15.2149      13.1765      28.7324    5760.2466 
  196500      196.481     291.7372    12.180328   -721.85368   -709.67335    33311.341    51367.898    46010.531    2555.5937      15.2149      13.1765      28.7324    5760.2466 
  197000      196.981    300.80008    12.558712    -722.2146   -709.65589    33094.838    50630.695    47612.895    1040.9232      15.2149      13.1765      28.7324    5760.2466 
  197500      197.481     312.2832    13.038144   -722.67756   -709.63941    34428.242     55150.16    50094.659   -1960.0946      15.2149      13.1765      28.7324    5760.2466 
  198000      197.981     302.5181    12.630441   -722.25328   -709.62284    33758.826    50693.652     49864.22    718.60638      15.2149      13.1765      28.7324    5760.2466 
  198500      198.481    292.32226    12.204755   -721.80928   -709.60452    32126.781    48669.452      49290.7   -1579.8102      15.2149      13.1765      28.7324    5760.2466 
  199000      198.981    286.61956    11.966661   -721.55453   -709.58787    34377.372     52983.14    49445.267    703.70949      15.2149      13.1765      28.7324    5760.2466 
  199500      199.481    287.02185    11.983457   -721.55488   -709.57142    31695.742    50049.413    46981.555   -1943.7428      15.2149      13.1765      28.7324    5760.2466 
  200000      199.981    281.28204    11.743814   -721.29855   -709.55474    31512.197     49306.42    45994.738   -764.56747      15.2149      13.1765      28.7324    5760.2466 
  200500      200.481     292.0098    12.191709   -721.72929   -709.53758    33073.148    52109.994    47876.792   -767.34331      15.2149      13.1765      28.7324    5760.2466 
  201000      200.981    311.04453    12.986429   -722.50798   -709.52156    32250.587    49966.996    48265.289   -1480.5247      15.2149      13.1765      28.7324    5760.2466 
  201500      201.481    293.18924    12.240952   -721.74381   -709.50286    32350.152    48668.058     46623.03     1759.368      15.2149      13.1765      28.7324    5760.2466 
  202000      201.981    303.07415    12.653657   -722.14008   -709.48642    33754.043    50495.493    50844.474   -77.837288      15.2149      13.1765      28.7324    5760.2466 
  202500      202.481    300.94602    12.564806   -722.03581     -709.471    35313.807    55749.183    49347.782    844.45702      15.2149      13.1765      28.7324    5760.2466 
  203000      202.981    303.10255    12.654843   -722.10865    -709.4538     30443.38    49330.555    45909.373   -3909.7881      15.2149      13.1765      28.7324    5760.2466 
  203500      203.481    274.21198    11.448632   -720.88445   -709.43581    32298.469    48756.324     46542.97    1596.1114      15.2149      13.1765      28.7324    5760.2466 
  204000      203.981    311.45729    13.003662    -722.4235   -709.41984    33828.819    50581.631    47961.092    2943.7333      15.2149      13.1765      28.7324    5760.2466 
  204500      204.481    291.86189    12.185534   -721.58721   -709.40167     33948.58    49358.489     48339.16    4148.0906      15.2149      13.1765      28.7324    5760.2466 
  205000      204.981    312.75929    13.058021   -722.44388   -709.38586    33749.533    53226.611    47050.401    971.58608      15.2149      13.1765      28.7324    5760.2466 
  205500      205.481    293.75237    12.264463   -721.63297   -709.36851    33487.911     51717.01    50522.208   -1775.4837      15.2149      13.1765      28.7324    5760.2466 
  206000      205.981    300.07848    12.528585   -721.88029   -709.35171    32929.635    49153.405    49078.728    556.77225      15.2149      13.1765      28.7324    5760.2466 
  206500      206.481    313.66018    13.095635   -722.43072   -709.33509    34581.627    54009.139    47939.409     1796.334      15.2149      13.1765      28.7324    5760.2466 
  207000      206.981    301.49718    12.587817   -721.90475   -709.31693    29661.101    45340.003    45510.166    -1866.867      15.2149      13.1765      28.7324    5760.2466 
  207500      207.481    298.14294    12.447774   -721.74794   -709.30017    35146.273    53400.758    48767.187    3270.8751      15.2149      13.1765      28.7324    5760.2466 
  208000      207.981    289.04509    12.067929   -721.35036   -709.28243    31649.085    48812.131    45954.471    180.65324      15.2149      13.1765      28.7324    5760.2466 
  208500      208.481    303.59045    12.675213   -721.94131    -709.2661    32458.383    48644.475    49789.819   -1059.1457      15.2149      13.1765      28.7324    5760.2466 
  209000      208.981    285.98496    11.940166   -721.18819   -709.24802     31306.53    47056.382    50085.028   -3221.8181      15.2149      13.1765      28.7324    5760.2466 
  209500      209.481    297.86522    12.436179   -721.66761   -709.23143    33752.537     48911.89     49367.49    2978.2307      15.2149      13.1765      28.7324    5760.2466 
  210000      209.981    306.47515    12.795652   -722.01086   -709.21521    31826.872    49327.734    46388.518   -235.63583      15.2149      13.1765      28.7324    5760.2466 
  210500      210.481    301.48492    12.587305   -721.78511   -709.19781    31122.705    49057.291    44030.031    280.79385      15.2149      13.1765      28.7324    5760.2466 
  211000      210.981    280.40647    11.707258   -720.88681   -709.17956    31632.013    49642.641    45063.374    190.02391      15.2149      13.1765      28.7324    5760.2466 
  211500      211.481    318.59734    13.301766    -722.4664   -709.16463     34819.71    51214.665    49302.124     3942.341      15.2149      13.1765      28.7324    5760.2466 
  212000      211.981    308.64405    12.886206   -722.03295   -709.14674    31947.826    52533.762    48177.956   -4868.2403      15.2149      13.1765      28.7324    5760.2466 
[...]
  948500      948.481    369.84885    15.441569   -716.58231   -701.14074    20266.444    41985.538     42200.88   -23387.086      15.2149      13.1765      28.7324    5760.2466 
  949000      948.981    350.55259    14.635931   -715.77455   -701.13862    22535.452    46859.654    39190.048   -18443.345      15.2149      13.1765      28.7324    5760.2466 
  949500      949.481    369.89024    15.443297   -716.58104   -701.13775    21448.785    42958.311    44117.984   -22729.939      15.2149      13.1765      28.7324    5760.2466 
  950000      949.981    379.98723    15.864857   -717.00239   -701.13754    24572.288     45613.87    46882.554   -18779.562      15.2149      13.1765      28.7324    5760.2466 
  950500      950.481    364.23365    15.207129   -716.34319   -701.13606    22886.538    44950.901    42633.925   -18925.213      15.2149      13.1765      28.7324    5760.2466 
  951000      950.981    354.92842    14.818626   -715.95236   -701.13374    22481.633    43509.173    43928.153   -19992.427      15.2149      13.1765      28.7324    5760.2466 
  951500      951.481    383.14338    15.996629    -717.1305   -701.13388    24940.996    42702.228    48075.623   -15954.864      15.2149      13.1765      28.7324    5760.2466 
  952000      951.981    374.30014    15.627415   -716.75914   -701.13172    22438.466     42630.76    44627.274   -19942.636      15.2149      13.1765      28.7324    5760.2466 
  952500      952.481    377.44282    15.758625    -716.8901   -701.13148    21782.486    42495.225    42711.307   -19859.072      15.2149      13.1765      28.7324    5760.2466 
  953000      952.981     371.0418    15.491376   -716.62139   -701.13001    20376.157    41934.177    39607.665    -20413.37      15.2149      13.1765      28.7324    5760.2466 
  953500      953.481     378.7079    15.811444   -716.93945   -701.12801    23911.828    44972.049    44989.665   -18226.232      15.2149      13.1765      28.7324    5760.2466 
  954000      953.981    356.22581    14.872793   -715.99859    -701.1258    22541.888    45134.186    41550.057   -19058.578      15.2149      13.1765      28.7324    5760.2466 
  954500      954.481     375.5875    15.681164   -716.80633   -701.12516    22356.551    41766.098    43103.427   -17799.871      15.2149      13.1765      28.7324    5760.2466 
  955000      954.981    390.93045    16.321748   -717.44616   -701.12442    23141.952    46291.529    43107.199   -19972.871      15.2149      13.1765      28.7324    5760.2466 
  955500      955.481    386.12227    16.121001   -717.24298   -701.12198    22602.865    42388.246    43555.314   -18134.966      15.2149      13.1765      28.7324    5760.2466 
  956000      955.981     378.1113    15.786535    -716.9067   -701.12016    20239.326    44208.366    40723.156   -24213.544      15.2149      13.1765      28.7324    5760.2466 
  956500      956.481    381.40004    15.923843   -717.04328   -701.11944    23387.905    46244.443    41572.018   -17652.746      15.2149      13.1765      28.7324    5760.2466 
  957000      956.981    392.38395    16.382433   -717.50022   -701.11779    22242.325    43882.712    41051.398   -18207.136      15.2149      13.1765      28.7324    5760.2466 
  957500      957.481    346.87047    14.482198   -715.59642   -701.11422    22987.509    44101.485     44582.41   -19721.369      15.2149      13.1765      28.7324    5760.2466 
  958000      957.981    376.29554    15.710725   -716.82408   -701.11336    22551.845    46033.798    43299.427   -21677.692      15.2149      13.1765      28.7324    5760.2466 
  958500      958.481      352.593     14.72112   -715.83152    -701.1104    22911.262    44323.744     43397.68   -18987.637      15.2149      13.1765      28.7324    5760.2466 
  959000      958.981    371.57851    15.513785   -716.62312   -701.10934    22516.079    45050.065     42864.47   -20366.299      15.2149      13.1765      28.7324    5760.2466 
  959500      959.481    379.72794    15.854031   -716.96126   -701.10723    24718.147    44866.947    46407.968   -17120.474      15.2149      13.1765      28.7324    5760.2466 
  960000      959.981    363.98208    15.196626   -716.30194   -701.10532    24671.055    44264.219    46150.003   -16401.059      15.2149      13.1765      28.7324    5760.2466 
  960500      960.481    374.65428    15.642201   -716.74655   -701.10435    22315.326    42678.877    44528.719   -20261.619      15.2149      13.1765      28.7324    5760.2466 
  961000      960.981    367.35138    15.337297   -716.43852   -701.10122    21471.024    45487.121    40174.248   -21248.299      15.2149      13.1765      28.7324    5760.2466 
  961500      961.481    374.51014    15.636183   -716.73609   -701.09991    20985.126    43807.977    41620.335   -22472.934      15.2149      13.1765      28.7324    5760.2466 
  962000      961.981    353.62429    14.764177   -715.86016   -701.09599    20703.139    42107.844    40642.028   -20640.455      15.2149      13.1765      28.7324    5760.2466 
  962500      962.481    381.46722    15.926648    -717.0215   -701.09485    22571.377    42627.749    42660.027   -17573.646      15.2149      13.1765      28.7324    5760.2466 
  963000      962.981    409.73025    17.106659   -718.20102   -701.09436    25770.168    49062.806    41568.597   -13320.897      15.2149      13.1765      28.7324    5760.2466 
  963500      963.481    374.30368    15.627563   -716.71854   -701.09098     22624.09    40599.707    43102.953   -15830.389      15.2149      13.1765      28.7324    5760.2466 
  964000      963.981    382.96538    15.989198    -717.0774    -701.0882    24652.855     50084.59    40562.531   -16688.557      15.2149      13.1765      28.7324    5760.2466 
  964500      964.481    386.11211    16.120577   -717.20647   -701.08589    22417.876     42231.62    40267.707     -15245.7      15.2149      13.1765      28.7324    5760.2466 
  965000      964.981    386.26058    16.126776   -717.20942   -701.08265    22970.051    44796.683    45448.322   -21334.853      15.2149      13.1765      28.7324    5760.2466 
  965500      965.481    370.47512    15.467717   -716.54872     -701.081    24604.436    46814.397    41793.657   -14794.745      15.2149      13.1765      28.7324    5760.2466 
  966000      965.981    375.86563    15.692776   -716.77151   -701.07873     21641.34     46154.99    40374.118   -21605.088      15.2149      13.1765      28.7324    5760.2466 
  966500      966.481    375.11778    15.661553   -716.73716   -701.07561    22405.836    42164.686    41865.922   -16813.099      15.2149      13.1765      28.7324    5760.2466 
  967000      966.981    345.90922    14.442065   -715.51422   -701.07215    23334.712    47643.982    43687.341   -21327.186      15.2149      13.1765      28.7324    5760.2466 
  967500      967.481    394.43355    16.468006   -717.53951    -701.0715    23237.748    44308.635     43329.88   -17925.269      15.2149      13.1765      28.7324    5760.2466 
  968000      967.981    360.57647    15.054438   -716.12195   -701.06751    24474.409    41112.232    46401.476   -14090.481      15.2149      13.1765      28.7324    5760.2466 
  968500      968.481    368.34474    15.378771   -716.44369   -701.06492     25181.66    45776.023    42309.717    -12540.76      15.2149      13.1765      28.7324    5760.2466 
  969000      968.981    376.72027    15.728458   -716.79015    -701.0617     22860.76    42684.525    44049.113   -18151.356      15.2149      13.1765      28.7324    5760.2466 
  969500      969.481    377.95446    15.779987   -716.83986   -701.05987    24107.946    43650.759    45835.978     -17162.9      15.2149      13.1765      28.7324    5760.2466 
  970000      969.981    372.88081    15.568157    -716.6248   -701.05664    23589.401     48097.13    43198.633   -20527.559      15.2149      13.1765      28.7324    5760.2466 
  970500      970.481    363.60736    15.180981   -716.23422   -701.05324    24672.244    44088.315    45922.456   -15994.039      15.2149      13.1765      28.7324    5760.2466 
  971000      970.981    385.26021    16.085009   -717.13624   -701.05123    22961.878    43732.762    41101.262   -15948.389      15.2149      13.1765      28.7324    5760.2466 
  971500      971.481     374.7857    15.647688   -716.69675   -701.04906    22726.301    44793.181    42004.833   -18619.111      15.2149      13.1765      28.7324    5760.2466 
  972000      971.981    384.36849    16.047779   -717.09428    -701.0465    22058.308    44151.732     42267.34   -20244.149      15.2149      13.1765      28.7324    5760.2466 
  972500      972.481    385.61251    16.099718   -717.14209   -701.04237    24394.382    44609.948    43814.889   -15241.692      15.2149      13.1765      28.7324    5760.2466 
  973000      972.981    375.26925    15.667876   -716.70677   -701.03889    21200.699     45545.92    40690.491   -22634.315      15.2149      13.1765      28.7324    5760.2466 
  973500      973.481    373.24979    15.583562   -716.61966   -701.03609    23625.581    47453.487    39319.566   -15896.308      15.2149      13.1765      28.7324    5760.2466 
  974000      973.981    370.44192     15.46633   -716.49882   -701.03249    23861.375    43238.236    45505.907   -17160.018      15.2149      13.1765      28.7324    5760.2466 
  974500      974.481    374.54416    15.637603    -716.6671    -701.0295    22280.376    38335.871    42430.056     -13924.8      15.2149      13.1765      28.7324    5760.2466 
  975000      974.981    367.12259    15.327745   -716.35286   -701.02512    22306.249    42753.084    43437.225   -19271.562      15.2149      13.1765      28.7324    5760.2466 
  975500      975.481    380.41239    15.882608   -716.90704   -701.02443    23978.583    45911.772    44523.751   -18499.774      15.2149      13.1765      28.7324    5760.2466 
  976000      975.981    382.08034    15.952247   -716.97307   -701.02083    22771.127    43581.025    41963.114   -17230.757      15.2149      13.1765      28.7324    5760.2466 
  976500      976.481    384.88617    16.069393   -717.08693   -701.01754    23818.272    45521.672    42945.488   -17012.344      15.2149      13.1765      28.7324    5760.2466 
  977000      976.981    380.77701    15.897831   -716.91169   -701.01386    24696.524    40530.056    44767.287   -11207.772      15.2149      13.1765      28.7324    5760.2466 
  977500      977.481    378.68933    15.810668   -716.82178   -701.01111    22020.692    42850.274    43035.204   -19823.403      15.2149      13.1765      28.7324    5760.2466 
  978000      977.981    363.82439    15.190042   -716.19644    -701.0064    21787.536    44786.052    41868.503   -21291.947      15.2149      13.1765      28.7324    5760.2466 
  978500      978.481    365.31014    15.252074   -716.25574   -701.00366    21832.874    41278.736    42121.527    -17901.64      15.2149      13.1765      28.7324    5760.2466 
  979000      978.981    369.86989    15.442448   -716.44234   -700.99989    20083.154    41048.128    42697.573   -23496.238      15.2149      13.1765      28.7324    5760.2466 
  979500      979.481    366.06191     15.28346   -716.28012   -700.99666    23302.316    45297.559    44246.837   -19637.448      15.2149      13.1765      28.7324    5760.2466 
  980000      979.981    353.90258    14.775796   -715.76866   -700.99286    22192.594    42396.777    43436.654   -19255.648      15.2149      13.1765      28.7324    5760.2466 
  980500      980.481    380.32469    15.878946   -716.86868   -700.98974    21296.447    47409.222    40689.172   -24209.053      15.2149      13.1765      28.7324    5760.2466 
  981000      980.981    358.35982    14.961891    -715.9479   -700.98601    22606.777     43375.54    44732.773   -20287.983      15.2149      13.1765      28.7324    5760.2466 
  981500      981.481    384.75229    16.063803   -717.04675   -700.98295    23269.738    44628.218    40938.639   -15757.643      15.2149      13.1765      28.7324    5760.2466 
  982000      981.981    361.69747    15.101241   -716.08096   -700.97972    21416.793    40932.001    45059.093   -21740.716      15.2149      13.1765      28.7324    5760.2466 
  982500      982.481    372.29896    15.543864   -716.51915   -700.97529    23282.649    45219.212    43968.385    -19339.65      15.2149      13.1765      28.7324    5760.2466 
  983000      982.981     383.8745    16.027154   -716.99897   -700.97181    22524.967    42192.218    40743.566   -15360.882      15.2149      13.1765      28.7324    5760.2466 
  983500      983.481    359.77268    15.020879   -715.98811   -700.96724    21951.807    43239.311    41817.132   -19201.023      15.2149      13.1765      28.7324    5760.2466 
  984000      983.981    378.76854    15.813976   -716.77883   -700.96485    22617.947    41604.461    42304.745   -16055.366      15.2149      13.1765      28.7324    5760.2466 
  984500      984.481    354.56422     14.80342   -715.76323   -700.95981    24472.742    45557.626    44140.104   -16279.503      15.2149      13.1765      28.7324    5760.2466 
  985000      984.981    365.06241     15.24173   -716.19764   -700.95591    23479.673    46010.343    44004.907   -19576.231      15.2149      13.1765      28.7324    5760.2466 
  985500      985.481    368.39036    15.380676   -716.33218   -700.95151    22106.888    43705.277    43045.963   -20430.576      15.2149      13.1765      28.7324    5760.2466 
  986000      985.981    377.78125    15.772755   -716.72155   -700.94879    22028.499    43224.839    42596.217   -19735.559      15.2149      13.1765      28.7324    5760.2466 
  986500      986.481    379.15239    15.830002    -716.7745    -700.9445    22624.702    45337.055    44500.595   -21963.543      15.2149      13.1765      28.7324    5760.2466 
  987000      986.981     381.6226    15.933135   -716.87391   -700.94078    20570.212    43014.408    41315.054   -22618.825      15.2149      13.1765      28.7324    5760.2466 
  987500      987.481    370.60828    15.473276   -716.40864   -700.93536        22867    46780.992     41060.09   -19240.083      15.2149      13.1765      28.7324    5760.2466 
  988000      987.981     380.9669    15.905759   -716.83819   -700.93243    24277.316    45273.357    39278.658   -11720.068      15.2149      13.1765      28.7324    5760.2466 
  988500      988.481    376.48878    15.718793   -716.64651   -700.92772    22925.054    42219.821    43588.051   -17032.708      15.2149      13.1765      28.7324    5760.2466 
  989000      988.981     394.6654    16.477686   -717.40117   -700.92348    20916.424    44896.406    40534.308   -22681.442      15.2149      13.1765      28.7324    5760.2466 
  989500      989.481    356.64203    14.890171   -715.80902   -700.91885    20852.704    46044.895    40079.437   -23566.222      15.2149      13.1765      28.7324    5760.2466 
  990000      989.981    365.69047    15.267953   -716.18344   -700.91549    22908.293    44826.941    43572.157   -19674.219      15.2149      13.1765      28.7324    5760.2466 
  990500      990.481    364.62529     15.22348   -716.13429   -700.91081    24281.564    47491.618    41507.548   -16154.474      15.2149      13.1765      28.7324    5760.2466 
  991000      990.981    373.35536     15.58797   -716.49445   -700.90649    23495.551    43499.404    43212.902   -16225.653      15.2149      13.1765      28.7324    5760.2466 
  991500      991.481    394.15035    16.456182    -717.3591   -700.90292    21624.033     42018.83    40599.141   -17745.872      15.2149      13.1765      28.7324    5760.2466 
  992000      991.981    353.51577    14.759647     -715.657   -700.89735    23521.396    43589.403    46606.035   -19631.248      15.2149      13.1765      28.7324    5760.2466 
  992500      992.481    382.54637    15.971704   -716.86564   -700.89394    23308.989    42353.005    43503.901   -15929.941      15.2149      13.1765      28.7324    5760.2466 
  993000      992.981    375.23583    15.666481   -716.55496   -700.88848    22331.195    44057.114     43529.64   -20593.169      15.2149      13.1765      28.7324    5760.2466 
  993500      993.481    359.94012     15.02787   -715.91205   -700.88418    23196.967    42998.153     42882.38   -16289.631      15.2149      13.1765      28.7324    5760.2466 
  994000      993.981    376.51782    15.720006   -716.59973   -700.87973    24322.681    46680.199    43859.236   -17571.392      15.2149      13.1765      28.7324    5760.2466 
  994500      994.481    369.09805    15.410223   -716.28499   -700.87476    23784.124    45640.478    39284.855   -13572.961      15.2149      13.1765      28.7324    5760.2466 
  995000      994.981      369.514    15.427589   -716.29773   -700.87014    27469.345    48213.202    45524.102    -11329.27      15.2149      13.1765      28.7324    5760.2466 
  995500      995.481    390.62253    16.308892   -717.17503   -700.86614    23407.797      44390.4    40376.983   -14543.991      15.2149      13.1765      28.7324    5760.2466 
  996000      995.981    387.10769    16.162144   -717.02268   -700.86053    21953.608    42858.302    42798.232    -19795.71      15.2149      13.1765      28.7324    5760.2466 
  996500      996.481    372.01957    15.532199   -716.38761   -700.85541    23588.598    43827.142    42490.111   -15551.459      15.2149      13.1765      28.7324    5760.2466 
  997000      996.981    402.70493    16.813344   -717.66566   -700.85232    24746.522    45550.009    42385.935   -13696.379      15.2149      13.1765      28.7324    5760.2466 
  997500      997.481    384.26302    16.043376   -716.88996   -700.84659    22138.632    42868.073    41396.917   -17849.096      15.2149      13.1765      28.7324    5760.2466 
  998000      997.981    376.03518    15.699855   -716.54115    -700.8413    22740.972     43578.84    39330.064   -14685.987      15.2149      13.1765      28.7324    5760.2466 
  998500      998.481    384.37198    16.047925   -716.88437   -700.83644    23347.634    44644.562    40545.565   -15147.225      15.2149      13.1765      28.7324    5760.2466 
  999000      998.981    369.14405    15.412143   -716.24359   -700.83145    21631.661    42072.193    43564.347   -20741.556      15.2149      13.1765      28.7324    5760.2466 
  999500      999.481     363.3087    15.168511   -715.99554   -700.82703    22794.564    44602.326    41758.138   -17976.771      15.2149      13.1765      28.7324    5760.2466 
 1000000      999.981    368.13767    15.370126   -716.19132   -700.82119    20461.042    43203.082    39081.941   -20901.896      15.2149      13.1765      28.7324    5760.2466 
 1000019         1000    355.44236    14.840083   -715.66057   -700.82049    21109.914     41206.29    40533.355   -18409.905      15.2149      13.1765      28.7324    5760.2466 
Loop time of 950.145 on 28 procs for 1000000 steps with 324 atoms

Performance: 90.934 ns/day, 0.264 hours/ns, 1052.471 timesteps/s
88.9% CPU use with 28 MPI tasks x no OpenMP threads

MPI task timing breakdown:
Section |  min time  |  avg time  |  max time  |%varavg| %total
---------------------------------------------------------------
Pair    | 747.84     | 823.63     | 886.75     | 131.3 | 86.68
Neigh   | 0          | 0          | 0          |   0.0 |  0.00
Comm    | 52.947     | 113.83     | 190.01     | 350.7 | 11.98
Output  | 0.098032   | 0.10063    | 0.12115    |   1.3 |  0.01
Modify  | 4.5        | 7.4832     | 15.301     | 119.5 |  0.79
Other   |            | 5.099      |            |       |  0.54

Nlocal:    11.5714 ave 15 max 8 min
Histogram: 1 6 5 0 2 3 0 4 3 4
Nghost:    650.786 ave 710 max 600 min
Histogram: 3 1 5 2 5 4 2 4 0 2
Neighs:    726.429 ave 965 max 522 min
Histogram: 4 5 2 2 1 5 2 1 2 4
FullNghs:  1452.86 ave 1914 max 1037 min
Histogram: 6 1 4 3 0 3 3 1 3 4

Total # of neighbors = 40680
Ave neighs/atom = 125.556
Neighbor list builds = 0
Dangerous builds = 0

write_restart   POSCAR_1x1x1.rest

#unfix    1
#undump   1
Total wall time: 0:15:50
