LAMMPS (7 Dec 2015)
#----------- Initialize Simulation ------------ restart01
#processors	2 2 2
units		metal
boundary	p p p     ## periodic boundary condition  on x y z axis ##
atom_style atomic
#atom_modify map array sort 0 0.0

read_data	POSCAR_1x1x1.lammps
  triclinic box = (0 0 0) to (15.2149 13.1765 28.7324) with tilt (-7.60743 0 0)
  2 by 2 by 7 MPI processor grid
  reading atoms ...
  324 atoms

#----------- Define Potential -----------------
pair_style meam
pair_coeff * * MgAlZn.library.meam Mg Al Zn MgAlZn.parameter.meam Mg Al Zn 	#1=Mg 2=Al 3=Zn	#atoms/mass

#----------- Neighbor List --------------------
neighbor 2.0 bin
neigh_modify delay 10 check yes

#--------------  Run a simulation (minimization) ---------------------------------------
minimize       1.0e-4   1.0e-6   100   1000          #結構優化的條件
WARNING: Resetting reneighboring criteria during minimization (../min.cpp:168)
Neighbor list info ...
  2 neighbor list requests
  update every 1 steps, delay 0 steps, check yes
  max neighbors/atom: 2000, page size: 100000
  master list distance cutoff = 8
  ghost atom cutoff = 8
  binsize = 4 -> bins = 6 4 8
Memory usage per processor = 8.65096 Mbytes
Step Temp E_pair E_mol TotEng Press 
       0            0   -623.48886            0   -623.48886    17700.441 
      13            0   -638.54095            0   -638.54095    15008.552 
Loop time of 0.0243334 on 28 procs for 13 steps with 324 atoms

87.4% CPU use with 28 MPI tasks x no OpenMP threads

Minimization stats:
  Stopping criterion = energy tolerance
  Energy initial, next-to-last, final = 
        -623.488861418     -638.480998382     -638.540952581
  Force two-norm initial, final = 23.0934 2.16776
  Force max component initial, final = 3.73576 0.958467
  Final line search alpha, max atom move = 0.174918 0.167653
  Iterations, force evaluations = 13 25

MPI task timing breakdown:
Section |  min time  |  avg time  |  max time  |%varavg| %total
---------------------------------------------------------------
Pair    | 0.018718   | 0.020397   | 0.022239   |   0.6 | 83.82
Neigh   | 0          | 0          | 0          |   0.0 |  0.00
Comm    | 0.001285   | 0.0030385  | 0.0047298  |   1.6 | 12.49
Output  | 0          | 0          | 0          |   0.0 |  0.00
Modify  | 0          | 0          | 0          |   0.0 |  0.00
Other   |            | 0.0008984  |            |       |  3.69

Nlocal:    11.5714 ave 15 max 6 min
Histogram: 2 3 2 1 1 0 6 3 5 5
Nghost:    654.071 ave 714 max 607 min
Histogram: 4 5 3 1 1 6 2 2 2 2
Neighs:    722.5 ave 1005 max 374 min
Histogram: 3 3 2 1 0 5 4 3 4 3
FullNghs:  1445 ave 1915 max 751 min
Histogram: 2 3 2 1 1 0 6 3 5 5

Total # of neighbors = 40460
Ave neighs/atom = 124.877
Neighbor list builds = 0
Dangerous builds = 0
velocity all  create 393.0 4928459 #rot yes dist gaussian

#--------------  Run a simulation (Relaxation)  ----------------------------------------
fix  1  all  nvt   temp  393.0  393.0  100				#damping constant
#fix  2  all  npt   temp  393.0  393.0  50 iso 0.0 0.0 1000.0
#fix  2  all deform 1 x final 0 15.6906 y final 0 13.5884 z final 0 25.2339 xy final -7.8452 units lattice
#fix  3  all  npt   temp  393.0  393.0  50 z 0.0 0.0 1000.0

#variable b equal 1
#fix 2 all efield  0.0  0.0  v_b
#compute pot all pe/atom


#----------- Output --------------------------
thermo	 500
timestep  0.001		#1.0 fs
thermo_style	custom step time temp ke pe etotal press pxx pyy pzz lx ly lz vol

dump 1 all custom 10000 dump.eq id type x y z
dump_modify 1 sort  id

run        1000000	#10000	 ps
Neighbor list info ...
  2 neighbor list requests
  update every 1 steps, delay 10 steps, check yes
  max neighbors/atom: 2000, page size: 100000
  master list distance cutoff = 8
  ghost atom cutoff = 8
  binsize = 4 -> bins = 6 4 8
Memory usage per processor = 7.54179 Mbytes
Step Time Temp KinEng PotEng TotEng Press Pxx Pyy Pzz Lx Ly Lz Volume 
      13            0          393    16.408154   -638.54095    -622.1328    18051.102    40469.622    40784.651   -27100.968      15.2149      13.1765      28.7324    5760.2466 
     500        0.487    213.46284    8.9122929   -631.03909    -622.1268     19831.26    45934.119    45444.833   -31885.172      15.2149      13.1765      28.7324    5760.2466 
    1000        0.987    208.96828    8.7246401   -630.85111   -622.12647    19927.895    45638.926    45875.148   -31730.389      15.2149      13.1765      28.7324    5760.2466 
    1500        1.487    205.45406    8.5779178   -630.70378   -622.12586    19472.291    46896.664    43969.738   -32449.529      15.2149      13.1765      28.7324    5760.2466 
    2000        1.987    215.74883    9.0077353   -631.13376   -622.12602    19616.847    44519.962    44053.891   -29723.311      15.2149      13.1765      28.7324    5760.2466 
    2500        2.487    218.11912    9.1066973   -631.23157   -622.12487    20339.799     44289.65    47884.482   -31154.736      15.2149      13.1765      28.7324    5760.2466 
    3000        2.987    212.73694    8.8819855   -631.00459    -622.1226    19318.699    46664.583    43128.433   -31836.921      15.2149      13.1765      28.7324    5760.2466 
    3500        3.487      214.361     8.949792   -631.07142   -622.12162    20074.495    41945.872    47113.266   -28835.652      15.2149      13.1765      28.7324    5760.2466 
    4000        3.987    228.06714    9.5220371   -631.64313   -622.12109    19224.546    41895.183    44770.542   -28992.088      15.2149      13.1765      28.7324    5760.2466 
    4500        4.487    216.90936    9.0561884    -631.1749   -622.11871      19063.8    42566.074    46536.882   -31911.556      15.2149      13.1765      28.7324    5760.2466 
    5000        4.987    234.11542    9.7745593   -631.89234   -622.11778    20992.944    41900.478    50510.389   -29432.034      15.2149      13.1765      28.7324    5760.2466 
    5500        5.487    204.07061    8.5201576   -630.63462   -622.11446    19865.308      38659.7    51490.132   -30553.907      15.2149      13.1765      28.7324    5760.2466 
    6000        5.987    214.61342    8.9603308    -631.0725   -622.11217    19507.969    44504.387    49737.516   -35717.997      15.2149      13.1765      28.7324    5760.2466 
    6500        6.487    221.76777    9.2590323   -631.36844   -622.10941    19672.197     38758.41    48849.165   -28590.984      15.2149      13.1765      28.7324    5760.2466 
    7000        6.987    232.04215     9.687998    -631.7959    -622.1079    20073.617    40643.531    51081.821     -31504.5      15.2149      13.1765      28.7324    5760.2466 
    7500        7.487    214.97563    8.9754532   -631.07984   -622.10438    19061.422    41668.707    47733.412   -32217.854      15.2149      13.1765      28.7324    5760.2466 
    8000        7.987    218.06283    9.1043471   -631.20582   -622.10147    19911.783    42142.873    50364.039   -32771.563      15.2149      13.1765      28.7324    5760.2466 
    8500        8.487    218.58429    9.1261187   -631.22399   -622.09787    19308.443    44244.078    49496.451   -35815.199      15.2149      13.1765      28.7324    5760.2466 
    9000        8.987    204.73537     8.547912   -630.64123   -622.09332    19418.816    40870.326    50958.592   -33572.469      15.2149      13.1765      28.7324    5760.2466 
    9500        9.487    217.28768    9.0719838   -631.16187   -622.08989     19362.89    43926.633    46989.492   -32827.456      15.2149      13.1765      28.7324    5760.2466 
   10000        9.987    221.66983    9.2549431   -631.34124    -622.0863    19180.547    41965.112    47406.619   -31830.091      15.2149      13.1765      28.7324    5760.2466 
   10500       10.487    236.30727    9.8660711   -631.94885   -622.08278    19901.888     41815.67    48610.083   -30720.091      15.2149      13.1765      28.7324    5760.2466 
   11000       10.987    214.26921    8.9459596   -631.02353   -622.07757    20219.018    41198.746      50936.1   -31477.793      15.2149      13.1765      28.7324    5760.2466 
   11500       11.487    215.53888    8.9989696   -631.07102   -622.07206    19218.226    42638.924    50480.007   -35464.254      15.2149      13.1765      28.7324    5760.2466 
   12000       11.987    211.06437    8.8121542   -630.88009   -622.06794    18299.034    42286.893    50232.619   -37622.412      15.2149      13.1765      28.7324    5760.2466 
   12500       12.487    219.99705    9.1851028   -631.24768   -622.06258    18823.128    40914.354    47196.475   -31641.445      15.2149      13.1765      28.7324    5760.2466 
   13000       12.987     223.0443    9.3123284   -631.36995   -622.05762    18738.158    40305.201    53032.423    -37123.15      15.2149      13.1765      28.7324    5760.2466 
   13500       13.487    230.35384    9.6175095   -631.66953   -622.05202     18796.81    40256.454    49997.997    -33864.02      15.2149      13.1765      28.7324    5760.2466 
   14000       13.987    227.60936    9.5029246   -631.55002   -622.04709    19487.845    42517.682    50666.004   -34720.151      15.2149      13.1765      28.7324    5760.2466 
   14500       14.487    218.48833    9.1221121   -631.16233   -622.04022    19741.969     43493.13    45606.217   -29873.441      15.2149      13.1765      28.7324    5760.2466 
   15000       14.987    232.82763    9.7207926   -631.75519   -622.03439    18362.655    40166.074    51223.286   -36301.396      15.2149      13.1765      28.7324    5760.2466 
   15500       15.487    206.44875    8.6194474   -630.64708   -622.02763    19561.308    45386.085    48697.423   -35399.585      15.2149      13.1765      28.7324    5760.2466 
   16000       15.987    212.16411    8.8580693   -630.87868   -622.02061    19249.401     40964.29    49914.172   -33130.259      15.2149      13.1765      28.7324    5760.2466 
   16500       16.487    226.40917    9.4528155   -631.46778   -622.01496    18128.968    39006.907    51603.177   -36223.178      15.2149      13.1765      28.7324    5760.2466 
   17000       16.987    210.34453       8.7821   -630.78929   -622.00719    18969.022    39532.695    53516.481   -36142.111      15.2149      13.1765      28.7324    5760.2466 
   17500       17.487    231.62014    9.6703785   -631.67132   -622.00094    18570.135     41208.37    49790.016   -35287.981      15.2149      13.1765      28.7324    5760.2466 
   18000       17.987    223.34331    9.3248123    -631.3187   -621.99389     19788.59    40318.713    49028.377   -29981.319      15.2149      13.1765      28.7324    5760.2466 
   18500       18.487    217.17601    9.0673216   -631.05343   -621.98611    20503.489     39696.48    51599.899   -29785.913      15.2149      13.1765      28.7324    5760.2466 
   19000       18.987    224.05417    9.3544915   -631.33308   -621.97859    20144.347    40764.534    53258.898   -33590.391      15.2149      13.1765      28.7324    5760.2466 
   19500       19.487    225.42673    9.4117974   -631.38272   -621.97092    17166.594    40262.575    47038.826   -35801.618      15.2149      13.1765      28.7324    5760.2466 
   20000       19.987    232.00037    9.6862535   -631.64889   -621.96264    18046.775    39106.291    49031.513   -33997.481      15.2149      13.1765      28.7324    5760.2466 
   20500       20.487    224.94212    9.3915646   -631.34551   -621.95395    18431.019    40685.499    50196.233   -35588.676      15.2149      13.1765      28.7324    5760.2466 
   21000       20.987    227.99989    9.5192296   -631.46518   -621.94595    19774.208    42384.666     48120.71   -31182.753      15.2149      13.1765      28.7324    5760.2466 
   21500       21.487    233.45346    9.7469215   -631.68431   -621.93739    19285.128    39726.722    50415.467   -32286.806      15.2149      13.1765      28.7324    5760.2466 
   22000       21.987     219.5208    9.1652187    -631.0935   -621.92828    19400.655    43289.052     51342.21   -36429.296      15.2149      13.1765      28.7324    5760.2466 
   22500       22.487    213.69444    8.9219621   -630.84108   -621.91912    18717.955    40218.372    51549.256   -35613.763      15.2149      13.1765      28.7324    5760.2466 
   23000       22.987    215.21372    8.9853936   -630.89507   -621.90967    20037.943    42093.624    46572.751   -28552.545      15.2149      13.1765      28.7324    5760.2466 
   23500       23.487    217.40837    9.0770226    -630.9774   -621.90038    17448.546    42656.714    47138.518   -37449.592      15.2149      13.1765      28.7324    5760.2466 
   24000       23.987    228.78586    9.5520445    -631.4437   -621.89166    19399.268    44828.962    45837.065   -32468.223      15.2149      13.1765      28.7324    5760.2466 
   24500       24.487    219.56859    9.1672141   -631.04852   -621.88131    16761.339    39319.495    47451.279   -36486.756      15.2149      13.1765      28.7324    5760.2466 
   25000       24.987    233.70101    9.7572573   -631.62957   -621.87231    19050.233    41718.612    46755.549   -31323.462      15.2149      13.1765      28.7324    5760.2466 
   25500       25.487    223.39542     9.326988     -631.189   -621.86202     18435.31     43331.83    48507.045   -36532.946      15.2149      13.1765      28.7324    5760.2466 
   26000       25.987    236.89155    9.8904653   -631.74254   -621.85208    18803.751    40680.771    47612.368   -31881.888      15.2149      13.1765      28.7324    5760.2466 
   26500       26.487    220.50643    9.2063698   -631.04691   -621.84054    18375.776     40036.33    50319.582   -35228.583      15.2149      13.1765      28.7324    5760.2466 
   27000       26.987    235.61698    9.8372509   -631.66809   -621.83083     18568.99    42801.515     48208.74   -35303.285      15.2149      13.1765      28.7324    5760.2466 
   27500       27.487    218.91433    9.1398982   -630.95936   -621.81946    17811.816    40986.287    51460.644   -39011.483      15.2149      13.1765      28.7324    5760.2466 
   28000       27.987    222.26221    9.2796756   -631.08781   -621.80813    18338.894    40626.863    48162.813   -33772.994      15.2149      13.1765      28.7324    5760.2466 
   28500       28.487    224.64268    9.3790625   -631.17663   -621.79756    21476.525    43341.546    46603.886   -25515.859      15.2149      13.1765      28.7324    5760.2466 
   29000       28.987    222.39606    9.2852637   -631.07123   -621.78597    18699.024    40108.488    52204.803   -36216.219      15.2149      13.1765      28.7324    5760.2466 
   29500       29.487    213.42873    8.9108687   -630.68483   -621.77396    18853.406    39329.386    51443.242    -34212.41      15.2149      13.1765      28.7324    5760.2466 
   30000       29.987    228.21799    9.5283353   -631.29235   -621.76401    19857.495    40264.088    48120.972   -28812.576      15.2149      13.1765      28.7324    5760.2466 
   30500       30.487    234.50443    9.7908006   -631.54337   -621.75257    19217.526    38661.758    52039.727   -33048.906      15.2149      13.1765      28.7324    5760.2466 
   31000       30.987    219.86472    9.1795779   -630.91977   -621.74019    18992.404    39462.121    47354.504   -29839.412      15.2149      13.1765      28.7324    5760.2466 
   31500       31.487    228.53944    9.5417563   -631.27031   -621.72855    20599.093    37344.415    53241.948   -28789.084      15.2149      13.1765      28.7324    5760.2466 
   32000       31.987    225.46847    9.4135399   -631.13004    -621.7165    19695.454    41177.581    52669.449   -34760.668      15.2149      13.1765      28.7324    5760.2466 
   32500       32.487    222.72432     9.298969   -631.00342   -621.70445    18761.078    39997.507     53879.02   -37593.292      15.2149      13.1765      28.7324    5760.2466 
   33000       32.987    224.94556    9.3917081   -631.08323   -621.69153    18863.571    44643.223    51717.223   -39769.734      15.2149      13.1765      28.7324    5760.2466 
   33500       33.487    216.36121    9.0333025   -630.71321    -621.6799    17450.651    38473.586    51338.577    -37460.21      15.2149      13.1765      28.7324    5760.2466 
   34000       33.987    238.25377    9.9473394   -631.61529   -621.66796     19020.87    42069.133    47949.393   -32955.916      15.2149      13.1765      28.7324    5760.2466 
   34500       34.487    218.92096    9.1401748   -630.79511   -621.65493    19266.862    41993.799    50543.505   -34736.718      15.2149      13.1765      28.7324    5760.2466 
   35000       34.987    229.38995    9.5772658   -631.21971   -621.64245    17286.293    40867.521     47887.14    -36895.78      15.2149      13.1765      28.7324    5760.2466 
   35500       35.487    233.73668    9.7587465   -631.38896   -621.63022    19224.525    37318.341    48017.865   -27662.633      15.2149      13.1765      28.7324    5760.2466 
   36000       35.987    220.96852    9.2256625   -630.84235   -621.61669    19803.402    41125.966     50989.02   -32704.782      15.2149      13.1765      28.7324    5760.2466 
   36500       36.487    223.22293    9.3197864   -630.92407   -621.60428    17481.518    40951.295    47892.948   -36399.688      15.2149      13.1765      28.7324    5760.2466 
   37000       36.987      233.958    9.7679866   -631.36032   -621.59233     19612.35    39442.567    50195.583   -30801.102      15.2149      13.1765      28.7324    5760.2466 
   37500       37.487    228.51642     9.540795   -631.11953   -621.57873    19895.678    37848.878    49938.048   -28099.893      15.2149      13.1765      28.7324    5760.2466 
   38000       37.987    223.44399    9.3290161    -630.8952   -621.56618    19105.345    40456.263    49371.697   -32511.927      15.2149      13.1765      28.7324    5760.2466 
   38500       38.487    228.03646    9.5207564   -631.07438   -621.55363     19813.67    42616.466    49138.202   -32313.659      15.2149      13.1765      28.7324    5760.2466 
   39000       38.987    227.38275    9.4934633   -631.03357    -621.5401    19584.452    39378.429    50316.768   -30941.841      15.2149      13.1765      28.7324    5760.2466 
   39500       39.487    227.25623     9.488181   -631.01623   -621.52805    19688.302    43273.913    48570.436   -32779.442      15.2149      13.1765      28.7324    5760.2466 
   40000       39.987    224.52148    9.3740024   -630.88823   -621.51423    19696.636    39452.021    49843.178    -30205.29      15.2149      13.1765      28.7324    5760.2466 
   40500       40.487    235.52427    9.8333803   -631.33521   -621.50183    19138.929    41070.442    48766.625   -32420.281      15.2149      13.1765      28.7324    5760.2466 
   41000       40.987    223.35553    9.3253228   -630.81394   -621.48862    20914.128    44511.711     48162.75   -29932.078      15.2149      13.1765      28.7324    5760.2466 
   41500       41.487    228.47988    9.5392694   -631.01445   -621.47518    21854.551    45450.157     48160.53   -28047.035      15.2149      13.1765      28.7324    5760.2466 
   42000       41.987    228.32586     9.532839   -630.99439   -621.46155    19520.391    42890.036     48255.48   -32584.344      15.2149      13.1765      28.7324    5760.2466 
   42500       42.487    218.99285    9.1431764   -630.59134   -621.44816    19806.196    40948.934    46876.726   -28407.072      15.2149      13.1765      28.7324    5760.2466 
   43000       42.987    236.65722    9.8806821   -631.31723   -621.43655    20202.225    39805.992    49560.541   -28759.858      15.2149      13.1765      28.7324    5760.2466 
   43500       43.487    242.70806    10.133311   -631.55655   -621.42324    20257.659    43236.901    48079.775   -30543.699      15.2149      13.1765      28.7324    5760.2466 
   44000       43.987    233.44712    9.7466571   -631.15688   -621.41022    18779.427    43093.105     45836.85   -32591.673      15.2149      13.1765      28.7324    5760.2466 
   44500       44.487    221.23223    9.2366728   -630.63218   -621.39551    21185.846    44407.759    52423.189    -33273.41      15.2149      13.1765      28.7324    5760.2466 
   45000       44.987    234.06245    9.7723477   -631.15646   -621.38411     19593.78    40787.248    50625.423   -32631.332      15.2149      13.1765      28.7324    5760.2466 
   45500       45.487    232.58252    9.7105591   -631.08115   -621.37059    18726.406    40533.236    48032.546   -32386.564      15.2149      13.1765      28.7324    5760.2466 
   46000       45.987    233.53128    9.7501706   -631.10759   -621.35742    21242.864    45343.008    45843.461   -27457.878      15.2149      13.1765      28.7324    5760.2466 
   46500       46.487    231.65504    9.6718359   -631.01591   -621.34407    19256.536     43253.12    47951.864   -33435.377      15.2149      13.1765      28.7324    5760.2466 
   47000       46.987    219.07865    9.1467587   -630.47818   -621.33142    19890.471    42530.412    46292.327   -29151.325      15.2149      13.1765      28.7324    5760.2466 
   47500       47.487    234.23474    9.7795409   -631.09819   -621.31865    21614.423    43665.555    50464.946   -29287.231      15.2149      13.1765      28.7324    5760.2466 
   48000       47.987    226.09384    9.4396501   -630.74447   -621.30482     18146.16     41446.04    48622.423   -35629.984      15.2149      13.1765      28.7324    5760.2466 
   48500       48.487    231.09109    9.6482905   -630.94104   -621.29275    19778.311    39919.386    45360.284   -25944.737      15.2149      13.1765      28.7324    5760.2466 
   49000       48.987    236.80967    9.8870469   -631.16709   -621.28004    21821.937    40594.818    52356.494   -27485.499      15.2149      13.1765      28.7324    5760.2466 
   49500       49.487    239.34868    9.9930533   -631.26175    -621.2687      19222.2    41264.958    45305.614   -28903.971      15.2149      13.1765      28.7324    5760.2466 
   50000       49.987    235.13219    9.8170103    -631.0725   -621.25549    19757.296    39152.625     47260.48   -27141.219      15.2149      13.1765      28.7324    5760.2466 
   50500       50.487    241.08554    10.065569   -631.30937    -621.2438    20329.921    41025.688    47937.434    -27973.36      15.2149      13.1765      28.7324    5760.2466 
   51000       50.987    249.72072    10.426097   -631.65789    -621.2318    18931.456    41297.214     47654.67   -32157.517      15.2149      13.1765      28.7324    5760.2466 
   51500       51.487    226.31745    9.4489857   -630.66684   -621.21786    19138.981    40095.381    49487.304   -32165.743      15.2149      13.1765      28.7324    5760.2466 
   52000       51.987    229.63006    9.5872907   -630.79329   -621.20599    17837.661     39538.37    48199.408   -34224.795      15.2149      13.1765      28.7324    5760.2466 
   52500       52.487    235.70304     9.840844   -631.03428   -621.19343    19989.008    40545.831     49771.03   -30349.836      15.2149      13.1765      28.7324    5760.2466 
   53000       52.987    232.67226    9.7143058   -630.89601    -621.1817    20535.201    42925.674    51442.636   -32762.708      15.2149      13.1765      28.7324    5760.2466 
   53500       53.487     225.2346    9.4037759   -630.57369   -621.16991    18702.546     39527.27    46885.885   -30305.518      15.2149      13.1765      28.7324    5760.2466 
   54000       53.987    223.22944    9.3200583   -630.47776   -621.15771    17158.658    41502.879    47617.307   -37644.212      15.2149      13.1765      28.7324    5760.2466 
   54500       54.487      227.118    9.4824098    -630.6283   -621.14589    18191.863    39125.232    48021.035   -32570.679      15.2149      13.1765      28.7324    5760.2466 
   55000       54.987    238.81326    9.9706988   -631.10574   -621.13504    20092.958    42097.689    47574.724    -29393.54      15.2149      13.1765      28.7324    5760.2466 
   55500       55.487    235.25924     9.822315   -630.94415   -621.12184    18455.143    41985.301    48363.673   -34983.543      15.2149      13.1765      28.7324    5760.2466 
   56000       55.987    242.31702    10.116984    -631.2287   -621.11172    19339.214    41018.255    49669.783   -32670.398      15.2149      13.1765      28.7324    5760.2466 
   56500       56.487    231.06802    9.6473272   -630.74659   -621.09926    18911.057    40329.809    48460.475   -32057.113      15.2149      13.1765      28.7324    5760.2466 
   57000       56.987    236.57859    9.8773992   -630.96523   -621.08783    18513.573    42867.778    46755.416   -34082.475      15.2149      13.1765      28.7324    5760.2466 
   57500       57.487    231.66227    9.6721376    -630.7488   -621.07666    20016.517    41620.252    49926.875   -31497.577      15.2149      13.1765      28.7324    5760.2466 
   58000       57.987    238.90514    9.9745351   -631.03944   -621.06491    19776.805    42144.721    48818.139   -31632.446      15.2149      13.1765      28.7324    5760.2466 
   58500       58.487     242.5549    10.126916   -631.18047   -621.05355    19463.189    40840.032    47500.241   -29950.706      15.2149      13.1765      28.7324    5760.2466 
   59000       58.987    241.59126    10.086683   -631.12902   -621.04233    20412.106    41810.962    50163.668   -30738.312      15.2149      13.1765      28.7324    5760.2466 
   59500       59.487     249.4167    10.413403   -631.44436   -621.03095    18532.903    39841.233    49404.104   -33646.627      15.2149      13.1765      28.7324    5760.2466 
   60000       59.987    218.23515    9.1115414   -630.12981   -621.01827    19524.937    39339.956    48815.219   -29580.365      15.2149      13.1765      28.7324    5760.2466 
   60500       60.487    247.89243    10.349764   -631.35823   -621.00846    21973.796    42814.319     50325.05   -27217.982      15.2149      13.1765      28.7324    5760.2466 
   61000       60.987    241.95585    10.101905   -631.09873   -620.99683    18458.224    40062.085    49995.935   -34683.347      15.2149      13.1765      28.7324    5760.2466 
   61500       61.487    246.89189     10.30799   -631.29401   -620.98602    20543.656    46777.463    45035.283   -30181.778      15.2149      13.1765      28.7324    5760.2466 
   62000       61.987    236.43479    9.8713953   -630.84555   -620.97415    18628.426    43689.721    47546.708   -35351.151      15.2149      13.1765      28.7324    5760.2466 
   62500       62.487    229.23861    9.5709472   -630.53385   -620.96291    19719.291    42934.748    49191.364   -32968.239      15.2149      13.1765      28.7324    5760.2466 
   63000       62.987    238.10202    9.9410039   -630.89363   -620.95262    18368.338    41507.402     46302.25   -32704.638      15.2149      13.1765      28.7324    5760.2466 
   63500       63.487     244.9745    10.227937   -631.16954   -620.94161    21493.991    45037.002    50390.556   -30945.586      15.2149      13.1765      28.7324    5760.2466 
   64000       63.987    232.28413    9.6981008   -630.62775   -620.92965    21486.294    43587.524    47890.176   -27018.818      15.2149      13.1765      28.7324    5760.2466 
   64500       64.487    249.75481     10.42752   -631.34697   -620.91945    18141.458    40801.208    48055.674   -34432.507      15.2149      13.1765      28.7324    5760.2466 
   65000       64.987     241.7849    10.094768   -631.00366    -620.9089    17681.468    37224.795    47192.417   -31372.808      15.2149      13.1765      28.7324    5760.2466 
   65500       65.487    245.02917    10.230219   -631.12812    -620.8979    18844.761    42130.796    50415.725   -36012.239      15.2149      13.1765      28.7324    5760.2466 
   66000       65.987    234.92235    9.8082493   -630.69469   -620.88644    19178.556    44216.902    49688.104   -36369.338      15.2149      13.1765      28.7324    5760.2466 
   66500       66.487    246.95506    10.310627   -631.18705   -620.87643    17992.916    37185.586    47105.486   -30312.324      15.2149      13.1765      28.7324    5760.2466 
   67000       66.987    247.70023    10.341739   -631.20749   -620.86575    17411.503    42263.862    46767.354   -36796.707      15.2149      13.1765      28.7324    5760.2466 
   67500       67.487    229.95385    9.6008094    -630.4556   -620.85479    19506.239    36562.465    48545.261    -26589.01      15.2149      13.1765      28.7324    5760.2466 
   68000       67.987    235.08798    9.8151645   -630.65928   -620.84412    19014.637    40409.033    44871.078   -28236.199      15.2149      13.1765      28.7324    5760.2466 
   68500       68.487    236.90927    9.8912054   -630.72458   -620.83337    17377.649    40144.647     46948.12   -34959.819      15.2149      13.1765      28.7324    5760.2466 
   69000       68.987    234.08916    9.7734627   -630.59638   -620.82292    18980.954    40677.335    45946.436    -29680.91      15.2149      13.1765      28.7324    5760.2466 
   69500       69.487    240.85993     10.05615   -630.86834   -620.81219    19473.969    41281.077    48734.673   -31593.845      15.2149      13.1765      28.7324    5760.2466 
   70000       69.987    234.96224    9.8099147     -630.611   -620.80108    19666.018    41605.101    48193.092   -30800.138      15.2149      13.1765      28.7324    5760.2466 
   70500       70.487    230.43512    9.6209028    -630.4115    -620.7906    19266.086    40040.109    48759.269    -31001.12      15.2149      13.1765      28.7324    5760.2466 
   71000       70.987    223.01606    9.3111494   -630.09066   -620.77951    18949.585     42867.17    47718.957   -33737.372      15.2149      13.1765      28.7324    5760.2466 
   71500       71.487    233.92576    9.7666409   -630.53606   -620.76941    18022.124    45557.266    49213.964   -40704.859      15.2149      13.1765      28.7324    5760.2466 
   72000       71.987    239.51339      9.99993   -630.75957   -620.75964    18259.578    43764.445    47057.185   -36042.896      15.2149      13.1765      28.7324    5760.2466 
   72500       72.487    236.87337    9.8897066   -630.63851    -620.7488    19389.413    42470.504    50652.881   -34955.146      15.2149      13.1765      28.7324    5760.2466 
   73000       72.987     242.5822    10.128056   -630.86648   -620.73842    18824.158    38551.548    50821.009   -32900.084      15.2149      13.1765      28.7324    5760.2466 
   73500       73.487    236.77614     9.885647   -630.61335   -620.72771    18323.757     39790.02    47156.865   -31975.614      15.2149      13.1765      28.7324    5760.2466 
   74000       73.987    241.59807    10.086967   -630.80389   -620.71692    17803.247    42857.992    50672.281    -40120.53      15.2149      13.1765      28.7324    5760.2466 
   74500       74.487    238.17865     9.944203   -630.65013   -620.70593    18310.328    40632.323    50269.865   -35971.204      15.2149      13.1765      28.7324    5760.2466 
   75000       74.987     243.7465    10.176667     -630.872   -620.69533    21039.817    43353.064    48525.617    -28759.23      15.2149      13.1765      28.7324    5760.2466 
   75500       75.487    252.04553     10.52316   -631.20805   -620.68489    19555.446    39425.189    48209.182   -28968.033      15.2149      13.1765      28.7324    5760.2466 
   76000       75.987    240.11894    10.025212   -630.69873   -620.67351    20930.629    41193.669    51837.152   -30238.933      15.2149      13.1765      28.7324    5760.2466 
   76500       76.487    240.62814    10.046472   -630.70886   -620.66239    18632.285    40902.882    52973.179   -37979.206      15.2149      13.1765      28.7324    5760.2466 
   77000       76.987    244.61004     10.21272   -630.86431   -620.65159     17541.34    39126.402    49348.131   -35850.514      15.2149      13.1765      28.7324    5760.2466 
   77500       77.487    232.57678    9.7103195   -630.35094   -620.64062    18042.226    39695.305    51317.047   -36885.675      15.2149      13.1765      28.7324    5760.2466 
   78000       77.987    236.43328    9.8713324   -630.50133   -620.62999    18224.381    40209.983    51303.539   -36840.378      15.2149      13.1765      28.7324    5760.2466 
   78500       78.487     239.4084    9.9955464   -630.61407   -620.61852    18239.724    36902.922    50559.678   -32743.427      15.2149      13.1765      28.7324    5760.2466 
   79000       78.987    233.92187    9.7664784   -630.37332   -620.60684    18607.678    38653.524    52028.185   -34858.677      15.2149      13.1765      28.7324    5760.2466 
   79500       79.487    243.32439    10.159043   -630.75578   -620.59674    18129.487    36984.004    51095.948   -33691.489      15.2149      13.1765      28.7324    5760.2466 
   80000       79.987    238.20205    9.9451801    -630.5308   -620.58562    17901.413    38325.826    51660.796   -36282.384      15.2149      13.1765      28.7324    5760.2466 
   80500       80.487      242.401     10.12049   -630.69438   -620.57389    18656.437    40341.253    51205.957     -35577.9      15.2149      13.1765      28.7324    5760.2466 
   81000       80.987      235.958    9.8514889   -630.41455   -620.56307    18994.154    41663.604    52637.339   -37318.479      15.2149      13.1765      28.7324    5760.2466 
   81500       81.487    257.16256    10.736801    -631.2898     -620.553     18339.72    38193.233    50992.854   -34166.926      15.2149      13.1765      28.7324    5760.2466 
   82000       81.987    250.96614    10.478094   -631.01892   -620.54083    18119.514     39399.67    50115.292   -35156.419      15.2149      13.1765      28.7324    5760.2466 
   82500       82.487    239.42109    9.9960763   -630.52528   -620.52921    19465.119    40482.868    50731.507   -32819.019      15.2149      13.1765      28.7324    5760.2466 
   83000       82.987    236.36437     9.868455   -630.38673   -620.51828    17994.026    41426.313    48771.951   -36216.187      15.2149      13.1765      28.7324    5760.2466 
   83500       83.487    231.01471    9.6451014   -630.15166   -620.50656    19920.467    42433.001    48408.899     -31080.5      15.2149      13.1765      28.7324    5760.2466 
   84000       83.987    257.04335    10.731824   -631.22738   -620.49555    19449.156    41102.207    51783.647   -34538.387      15.2149      13.1765      28.7324    5760.2466 
   84500       84.487    264.51889    11.043935   -631.52905   -620.48511    19860.648    41825.443    52721.833   -34965.332      15.2149      13.1765      28.7324    5760.2466 
   85000       84.987     247.5918    10.337212   -630.80944   -620.47222    20080.851     40438.51    53119.971   -33315.929      15.2149      13.1765      28.7324    5760.2466 
   85500       85.487    252.27512    10.532745    -630.9933   -620.46055    16619.678    38637.595    52461.756   -41240.316      15.2149      13.1765      28.7324    5760.2466 
   86000       85.987    249.23904    10.405986   -630.85578    -620.4498    17974.341    36562.599     49832.13   -32471.706      15.2149      13.1765      28.7324    5760.2466 
   86500       86.487    237.12011    9.9000082   -630.33763   -620.43762    17058.257    38049.522    48552.996   -35427.746      15.2149      13.1765      28.7324    5760.2466 
   87000       86.987    241.52128    10.083762   -630.51017   -620.42641    18790.685    41283.111    53954.957   -38866.012      15.2149      13.1765      28.7324    5760.2466 
   87500       87.487    239.90872    10.016435   -630.43132   -620.41489    17786.524    41541.751    50907.515   -39089.693      15.2149      13.1765      28.7324    5760.2466 
   88000       87.987    256.89373    10.725577   -631.12946   -620.40388    19076.594    40258.151    51563.064   -34591.432      15.2149      13.1765      28.7324    5760.2466 
   88500       88.487    241.36396    10.077193   -630.46809    -620.3909    20569.383    40948.577    52552.152   -31792.581      15.2149      13.1765      28.7324    5760.2466 
   89000       88.987    248.24517    10.364491   -630.74371   -620.37922    18576.013    41580.468    50184.032   -36036.462      15.2149      13.1765      28.7324    5760.2466 
   89500       89.487    235.42322     9.829161    -630.1961   -620.36694    20789.926    37322.965    54050.775   -29003.963      15.2149      13.1765      28.7324    5760.2466 
   90000       89.987    241.62799    10.088217   -630.44307   -620.35486    17676.329    39366.461    49275.457    -35612.93      15.2149      13.1765      28.7324    5760.2466 
   90500       90.487    253.75002    10.594324   -630.93842   -620.34409    17643.164    41236.021    47759.855   -36066.386      15.2149      13.1765      28.7324    5760.2466 
   91000       90.987    240.18176    10.027835   -630.35908   -620.33125    19606.012    42245.351    47577.479   -31004.794      15.2149      13.1765      28.7324    5760.2466 
   91500       91.487    248.61934    10.380113    -630.6989   -620.31879     18053.54    40019.842    48903.172   -34762.395      15.2149      13.1765      28.7324    5760.2466 
   92000       91.987    239.19154    9.9864923   -630.29322   -620.30672    18472.519    40933.059    51070.295   -36585.798      15.2149      13.1765      28.7324    5760.2466 
   92500       92.487    248.23175    10.363931   -630.65839   -620.29446    19077.676     37167.91    55793.074   -35727.955      15.2149      13.1765      28.7324    5760.2466 
   93000       92.987    259.13255     10.81905   -631.10138   -620.28233    17635.602    37108.602    52794.628   -36996.425      15.2149      13.1765      28.7324    5760.2466 
   93500       93.487    242.54618    10.126552   -630.39614   -620.26958    21674.389    40347.831    53995.488   -29320.152      15.2149      13.1765      28.7324    5760.2466 
   94000       93.987    236.29993    9.8657646   -630.12295   -620.25719    19426.895    40504.223     52548.47   -34772.007      15.2149      13.1765      28.7324    5760.2466 
   94500       94.487     247.7011    10.341775   -630.58662   -620.24485    17386.147    38398.737     49651.23   -35891.526      15.2149      13.1765      28.7324    5760.2466 
   95000       94.987    247.98913    10.353801   -630.58619   -620.23239    18877.958    39268.172    49786.906   -32421.203      15.2149      13.1765      28.7324    5760.2466 
   95500       95.487    244.92226    10.225756   -630.44537   -620.21961    18574.413     40458.75    47322.408   -32057.917      15.2149      13.1765      28.7324    5760.2466 
   96000       95.987     248.8154    10.388298   -630.59593   -620.20763     18459.25    40208.882    52019.002   -36850.134      15.2149      13.1765      28.7324    5760.2466 
   96500       96.487    256.68544    10.716881   -630.91241   -620.19553    19039.046    36996.734    50229.216   -30108.812      15.2149      13.1765      28.7324    5760.2466 
   97000       96.987    263.97267     11.02113   -631.20439   -620.18326    19837.406    41489.174     53464.16   -35441.118      15.2149      13.1765      28.7324    5760.2466 
   97500       97.487    262.14655    10.944888   -631.11498   -620.17009     18930.58     40696.55    51910.097   -35814.906      15.2149      13.1765      28.7324    5760.2466 
   98000       97.987     253.2629    10.573986   -630.72938    -620.1554    19313.577    34084.131     55124.09   -31267.491      15.2149      13.1765      28.7324    5760.2466 
   98500       98.487    233.49899    9.7488225   -629.89042    -620.1416    18437.709    38104.527    51048.741   -33840.141      15.2149      13.1765      28.7324    5760.2466 
   99000       98.987    265.06143    11.066587    -631.1971   -620.13052    17353.683     38764.76    50260.649   -36964.359      15.2149      13.1765      28.7324    5760.2466 
   99500       99.487    242.03387    10.105163   -630.22135   -620.11619     19244.36     37592.17    48373.251   -28232.339      15.2149      13.1765      28.7324    5760.2466 
  100000       99.987    245.11604    10.233846   -630.33707   -620.10323    18749.523    38882.973    53625.056   -36259.459      15.2149      13.1765      28.7324    5760.2466 
  100500      100.487    257.76176    10.761818   -630.85192    -620.0901    18485.714     38579.71     49268.91   -32391.478      15.2149      13.1765      28.7324    5760.2466 
  101000      100.987    260.63847    10.881924   -630.95892     -620.077    18284.613    37981.377    50836.151   -33963.689      15.2149      13.1765      28.7324    5760.2466 
  101500      101.487    253.13086    10.568473   -630.63158    -620.0631    19796.094    41109.215    54954.435   -36675.368      15.2149      13.1765      28.7324    5760.2466 
  102000      101.987    248.30952    10.367177   -630.41689   -620.04971    19701.964    40645.346    52352.527   -33891.982      15.2149      13.1765      28.7324    5760.2466 
  102500      102.487    244.17002    10.194349   -630.23092   -620.03657    18966.209    36377.735    52811.961   -32291.069      15.2149      13.1765      28.7324    5760.2466 
  103000      102.987     260.5664    10.878915   -630.90272    -620.0238    17619.983    39075.901    52773.572   -38989.524      15.2149      13.1765      28.7324    5760.2466 
  103500      103.487    234.01692    9.7704465   -629.77888   -620.00843    19480.641    38890.277    51482.139   -31930.492      15.2149      13.1765      28.7324    5760.2466 
  104000      103.987    247.81431    10.346502   -630.34172   -619.99521    18625.844    38779.391    50499.379   -33401.239      15.2149      13.1765      28.7324    5760.2466 
  104500      104.487     253.3128    10.576069    -630.5576   -619.98153    18648.761    38733.627    52279.867   -35067.213      15.2149      13.1765      28.7324    5760.2466 
  105000      104.987    255.61381    10.672139   -630.64108   -619.96894    18418.227     42550.19    47914.226   -35209.735      15.2149      13.1765      28.7324    5760.2466 
  105500      105.487    246.62373    10.296794   -630.25138   -619.95459    18048.189    41191.444    49770.035   -36816.912      15.2149      13.1765      28.7324    5760.2466 
  106000      105.987    246.01017    10.271177   -630.21186   -619.94068    19419.839    39572.019    50232.653   -31545.154      15.2149      13.1765      28.7324    5760.2466 
  106500      106.487    247.81574    10.346562   -630.27405   -619.92749    17955.463    41885.616    49876.811   -37896.039      15.2149      13.1765      28.7324    5760.2466 
  107000      106.987    254.84175    10.639905   -630.55287   -619.91297    18411.736    41527.324     50036.26   -36328.377      15.2149      13.1765      28.7324    5760.2466 
  107500      107.487    242.97406    10.144417   -630.04259   -619.89817    18253.999    42624.713    50570.484   -38433.199      15.2149      13.1765      28.7324    5760.2466 
  108000      107.987    249.42648    10.413812   -630.29907   -619.88526    17523.115    39845.904    47663.247   -34939.806      15.2149      13.1765      28.7324    5760.2466 
  108500      108.487    257.08266    10.733465   -630.60471   -619.87124    19878.472    38898.625     51059.78   -30322.989      15.2149      13.1765      28.7324    5760.2466 
  109000      108.987    236.11037    9.8578505   -629.71369   -619.85584    18609.887      38431.8    51844.944   -34447.084      15.2149      13.1765      28.7324    5760.2466 
  109500      109.487    259.85386    10.849166   -630.69199   -619.84282    21009.841    40502.124    51810.122   -29282.723      15.2149      13.1765      28.7324    5760.2466 
  110000      109.987    247.63388    10.338969   -630.16679   -619.82782    20212.975    39469.796    54246.164   -33077.035      15.2149      13.1765      28.7324    5760.2466 
  110500      110.487    253.29817    10.575459   -630.38969   -619.81423    17784.812    39539.569     49759.29   -35944.423      15.2149      13.1765      28.7324    5760.2466 
  111000      110.987    255.55122    10.669526   -630.46971   -619.80019    19543.465    37851.165    52810.926   -32031.697      15.2149      13.1765      28.7324    5760.2466 
  111500      111.487    243.48102    10.165583   -629.95085   -619.78527    17894.249    38711.623    47679.705   -32708.581      15.2149      13.1765      28.7324    5760.2466 
  112000      111.987    253.46763    10.582534   -630.35424   -619.77171    20437.599    40132.998    50117.376   -28937.577      15.2149      13.1765      28.7324    5760.2466 
  112500      112.487    252.29367     10.53352   -630.29173   -619.75821    20006.429    40115.951    48774.068   -28870.732      15.2149      13.1765      28.7324    5760.2466 
  113000      112.987    253.64666    10.590008   -630.33262   -619.74261    19946.541    42279.869    47397.247   -29837.493      15.2149      13.1765      28.7324    5760.2466 
  113500      113.487    249.22082    10.405225   -630.13296   -619.72774    18140.956    38293.591     48429.62   -32300.342      15.2149      13.1765      28.7324    5760.2466 
  114000      113.987    251.30215    10.492123    -630.2061   -619.71398    18361.337    40988.561    48260.254   -34164.803      15.2149      13.1765      28.7324    5760.2466 
  114500      114.487    267.77113     11.17972    -630.8808   -619.70108    18324.731    39544.333    46911.366   -31481.506      15.2149      13.1765      28.7324    5760.2466 
  115000      114.987    246.12406    10.275932   -629.96159   -619.68566    19752.256    37426.472    51770.205    -29939.91      15.2149      13.1765      28.7324    5760.2466 
  115500      115.487    259.29855    10.825981   -630.49752   -619.67154    19103.629     37696.67     54565.71   -34951.492      15.2149      13.1765      28.7324    5760.2466 
  116000      115.987    246.77459    10.303093   -629.95891   -619.65582    18827.994    40961.487    52452.566    -36930.07      15.2149      13.1765      28.7324    5760.2466 
  116500      116.487    269.33473    11.245002   -630.88731   -619.64231    18058.825    38246.307    49779.107   -33848.937      15.2149      13.1765      28.7324    5760.2466 
  117000      116.987    243.77471    10.177845   -629.80389   -619.62604    18617.507    37839.898    51389.954   -33377.331      15.2149      13.1765      28.7324    5760.2466 
  117500      117.487    250.64225    10.464571   -630.07644   -619.61187    19052.211    40619.366    50428.475   -33891.208      15.2149      13.1765      28.7324    5760.2466 
  118000      117.987    257.70887     10.75961   -630.35673   -619.59712    18212.808    38957.427    52237.619   -36556.624      15.2149      13.1765      28.7324    5760.2466 
  118500      118.487    248.30324    10.366915   -629.94954   -619.58262    19105.895    41565.391    48826.037   -33073.743      15.2149      13.1765      28.7324    5760.2466 
  119000      118.987     259.3507    10.828158   -630.39653   -619.56838    18417.461    36320.203    51757.564   -32825.384      15.2149      13.1765      28.7324    5760.2466 
  119500      119.487    254.42041    10.622313     -630.176   -619.55368    19522.875     41358.99    48160.921   -30951.285      15.2149      13.1765      28.7324    5760.2466 
  120000      119.987    259.20138    10.821924   -630.36032   -619.53839    19604.558    41456.823    50263.622    -32906.77      15.2149      13.1765      28.7324    5760.2466 
  120500      120.487     259.2193    10.822672   -630.34582   -619.52315    20284.127    43068.943    47531.884   -29748.446      15.2149      13.1765      28.7324    5760.2466 
  121000      120.987    251.58735     10.50403   -630.01242   -619.50839    19210.585    40936.872     53353.03   -36658.147      15.2149      13.1765      28.7324    5760.2466 
  121500      121.487    252.41274    10.538491   -630.03164   -619.49314    20247.047    40045.547    49922.144    -29226.55      15.2149      13.1765      28.7324    5760.2466 
  122000      121.987    256.99942     10.72999   -630.20826   -619.47827    19194.596    39835.628    52412.045   -34663.886      15.2149      13.1765      28.7324    5760.2466 
  122500      122.487     269.2598    11.241873   -630.70592   -619.46405    19186.536    40314.726    52405.769   -35160.886      15.2149      13.1765      28.7324    5760.2466 
  123000      122.987    263.71474    11.010361   -630.45864   -619.44828    18944.958    39834.696    47686.663   -30686.484      15.2149      13.1765      28.7324    5760.2466 
  123500      123.487    250.15324    10.444155    -629.8766   -619.43245    18667.654    42999.735    50414.438   -37411.213      15.2149      13.1765      28.7324    5760.2466 
  124000      123.987    250.15061    10.444045   -629.86147   -619.41743    18092.045     39846.08    51007.073   -36577.019      15.2149      13.1765      28.7324    5760.2466 
  124500      124.487    261.07959    10.900341   -630.30274    -619.4024     19413.77    38744.903    52212.797    -32716.39      15.2149      13.1765      28.7324    5760.2466 
  125000      124.987    268.64985    11.216407   -630.60418   -619.38778    18469.193    42010.771    47441.637   -34044.828      15.2149      13.1765      28.7324    5760.2466 
  125500      125.487    253.82603    10.597498   -629.96978   -619.37229    18582.169     38366.26    49025.318   -31645.071      15.2149      13.1765      28.7324    5760.2466 
  126000      125.987    257.50231    10.750986   -630.10754   -619.35656     18885.67    37349.154    52284.691   -32976.833      15.2149      13.1765      28.7324    5760.2466 
  126500      126.487    257.53197    10.752224   -630.09326   -619.34103    20051.906    41896.649    51619.762   -33360.692      15.2149      13.1765      28.7324    5760.2466 
  127000      126.987    265.52533    11.085955   -630.41191   -619.32595    18971.083    41232.238    51764.777   -36083.765      15.2149      13.1765      28.7324    5760.2466 
  127500      127.487    270.88105    11.309562   -630.61995   -619.31038    19363.391    40080.023    53153.908   -35143.758      15.2149      13.1765      28.7324    5760.2466 
  128000      127.987    249.89184    10.433241   -629.72704    -619.2938    17463.944    39273.492    46697.823   -33579.485      15.2149      13.1765      28.7324    5760.2466 
  128500      128.487     254.5591    10.628104   -629.90724   -619.27914    20008.675      40250.4    48820.215   -29044.589      15.2149      13.1765      28.7324    5760.2466 
  129000      128.987    259.12669    10.818805   -630.08276   -619.26396    17074.454    39660.009    51040.404   -39477.053      15.2149      13.1765      28.7324    5760.2466 
  129500      129.487    251.06317    10.482145   -629.73007   -619.24792    18169.342    40710.492    50735.166    -36937.63      15.2149      13.1765      28.7324    5760.2466 
  130000      129.987    267.40101    11.164267   -630.39778   -619.23351    19864.149    39715.654    55956.635   -36079.841      15.2149      13.1765      28.7324    5760.2466 
  130500      130.487    264.99004    11.063606   -630.28151   -619.21791    19573.092    42882.547    50754.417   -34917.686      15.2149      13.1765      28.7324    5760.2466 
  131000      130.987    263.11151    10.985176   -630.18651   -619.20133      18099.5    38767.752     50374.86   -34844.112      15.2149      13.1765      28.7324    5760.2466 
  131500      131.487    257.74238    10.761009   -629.94662   -619.18561    18062.841    40540.438    48302.878   -34654.792      15.2149      13.1765      28.7324    5760.2466 
  132000      131.987    252.29173    10.533439   -629.70366   -619.17023    18541.472    37859.283    53825.849   -36060.715      15.2149      13.1765      28.7324    5760.2466 
  132500      132.487    259.02509    10.814564   -629.96941   -619.15484    20043.754    42748.935    57805.786   -40423.458      15.2149      13.1765      28.7324    5760.2466 
  133000      132.987    267.26225    11.158473   -630.29838    -619.1399    19315.352    39709.549    53173.093   -34936.586      15.2149      13.1765      28.7324    5760.2466 
  133500      133.487    263.32396    10.994046   -630.11737   -619.12332    19529.635    37677.734    53125.394   -32214.224      15.2149      13.1765      28.7324    5760.2466 
  134000      133.987    255.01366    10.647082   -629.75464   -619.10756    19991.917    39450.959    55828.262    -35303.47      15.2149      13.1765      28.7324    5760.2466 
  134500      134.487    268.34018    11.203478   -630.29583   -619.09235    18208.971     39326.36    48694.287   -33393.735      15.2149      13.1765      28.7324    5760.2466 
  135000      134.987    257.82436    10.764432   -629.84073    -619.0763    18905.253    44273.077    47484.967   -35042.284      15.2149      13.1765      28.7324    5760.2466 
  135500      135.487    270.01036     11.27321   -630.33386   -619.06065    19645.988    39337.192     50708.46   -31107.689      15.2149      13.1765      28.7324    5760.2466 
  136000      135.987    264.46622    11.041736   -630.08614    -619.0444    18951.817    41036.183    46692.107    -30872.84      15.2149      13.1765      28.7324    5760.2466 
  136500      136.487    256.89704    10.725715   -629.75445   -619.02874    19917.387    38488.511    50103.323   -28839.674      15.2149      13.1765      28.7324    5760.2466 
  137000      136.987    268.31571    11.202456   -630.21562   -619.01316    17811.686    38422.737    52103.747   -37091.427      15.2149      13.1765      28.7324    5760.2466 
  137500      137.487    259.36319     10.82868   -629.82534   -618.99666    18624.229    43323.435    51216.554   -38667.301      15.2149      13.1765      28.7324    5760.2466 
  138000      137.987    272.09048    11.360057   -630.34147   -618.98141    19036.052    41976.268    50598.828   -35466.939      15.2149      13.1765      28.7324    5760.2466 
  138500      138.487    263.38311    10.996515   -629.96217   -618.96565     20076.93    42108.816    50807.132   -32685.159      15.2149      13.1765      28.7324    5760.2466 
  139000      138.987     267.8512    11.183063   -630.13282   -618.94976    19358.618    40039.013    47005.911   -28969.071      15.2149      13.1765      28.7324    5760.2466 
  139500      139.487    262.21736    10.947844   -629.88182   -618.93398    20338.031    38741.964    48293.282   -26021.152      15.2149      13.1765      28.7324    5760.2466 
  140000      139.987    256.29407    10.700541   -629.61831   -618.91777    20154.099    43957.252    48036.795    -31531.75      15.2149      13.1765      28.7324    5760.2466 
  140500      140.487    255.02056     10.64737   -629.54944   -618.90207    17759.671    37881.149    48787.811   -33389.947      15.2149      13.1765      28.7324    5760.2466 
  141000      140.987    251.64751    10.506542   -629.39227   -618.88573    17602.662    39834.854    52230.531     -39257.4      15.2149      13.1765      28.7324    5760.2466 
  141500      141.487     262.4376    10.957039   -629.82812   -618.87109    18408.617    42255.937    51909.655   -38939.743      15.2149      13.1765      28.7324    5760.2466 
  142000      141.987    243.98202      10.1865   -629.04045   -618.85395    19118.974    37530.637    51811.863   -31985.577      15.2149      13.1765      28.7324    5760.2466 
  142500      142.487     280.5126    11.711689   -630.55174   -618.84005    17750.434    37974.328    49466.128   -34189.155      15.2149      13.1765      28.7324    5760.2466 
  143000      142.987    270.83084    11.307466   -630.13188   -618.82442    17385.849     39634.35    49978.946   -37455.748      15.2149      13.1765      28.7324    5760.2466 
  143500      143.487    260.02318    10.856235   -629.66388   -618.80765     17733.25    39550.347    51788.062   -38138.659      15.2149      13.1765      28.7324    5760.2466 
  144000      143.987    272.69531    11.385309    -630.1769   -618.79159    18287.049    37977.371    49952.279   -33068.504      15.2149      13.1765      28.7324    5760.2466 
  144500      144.487    247.85048    10.348012   -629.12227   -618.77426    19056.582    41338.665    53104.007   -37272.925      15.2149      13.1765      28.7324    5760.2466 
  145000      144.987     256.7948    10.721447   -629.48143   -618.75999    18924.436    43510.783    46826.946   -33564.423      15.2149      13.1765      28.7324    5760.2466 
  145500      145.487    261.44296    10.915512    -629.6599   -618.74439    19477.871    41353.703    48979.877   -31899.967      15.2149      13.1765      28.7324    5760.2466 
  146000      145.987    252.45329    10.540184   -629.26755   -618.72737    19142.039    41303.586     53187.67   -37065.139      15.2149      13.1765      28.7324    5760.2466 
  146500      146.487    258.69559    10.800807   -629.51319   -618.71238    19841.801    43012.916     49779.05   -33266.561      15.2149      13.1765      28.7324    5760.2466 
  147000      146.987    261.11154    10.901675   -629.59747    -618.6958    19229.879    38973.529    55077.026   -36360.919      15.2149      13.1765      28.7324    5760.2466 
  147500      147.487    260.11197    10.859942   -629.54021   -618.68027    18028.736    40039.179    51808.809   -37761.781      15.2149      13.1765      28.7324    5760.2466 
  148000      147.987    246.87881    10.307444    -628.9712   -618.66376    18467.929    39561.782    51163.731   -35321.724      15.2149      13.1765      28.7324    5760.2466 
  148500      148.487    275.44266    11.500014   -630.14846   -618.64845    19296.262    42247.042    54278.417   -38636.672      15.2149      13.1765      28.7324    5760.2466 
  149000      148.987    263.48779    11.000886    -629.6335   -618.63262    19045.491    42748.025    48830.406   -34441.957      15.2149      13.1765      28.7324    5760.2466 
  149500      149.487    264.07316    11.025326   -629.64178   -618.61646    19054.754    40352.201    50261.763   -33449.702      15.2149      13.1765      28.7324    5760.2466 
  150000      149.987    261.03317    10.898403   -629.49862   -618.60022    20303.573    40770.643    52402.735   -32262.659      15.2149      13.1765      28.7324    5760.2466 
  150500      150.487    265.12665     11.06931   -629.65324   -618.58394    20038.746    41583.215    48486.785   -29953.761      15.2149      13.1765      28.7324    5760.2466 
  151000      150.987    257.41157    10.747197   -629.31437   -618.56717    19480.487    42229.602    51773.095   -35561.238      15.2149      13.1765      28.7324    5760.2466 
  151500      151.487    262.74251    10.969769   -629.52113   -618.55136    18679.237    40785.622    51286.436   -36034.348      15.2149      13.1765      28.7324    5760.2466 
  152000      151.987    276.61282    11.548869   -630.08577    -618.5369    18602.631    41814.294    48226.686   -34233.086      15.2149      13.1765      28.7324    5760.2466 
  152500      152.487    264.61399    11.047906   -629.56785   -618.51994    19087.227    38812.183    54144.886   -35695.387      15.2149      13.1765      28.7324    5760.2466 
  153000      152.987    259.37358    10.829113   -629.33127   -618.50216    19366.663    36477.427    54242.821   -32620.259      15.2149      13.1765      28.7324    5760.2466 
  153500      153.487    277.88541    11.602001   -630.08876   -618.48676    19535.227    43692.032    50512.646   -35598.997      15.2149      13.1765      28.7324    5760.2466 
  154000      153.987    265.98416    11.105112   -629.57629   -618.47118    19207.268    39346.741    52970.178   -34695.114      15.2149      13.1765      28.7324    5760.2466 
  154500      154.487    270.40764    11.289796    -629.7448     -618.455    19691.187    39679.685    54596.766   -35202.888      15.2149      13.1765      28.7324    5760.2466 
  155000      154.987    271.84431    11.349779   -629.78833   -618.43855     18852.38    36450.868    53074.721   -32968.449      15.2149      13.1765      28.7324    5760.2466 
  155500      155.487    256.13177    10.693764   -629.11531   -618.42155    17609.779     41034.96    48273.746   -36479.368      15.2149      13.1765      28.7324    5760.2466 
  156000      155.987    272.71137     11.38598   -629.79216   -618.40618    18401.981    38652.105    48635.256   -32081.418      15.2149      13.1765      28.7324    5760.2466 
  156500      156.487    279.94993    11.688197    -630.0782      -618.39    19162.567    40327.002    52053.621   -34892.922      15.2149      13.1765      28.7324    5760.2466 
  157000      156.987    265.42138    11.081615   -629.45389   -618.37228    18891.325    43107.315    51096.743   -37530.083      15.2149      13.1765      28.7324    5760.2466 
  157500      157.487    271.18521    11.322261   -629.67899   -618.35672    18281.642    38575.976    52954.974   -36686.024      15.2149      13.1765      28.7324    5760.2466 
  158000      157.987    260.30232    10.867889   -629.20761   -618.33972    18812.984    37099.712    50437.765   -31098.526      15.2149      13.1765      28.7324    5760.2466 
  158500      158.487    279.54386    11.671243   -629.99556   -618.32432     18843.08    39760.997    49695.176   -32926.933      15.2149      13.1765      28.7324    5760.2466 
  159000      158.987    259.05838    10.815953   -629.12272   -618.30677    18464.722    39032.675     51249.82    -34888.33      15.2149      13.1765      28.7324    5760.2466 
  159500      159.487    274.67071    11.467784    -629.7595   -618.29171    20182.034    41063.085    51634.154   -32151.137      15.2149      13.1765      28.7324    5760.2466 
  160000      159.987    245.57307    10.252928    -628.5274   -618.27448    17200.493    38745.913    48250.619   -35395.053      15.2149      13.1765      28.7324    5760.2466 
  160500      160.487    264.91171    11.060336   -629.31951   -618.25917    20199.381    43500.789    52131.688   -35034.333      15.2149      13.1765      28.7324    5760.2466 
  161000      160.987    276.15813    11.529885   -629.77199   -618.24211    21180.374    41159.555    52571.492   -30189.926      15.2149      13.1765      28.7324    5760.2466 
  161500      161.487      272.731    11.386799   -629.61259   -618.22579    18322.673    37722.805    51007.601   -33762.387      15.2149      13.1765      28.7324    5760.2466 
  162000      161.987    278.80238    11.640286   -629.84941   -618.20912    19565.371     37469.26     51604.72   -30377.868      15.2149      13.1765      28.7324    5760.2466 
  162500      162.487    263.02221    10.981447   -629.17355    -618.1921      19214.4    36597.586    49449.948   -28404.334      15.2149      13.1765      28.7324    5760.2466 
  163000      162.987    274.52706    11.461787   -629.63756   -618.17577    19035.579     40145.77     49986.66   -33025.691      15.2149      13.1765      28.7324    5760.2466 
  163500      163.487    263.21311    10.989418   -629.14794   -618.15853     19550.32    44129.222     45379.26   -30857.523      15.2149      13.1765      28.7324    5760.2466 
  164000      163.987    274.85274    11.475384   -629.61857   -618.14319    19574.664    39667.696    49808.434   -30752.138      15.2149      13.1765      28.7324    5760.2466 
  164500      164.487    279.78329     11.68124   -629.80724     -618.126    19196.648    40903.356    51799.816   -35113.228      15.2149      13.1765      28.7324    5760.2466 
  165000      164.987    261.25962    10.907857   -629.01694   -618.10908    19286.371    39647.521    52318.336   -34106.742      15.2149      13.1765      28.7324    5760.2466 
  165500      165.487    261.53514    10.919361   -629.01296    -618.0936    18556.057    42391.793    49241.938   -35965.558      15.2149      13.1765      28.7324    5760.2466 
  166000      165.987    271.11923    11.319506   -629.39611    -618.0766    18986.844    40879.276    49167.554   -33086.298      15.2149      13.1765      28.7324    5760.2466 
  166500      166.487    272.97181    11.396853   -629.45674   -618.05989    18089.707    39113.836    50679.336    -35524.05      15.2149      13.1765      28.7324    5760.2466 
  167000      166.987    265.95596    11.103935   -629.14783    -618.0439    17785.191    38714.655    48031.707    -33390.79      15.2149      13.1765      28.7324    5760.2466 
  167500      167.487    267.48411    11.167736   -629.19511   -618.02737    17877.665    40815.636    46852.578   -34035.217      15.2149      13.1765      28.7324    5760.2466 
  168000      167.987    266.46433    11.125159   -629.13621   -618.01105    19024.268    36373.722    52469.336   -31770.255      15.2149      13.1765      28.7324    5760.2466 
  168500      168.487     281.6331    11.758471   -629.75341   -617.99493     20090.67    43110.987    54413.392   -37252.368      15.2149      13.1765      28.7324    5760.2466 
  169000      168.987    265.41639    11.081407    -629.0585    -617.9771    19610.602    42482.441    50699.901   -34350.535      15.2149      13.1765      28.7324    5760.2466 
  169500      169.487    287.21628    11.991575   -629.95305   -617.96148    19818.336    38859.836    50740.208   -30145.034      15.2149      13.1765      28.7324    5760.2466 
  170000      169.987    267.30458    11.160241   -629.10454    -617.9443    19160.855    41071.905    46728.975   -30318.315      15.2149      13.1765      28.7324    5760.2466 
  170500      170.487    264.50293    11.043269   -628.97051   -617.92724    19300.917    40533.476    52778.192   -35408.917      15.2149      13.1765      28.7324    5760.2466 
  171000      170.987    275.36048    11.496583   -629.40748    -617.9109    18771.549    39514.297    54132.925   -37332.575      15.2149      13.1765      28.7324    5760.2466 
  171500      171.487    262.47467    10.958587    -628.8521   -617.89351    20208.774    42733.663    53352.443   -35459.784      15.2149      13.1765      28.7324    5760.2466 
  172000      171.987     265.6414    11.090801   -628.96819   -617.87739    18655.878    40812.107    52663.151   -37507.625      15.2149      13.1765      28.7324    5760.2466 
  172500      172.487    271.13985    11.320367   -629.18056    -617.8602    20469.275    41220.575    51000.481    -30813.23      15.2149      13.1765      28.7324    5760.2466 
  173000      172.987    276.61091     11.54879   -629.39267   -617.84388    20716.623    42616.699    52169.601   -32636.431      15.2149      13.1765      28.7324    5760.2466 
  173500      173.487    271.31837    11.327821   -629.15522   -617.82739    20511.395    45788.023    48712.911   -32966.749      15.2149      13.1765      28.7324    5760.2466 
  174000      173.987    274.04999    11.441869    -629.2518   -617.80993    18951.984    41192.398    49254.082   -33590.528      15.2149      13.1765      28.7324    5760.2466 
  174500      174.487    273.63916    11.424716   -629.21891   -617.79419    18755.993    39866.078    48732.609   -32330.707      15.2149      13.1765      28.7324    5760.2466 
  175000      174.987    261.00764    10.897337   -628.67304    -617.7757    19023.101    38448.875    51084.935   -32464.506      15.2149      13.1765      28.7324    5760.2466 
  175500      175.487    286.59215    11.965517   -629.72571   -617.76019    18224.385    39223.096    50761.944   -35311.885      15.2149      13.1765      28.7324    5760.2466 
  176000      175.987     281.9537    11.771856   -629.51371   -617.74186    19878.591    39527.325    50098.983   -29990.534      15.2149      13.1765      28.7324    5760.2466 
  176500      176.487      274.951    11.479487   -629.20457   -617.72508    18267.378    39997.165    55642.536   -40837.567      15.2149      13.1765      28.7324    5760.2466 
  177000      176.987    284.81424    11.891287   -629.60026   -617.70898     18751.03    39824.325    50922.295    -34493.53      15.2149      13.1765      28.7324    5760.2466 
  177500      177.487    274.92929     11.47858   -629.17075   -617.69217    18207.264     39969.85    53477.734   -38825.794      15.2149      13.1765      28.7324    5760.2466 
  178000      177.987    262.58837    10.963334   -628.63848   -617.67515    19163.351    39228.708    47776.281   -29514.938      15.2149      13.1765      28.7324    5760.2466 
  178500      178.487    278.52784    11.628823   -629.28729   -617.65847      18948.5    43024.627    48049.243    -34228.37      15.2149      13.1765      28.7324    5760.2466 
  179000      178.987    284.18409    11.864978   -629.50752   -617.64254    18705.098    43407.266    51535.818   -38827.791      15.2149      13.1765      28.7324    5760.2466 
  179500      179.487    279.70112    11.677809   -629.30256   -617.62475    20227.311    41996.281    53158.334   -34472.683      15.2149      13.1765      28.7324    5760.2466 
  180000      179.987    282.76633    11.805784   -629.41429   -617.60851    19148.543     45392.21    51649.596   -39596.177      15.2149      13.1765      28.7324    5760.2466 
  180500      180.487    283.53169    11.837739   -629.42939   -617.59165    18954.767    38378.968     50907.29   -32421.958      15.2149      13.1765      28.7324    5760.2466 
  181000      180.987    275.16426     11.48839   -629.06177   -617.57338    18952.448    37884.534    52023.492   -33050.682      15.2149      13.1765      28.7324    5760.2466 
  181500      181.487    262.32202    10.952213   -628.50847   -617.55626    18542.008    38962.629    52435.993   -35772.598      15.2149      13.1765      28.7324    5760.2466 
  182000      181.987    287.20774    11.991218   -629.53119   -617.53997    19898.745      39001.9    49676.181   -28981.846      15.2149      13.1765      28.7324    5760.2466 
  182500      182.487    281.14372    11.738039    -629.2609   -617.52286    19128.425    41125.855    53775.104   -37515.683      15.2149      13.1765      28.7324    5760.2466 
  183000      182.987    274.88582    11.476765   -628.98304   -617.50627    20500.753    39996.536    46766.773   -25261.049      15.2149      13.1765      28.7324    5760.2466 
  183500      183.487    276.56982    11.547074    -629.0367   -617.48963    20440.794    38142.748    54110.355   -30930.721      15.2149      13.1765      28.7324    5760.2466 
  184000      183.987    292.84206    12.226457   -629.69899   -617.47253    20123.457    41278.984    50202.477   -31111.091      15.2149      13.1765      28.7324    5760.2466 
  184500      184.487    292.90436    12.229058   -629.68443   -617.45537    20011.939    43002.054    50835.034   -33801.272      15.2149      13.1765      28.7324    5760.2466 
  185000      184.987    273.20476    11.406579   -628.84387   -617.43729    17881.822    42205.599    50361.381   -38921.513      15.2149      13.1765      28.7324    5760.2466 
  185500      185.487    292.51465    12.212787   -629.63448   -617.42169    19205.189    43364.636     51848.38    -37597.45      15.2149      13.1765      28.7324    5760.2466 
  186000      185.987    277.14237    11.570979   -628.97477   -617.40379    18416.413    40590.657    54706.438   -40047.855      15.2149      13.1765      28.7324    5760.2466 
  186500      186.487    285.33704    11.913114   -629.30032    -617.3872    18403.763    40041.189    51855.668   -36685.568      15.2149      13.1765      28.7324    5760.2466 
  187000      186.987    295.32858    12.330271   -629.70066   -617.37039    18914.949    39827.361    53415.123   -36497.637      15.2149      13.1765      28.7324    5760.2466 
  187500      187.487    257.80949    10.763811   -628.11573   -617.35192    18406.461    40914.295    46065.586   -31760.498      15.2149      13.1765      28.7324    5760.2466 
  188000      187.987    274.90196    11.477439   -628.81309   -617.33565    20171.549     41204.03    48941.818   -29631.201      15.2149      13.1765      28.7324    5760.2466 
  188500      188.487    288.82502    12.058741   -629.37713   -617.31839    21584.846    42417.239    51622.748    -29285.45      15.2149      13.1765      28.7324    5760.2466 
  189000      188.987    293.39141    12.249393   -629.55086   -617.30146    20672.083      42843.7    50883.525   -31710.974      15.2149      13.1765      28.7324    5760.2466 
  189500      189.487    279.99806    11.690207   -628.97447   -617.28427    18846.228    44580.506    48463.468   -36505.291      15.2149      13.1765      28.7324    5760.2466 
  190000      189.987    274.39327    11.456201   -628.72259   -617.26639    20347.545    41364.096    49268.445   -29589.905      15.2149      13.1765      28.7324    5760.2466 
  190500      190.487    266.68672    11.134444   -628.38313   -617.24869    18717.478     38651.55     51993.74   -34492.857      15.2149      13.1765      28.7324    5760.2466 
  191000      190.987    270.25172    11.283287   -628.51455   -617.23126    19302.953     40127.22    55559.484   -37777.846      15.2149      13.1765      28.7324    5760.2466 
  191500      191.487    278.29831     11.61924   -628.83401   -617.21477    16563.798    38535.074    53130.054   -41973.735      15.2149      13.1765      28.7324    5760.2466 
  192000      191.987    281.43474    11.750189   -628.94828   -617.19809    18761.497    39681.746    54302.603   -37699.857      15.2149      13.1765      28.7324    5760.2466 
  192500      192.487    276.41969    11.540806   -628.72123   -617.18043    19493.255    39710.215    51851.044   -33081.493      15.2149      13.1765      28.7324    5760.2466 
  193000      192.987    283.62676    11.841708   -629.00512   -617.16341    17194.833    38893.916    52666.542   -39975.959      15.2149      13.1765      28.7324    5760.2466 
  193500      193.487    287.69386    12.011514   -629.15722    -617.1457    18199.237    41011.474    50181.361   -36595.123      15.2149      13.1765      28.7324    5760.2466 
  194000      193.987    283.01945    11.816353   -628.94532   -617.12897    20075.172    37787.514    50424.478   -27986.476      15.2149      13.1765      28.7324    5760.2466 
  194500      194.487    285.58081    11.923292   -629.03518   -617.11188    19438.414    42457.913    51877.721   -36020.391      15.2149      13.1765      28.7324    5760.2466 
  195000      194.987    280.02045    11.691141   -628.78575   -617.09461    20103.244    39898.388    47918.859   -27507.516      15.2149      13.1765      28.7324    5760.2466 
  195500      195.487    281.93915    11.771249    -628.8484   -617.07715    19093.192    42263.965    49035.666   -34020.056      15.2149      13.1765      28.7324    5760.2466 
  196000      195.987    300.25297     12.53587   -629.59599   -617.06013    18100.663    40402.682    49656.166   -35756.859      15.2149      13.1765      28.7324    5760.2466 
  196500      196.487    303.07336    12.653624   -629.69668   -617.04305    17040.988    41857.185    47518.596   -38252.819      15.2149      13.1765      28.7324    5760.2466 
  197000      196.987    287.21912    11.991693   -629.01697   -617.02528    19092.548    40031.519    50292.043   -33045.919      15.2149      13.1765      28.7324    5760.2466 
  197500      197.487    284.80891    11.891065   -628.89921   -617.00814    19677.448    41772.991    52744.101   -35484.749      15.2149      13.1765      28.7324    5760.2466 
  198000      197.987    295.80808    12.350291   -629.34167   -616.99138    18978.257    42746.192    49330.289   -35141.711      15.2149      13.1765      28.7324    5760.2466 
  198500      198.487     274.8089    11.473554   -628.44594   -616.97238    17089.385     38654.24    50327.692   -37713.776      15.2149      13.1765      28.7324    5760.2466 
  199000      198.987    292.62982    12.217595   -629.17273   -616.95514    19781.361     43279.72    53374.419   -37310.058      15.2149      13.1765      28.7324    5760.2466 
  199500      199.487    288.04266    12.026077   -628.96417    -616.9381    19746.038    41416.384    53240.927   -35419.196      15.2149      13.1765      28.7324    5760.2466 
  200000      199.987    295.88964    12.353696   -629.27492   -616.92122    19089.784    37943.437    52524.825   -33198.909      15.2149      13.1765      28.7324    5760.2466 
  200500      200.487    297.07733    12.403283   -629.30703   -616.90374    18474.276    36813.045    52974.757   -34364.975      15.2149      13.1765      28.7324    5760.2466 
  201000      200.987    289.63944    12.092744   -628.97913   -616.88639    21372.578    43895.572    51480.032   -31257.871      15.2149      13.1765      28.7324    5760.2466 
  201500      201.487    275.74473    11.512626   -628.37981   -616.86718    19441.106    41418.078    48573.421   -31668.181      15.2149      13.1765      28.7324    5760.2466 
  202000      201.987    283.13977    11.821376   -628.67151   -616.85014    19570.703    38541.782    49063.456    -28893.13      15.2149      13.1765      28.7324    5760.2466 
  202500      202.487    293.38178    12.248991   -629.08172   -616.83273    18683.946    32855.732    53452.345   -30256.238      15.2149      13.1765      28.7324    5760.2466 
  203000      202.987    267.11914    11.152498   -627.96695   -616.81445    18077.715    41672.495    53680.928   -41120.279      15.2149      13.1765      28.7324    5760.2466 
  203500      203.487    280.74522    11.721401   -628.51893   -616.79753    18606.127    36730.879    48486.966   -29399.465      15.2149      13.1765      28.7324    5760.2466 
  204000      203.987      295.445    12.335132   -629.11684   -616.78171    18181.476    36565.798    54149.376   -36170.746      15.2149      13.1765      28.7324    5760.2466 
  204500      204.487    298.42138    12.459399   -629.22265   -616.76326    19522.718    38496.095    53695.115   -33623.058      15.2149      13.1765      28.7324    5760.2466 
  205000      204.987    276.44825    11.541998   -628.28686   -616.74486    18823.916    41087.449    50693.881   -35309.583      15.2149      13.1765      28.7324    5760.2466 
  205500      205.487    284.35359    11.872054   -628.59963   -616.72758        20392    38787.018    50230.961   -27841.979      15.2149      13.1765      28.7324    5760.2466 
  206000      205.987    300.69878    12.554483   -629.26509    -616.7106    18053.172    42074.366    49434.452   -37349.302      15.2149      13.1765      28.7324    5760.2466 
  206500      206.487    264.13543    11.027925   -627.71955   -616.69163    19001.419    44209.174    48869.137   -36074.054      15.2149      13.1765      28.7324    5760.2466 
  207000      206.987    282.32686    11.787436   -628.46235   -616.67491    20876.671    41540.833    54461.426   -33372.245      15.2149      13.1765      28.7324    5760.2466 
  207500      207.487    294.11261    12.279503   -628.93734   -616.65783    19149.831    39378.835    55428.816   -37358.159      15.2149      13.1765      28.7324    5760.2466 
  208000      207.987    288.55818      12.0476   -628.68838   -616.64078    20515.911    39467.987    53705.701   -31625.956      15.2149      13.1765      28.7324    5760.2466 
  208500      208.487    287.77273    12.014807   -628.63758   -616.62277     18728.85     38195.64    50376.004   -32385.096      15.2149      13.1765      28.7324    5760.2466 
  209000      208.987    289.70858    12.095631   -628.70047   -616.60483    18908.271    41633.264    55408.343   -40316.792      15.2149      13.1765      28.7324    5760.2466 
  209500      209.487    291.09156    12.153372   -628.73996   -616.58659    19085.612      39592.6    49338.854    -31674.62      15.2149      13.1765      28.7324    5760.2466 
  210000      209.987     299.7701     12.51571    -629.0864   -616.57069    18124.797    43583.686    53613.987   -42823.283      15.2149      13.1765      28.7324    5760.2466 
  210500      210.487     298.1127    12.446511   -628.99776   -616.55125    19480.511     41030.22    51256.969   -33845.658      15.2149      13.1765      28.7324    5760.2466 
  211000      210.987    296.75833    12.389965    -628.9244   -616.53444     19182.22    40317.589    50414.237   -33185.168      15.2149      13.1765      28.7324    5760.2466 
  211500      211.487    294.28549    12.286721   -628.80248   -616.51576    18332.551    39271.257    52442.762   -36716.366      15.2149      13.1765      28.7324    5760.2466 
  212000      211.987    275.20742    11.490192   -627.98827   -616.49808    18216.528    39046.067    50486.857   -34883.339      15.2149      13.1765      28.7324    5760.2466 
[...]
  948500      948.487    363.54328    15.178305    -624.8234    -609.6451    22716.746    46136.281    51804.039   -29790.082      15.2149      13.1765      28.7324    5760.2466 
  949000      948.987    365.81583    15.273186   -624.91688   -609.64369    20988.504    46064.038    49344.229   -32442.753      15.2149      13.1765      28.7324    5760.2466 
  949500      949.487    374.90403    15.652628   -625.29335   -609.64073    20831.732     46602.97    51489.808   -35597.581      15.2149      13.1765      28.7324    5760.2466 
  950000      949.987    377.49544    15.760822   -625.40104   -609.64021    21110.431    46702.096     51967.36   -35338.164      15.2149      13.1765      28.7324    5760.2466 
  950500      950.487    378.57584     15.80593   -625.44443    -609.6385    19931.169    46181.139    47896.411   -34284.043      15.2149      13.1765      28.7324    5760.2466 
  951000      950.987    361.43999    15.090491   -624.72681   -609.63632    20845.137    47043.405    49657.196   -34165.191      15.2149      13.1765      28.7324    5760.2466 
  951500      951.487    370.87179    15.484278   -625.11776   -609.63348    20520.511    43514.923    50860.936   -32814.326      15.2149      13.1765      28.7324    5760.2466 
  952000      951.987    349.51883     14.59277   -624.22499   -609.63222    21337.021    44426.032    52289.854   -32704.822      15.2149      13.1765      28.7324    5760.2466 
  952500      952.487    353.51373    14.759561   -624.38879   -609.62922     21211.01    44498.577    51832.141   -32697.688      15.2149      13.1765      28.7324    5760.2466 
  953000      952.987    377.27302    15.751536   -625.37993   -609.62839    21461.344    44964.907    52879.788   -33460.665      15.2149      13.1765      28.7324    5760.2466 
  953500      953.487    388.67994    16.227787   -625.85446   -609.62667    20984.447    43681.358    51359.464   -32087.482      15.2149      13.1765      28.7324    5760.2466 
  954000      953.987    369.78769    15.439016   -625.06207   -609.62306    19893.959    43137.876    56743.618   -40199.617      15.2149      13.1765      28.7324    5760.2466 
  954500      954.487    367.29901    15.335111   -624.95539   -609.62028    20825.019    44729.114    53012.518   -35266.576      15.2149      13.1765      28.7324    5760.2466 
  955000      954.987     353.6125    14.763685   -624.38265   -609.61896    21216.696    40760.172     52946.73   -30056.815      15.2149      13.1765      28.7324    5760.2466 
  955500      955.487    395.38099    16.507562   -626.12598   -609.61842    20072.467    42490.735    50123.037   -32396.371      15.2149      13.1765      28.7324    5760.2466 
  956000      955.987    368.32259    15.377846   -624.99322   -609.61538     19467.16     39831.22    48578.968   -30008.707      15.2149      13.1765      28.7324    5760.2466 
  956500      956.487    369.49095    15.426626   -625.03761   -609.61098    20643.028    40579.059    50588.859   -29238.836      15.2149      13.1765      28.7324    5760.2466 
  957000      956.987    385.88262    16.110996   -625.72325   -609.61225    19148.137    40366.349    51731.127   -34653.064      15.2149      13.1765      28.7324    5760.2466 
  957500      957.487    374.21795    15.623984   -625.23256   -609.60858    20530.355    38570.888    57122.907    -34102.73      15.2149      13.1765      28.7324    5760.2466 
  958000      957.987    361.02388    15.073118   -624.67875   -609.60563    21707.806    45882.531    50206.329   -30965.441      15.2149      13.1765      28.7324    5760.2466 
  958500      958.487    375.05638    15.658989   -625.26249    -609.6035    21877.331    47275.739    55417.224   -37060.968      15.2149      13.1765      28.7324    5760.2466 
  959000      958.987    392.86556     16.40254   -626.00373   -609.60119    21332.112     44644.38    50619.515   -31267.559      15.2149      13.1765      28.7324    5760.2466 
  959500      959.487    382.53411    15.971192   -625.56899   -609.59779    21097.969    43953.673    55366.801   -36026.567      15.2149      13.1765      28.7324    5760.2466 
  960000      959.987    368.63706    15.390976   -624.98625   -609.59527    20840.965    45347.186    51746.854   -34571.146      15.2149      13.1765      28.7324    5760.2466 
  960500      960.487    385.91646    16.112408   -625.70444   -609.59203    20338.865     40072.79    49872.174   -28928.368      15.2149      13.1765      28.7324    5760.2466 
  961000      960.987    379.00692    15.823928    -625.4124   -609.58847    20936.976     46251.36    57714.302   -41154.734      15.2149      13.1765      28.7324    5760.2466 
  961500      961.487    365.08156     15.24253   -624.82929   -609.58676    21154.109    48661.159    51183.807   -36382.638      15.2149      13.1765      28.7324    5760.2466 
  962000      961.987    371.40412    15.506503   -625.09154   -609.58503    22098.456    46339.944    54561.022   -34605.596      15.2149      13.1765      28.7324    5760.2466 
  962500      962.487    375.27737    15.668215   -625.24928   -609.58106    18953.196    42546.542    56301.322   -41988.277      15.2149      13.1765      28.7324    5760.2466 
  963000      962.987    398.80583    16.650553   -626.23011   -609.57956     22932.21    43288.831    52864.765   -27356.966      15.2149      13.1765      28.7324    5760.2466 
  963500      963.487     384.2901    16.044506   -625.62023   -609.57573    19764.385    45521.131    52764.138   -38992.113      15.2149      13.1765      28.7324    5760.2466 
  964000      963.987    386.04702    16.117859    -625.6906   -609.57274     20680.31    48291.173    49417.589   -35667.833      15.2149      13.1765      28.7324    5760.2466 
  964500      964.487    388.59535    16.224255   -625.79447   -609.57021    17658.948    43465.946    47899.571   -38388.672      15.2149      13.1765      28.7324    5760.2466 
  965000      964.987    370.82838    15.482466   -625.04946   -609.56699    21741.707    41667.481    53736.841   -30179.201      15.2149      13.1765      28.7324    5760.2466 
  965500      965.487    387.90518     16.19544   -625.75945   -609.56401    21010.317    41007.058    55314.138   -33290.244      15.2149      13.1765      28.7324    5760.2466 
  966000      965.987    377.21691    15.749193   -625.30962   -609.56043    19713.423    40379.589    47001.922   -28241.241      15.2149      13.1765      28.7324    5760.2466 
  966500      966.487    390.33074    16.296709   -625.85509   -609.55838    20527.833     44945.96    49234.236   -32596.696      15.2149      13.1765      28.7324    5760.2466 
  967000      966.987    388.25489     16.21004   -625.76485   -609.55481    20121.755    43998.334    54808.412   -38441.482      15.2149      13.1765      28.7324    5760.2466 
  967500      967.487    395.58751    16.516185   -626.06772   -609.55153    22667.592    43939.675    51511.876   -27448.776      15.2149      13.1765      28.7324    5760.2466 
  968000      967.987    374.04573    15.616793   -625.16606   -609.54927    21800.211    38567.319    53226.083   -26392.768      15.2149      13.1765      28.7324    5760.2466 
  968500      968.487    384.47895    16.052391   -625.59802   -609.54563    19952.054    42814.539    53584.259   -36542.637      15.2149      13.1765      28.7324    5760.2466 
  969000      968.987    383.33915    16.004803   -625.54796   -609.54316    20977.711    49651.354    53864.663   -40582.884      15.2149      13.1765      28.7324    5760.2466 
  969500      969.487    376.60352    15.723584    -625.2641   -609.54052    20701.135    42268.141    54745.171   -34909.906      15.2149      13.1765      28.7324    5760.2466 
  970000      969.987    394.93778    16.489058   -626.02633   -609.53727    19897.239    42859.607    47984.531    -31152.42      15.2149      13.1765      28.7324    5760.2466 
  970500      970.487    360.87916    15.067075   -624.60092   -609.53384     21627.83    41420.482    51258.833   -27795.826      15.2149      13.1765      28.7324    5760.2466 
  971000      970.987    379.13123    15.829118   -625.35909   -609.52997      21894.3    41079.136    54186.316   -29582.552      15.2149      13.1765      28.7324    5760.2466 
  971500      971.487    356.74204    14.894346   -624.41877   -609.52443    20417.398    41309.576    59579.419   -39636.801      15.2149      13.1765      28.7324    5760.2466 
  972000      971.987     376.0839    15.701889   -625.22554   -609.52365    21054.458    45280.015    54594.408   -36711.048      15.2149      13.1765      28.7324    5760.2466 
  972500      972.487    380.56678    15.889054   -625.40886   -609.51981    19983.532    41866.079    56910.551   -38826.034      15.2149      13.1765      28.7324    5760.2466 
  973000      972.987    380.57445    15.889374   -625.40565   -609.51628    20031.479    41876.653    50099.823   -31882.039      15.2149      13.1765      28.7324    5760.2466 
  973500      973.487    378.41318    15.799139   -625.31267   -609.51353    21537.989    39816.922    51427.621   -26630.577      15.2149      13.1765      28.7324    5760.2466 
  974000      973.987    366.24564    15.291131   -624.80182   -609.51069    22472.151    46299.242    49937.537   -28820.324      15.2149      13.1765      28.7324    5760.2466 
  974500      974.487    369.08814    15.409809   -624.91544   -609.50563    21431.698    42939.962     49904.39   -28549.259      15.2149      13.1765      28.7324    5760.2466 
  975000      974.987    401.54915    16.765089   -626.26805   -609.50296    21522.314    47123.524    53300.904   -35857.486      15.2149      13.1765      28.7324    5760.2466 
  975500      975.487    377.22836    15.749671   -625.24916   -609.49949    19591.205    43790.343    49882.901    -34899.63      15.2149      13.1765      28.7324    5760.2466 
  976000      975.987    356.16771    14.870368   -624.36351   -609.49314    21333.154    42443.982    52048.594   -30493.114      15.2149      13.1765      28.7324    5760.2466 
  976500      976.487    396.34638    16.547868   -626.03916   -609.49129    21344.113    40193.954    52214.815   -28376.431      15.2149      13.1765      28.7324    5760.2466 
  977000      976.987    365.40393    15.255989   -624.74358   -609.48759    21518.383     47190.24    46246.674   -28881.766      15.2149      13.1765      28.7324    5760.2466 
  977500      977.487    376.43665    15.716617   -625.20111   -609.48449    20984.263    43505.157    55089.403   -35641.771      15.2149      13.1765      28.7324    5760.2466 
  978000      977.987    359.01231    14.989133   -624.46807   -609.47894    20936.328     41703.33    52736.571   -31630.916      15.2149      13.1765      28.7324    5760.2466 
  978500      978.487    367.72929    15.353075   -624.82896   -609.47588    21178.191    42568.266    49663.406     -28697.1      15.2149      13.1765      28.7324    5760.2466 
  979000      978.987    374.73865    15.645723   -625.11851   -609.47279    20451.393    42052.298    54997.081   -35695.199      15.2149      13.1765      28.7324    5760.2466 
  979500      979.487    366.29828    15.293329   -624.76223    -609.4689     21462.34    45541.389    52802.849   -33957.217      15.2149      13.1765      28.7324    5760.2466 
  980000      979.987    350.51443    14.634337   -624.09879   -609.46446    19858.284     44393.68    51904.723   -36723.553      15.2149      13.1765      28.7324    5760.2466 
  980500      980.487    373.97709    15.613928   -625.07571   -609.46179    21634.484    45056.068    54245.475   -34398.091      15.2149      13.1765      28.7324    5760.2466 
  981000      980.987    379.27234     15.83501    -625.2927   -609.45769    20403.437    42536.431    52579.245   -33905.365      15.2149      13.1765      28.7324    5760.2466 
  981500      981.487    409.26667    17.087304   -626.54274   -609.45544    19976.875    45102.467    50963.413   -36135.255      15.2149      13.1765      28.7324    5760.2466 
  982000      981.987     375.6407    15.683385   -625.13176   -609.44837     20753.96    40124.365    55572.688   -33435.172      15.2149      13.1765      28.7324    5760.2466 
  982500      982.487    372.72306     15.56157   -625.00444   -609.44287    19899.269    45571.696    54789.024   -40662.914      15.2149      13.1765      28.7324    5760.2466 
  983000      982.987    371.15808    15.496231   -624.93579   -609.43956    19977.507    47739.125    49722.959   -37529.563      15.2149      13.1765      28.7324    5760.2466 
  983500      983.487    355.11427    14.826385   -624.26213   -609.43574    20293.877    44603.079    52924.026   -36645.473      15.2149      13.1765      28.7324    5760.2466 
  984000      983.987    382.76671    15.980903   -625.41331    -609.4324    19768.795    44680.115    51027.622   -36401.353      15.2149      13.1765      28.7324    5760.2466 
  984500      984.487    360.98886    15.071656   -624.50029   -609.42863    21285.332    44933.995    50573.846   -31651.844      15.2149      13.1765      28.7324    5760.2466 
  985000      984.987    370.53862    15.470368   -624.89502   -609.42465    21643.872    47527.722    51506.534   -34102.638      15.2149      13.1765      28.7324    5760.2466 
  985500      985.487    361.34979    15.086725    -624.5049   -609.41818    20380.278    50902.669    48397.728   -38159.563      15.2149      13.1765      28.7324    5760.2466 
  986000      985.987    364.75783    15.229014   -624.64391   -609.41489    21982.184      47986.1    49397.657   -31437.207      15.2149      13.1765      28.7324    5760.2466 
  986500      986.487    376.12615    15.703653   -625.11521   -609.41156    23299.533    43978.703    53428.441   -27508.544      15.2149      13.1765      28.7324    5760.2466 
  987000      986.987    361.47439    15.091927   -624.49878   -609.40685    21518.766    42158.521    52349.083   -29951.305      15.2149      13.1765      28.7324    5760.2466 
  987500      987.487    357.96118    14.945247   -624.34881   -609.40356     20823.59     45478.72    50027.858   -33035.809      15.2149      13.1765      28.7324    5760.2466 
  988000      987.987      356.779     14.89589   -624.29289     -609.397    19693.957    44977.807     50235.38   -36131.317      15.2149      13.1765      28.7324    5760.2466 
  988500      988.487    377.30991    15.753076   -625.14725   -609.39417    19192.627    47533.178    56732.686   -46687.982      15.2149      13.1765      28.7324    5760.2466 
  989000      988.987    385.04783    16.076142    -625.4667   -609.39055    19325.842    41471.253    55543.504   -39037.231      15.2149      13.1765      28.7324    5760.2466 
  989500      989.487    369.64179    15.432924   -624.81672   -609.38379     21990.73    40436.995     52661.83   -27126.636      15.2149      13.1765      28.7324    5760.2466 
  990000      989.987    391.04902    16.326698    -625.7057     -609.379    22712.266    40584.724    55597.317   -28045.242      15.2149      13.1765      28.7324    5760.2466 
  990500      990.487    389.92365    16.279713   -625.65518   -609.37547    21266.253    44430.693    51600.049   -32231.983      15.2149      13.1765      28.7324    5760.2466 
  991000      990.987    382.98479    15.990008   -625.35952   -609.36951    21080.363    43802.068    51062.556   -31623.535      15.2149      13.1765      28.7324    5760.2466 
  991500      991.487    374.50509    15.635972   -625.00188   -609.36591    20180.708    39885.902    52151.309   -31495.088      15.2149      13.1765      28.7324    5760.2466 
  992000      991.987    370.23358    15.457632   -624.81847   -609.36084    19864.836    40138.224    52487.864   -33031.579      15.2149      13.1765      28.7324    5760.2466 
  992500      992.487    388.65483    16.226738   -625.58237   -609.35563    19972.745    42378.149    50323.852   -32783.768      15.2149      13.1765      28.7324    5760.2466 
  993000      992.987    397.92949    16.613965   -625.96684   -609.35287    19838.809    44597.917    48782.999   -33864.489      15.2149      13.1765      28.7324    5760.2466 
  993500      993.487    374.28451    15.626763   -624.97296   -609.34619    21525.386    41670.096    55465.543    -32559.48      15.2149      13.1765      28.7324    5760.2466 
  994000      993.987    390.56059    16.306306   -625.64909   -609.34278    20844.509    45083.867    49826.084   -32376.424      15.2149      13.1765      28.7324    5760.2466 
  994500      994.487    397.86552    16.611294   -625.94869    -609.3374    18426.559    42262.184    50840.779   -37823.286      15.2149      13.1765      28.7324    5760.2466 
  995000      994.987     384.1345     16.03801     -625.371   -609.33299    21781.791    42798.354    54199.418   -31652.398      15.2149      13.1765      28.7324    5760.2466 
  995500      995.487    393.70128    16.437433   -625.76588   -609.32844    21076.068    48010.625    54474.745   -39257.167      15.2149      13.1765      28.7324    5760.2466 
  996000      995.987    367.10759    15.327119   -624.64892    -609.3218    19473.996    44154.107    53094.101   -38826.221      15.2149      13.1765      28.7324    5760.2466 
  996500      996.487    375.44602    15.675257   -624.99307   -609.31781    20007.403    42571.827    53963.985   -36513.602      15.2149      13.1765      28.7324    5760.2466 
  997000      996.987    401.19562    16.750329   -626.06358   -609.31325    20853.044    46778.814    52948.799   -37168.482      15.2149      13.1765      28.7324    5760.2466 
  997500      997.487    395.70144    16.520942   -625.82894     -609.308    21800.784    44630.546    54218.031   -33446.225      15.2149      13.1765      28.7324    5760.2466 
  998000      997.987    371.24588    15.499897    -624.8011    -609.3012    19712.258    39755.559    58231.773    -38850.56      15.2149      13.1765      28.7324    5760.2466 
  998500      998.487    394.72062    16.479991    -625.7776   -609.29761    20597.347    43107.228    51757.561   -33072.748      15.2149      13.1765      28.7324    5760.2466 
  999000      998.987    381.13962    15.912971   -625.20389   -609.29092    20963.788    40788.157    54594.149   -32490.941      15.2149      13.1765      28.7324    5760.2466 
  999500      999.487    374.41889    15.632373   -624.91853   -609.28616     19299.44    42765.471    52147.188   -37014.338      15.2149      13.1765      28.7324    5760.2466 
 1000000      999.987    356.56277    14.886862   -624.16649   -609.27962    20960.233    43743.546     55804.89   -36667.738      15.2149      13.1765      28.7324    5760.2466 
 1000013         1000    382.70636    15.978384   -625.25884   -609.28046    20857.002    44477.404    54984.536   -36890.935      15.2149      13.1765      28.7324    5760.2466 
Loop time of 922.217 on 28 procs for 1000000 steps with 324 atoms

Performance: 93.687 ns/day, 0.256 hours/ns, 1084.344 timesteps/s
88.5% CPU use with 28 MPI tasks x no OpenMP threads

MPI task timing breakdown:
Section |  min time  |  avg time  |  max time  |%varavg| %total
---------------------------------------------------------------
Pair    | 721.91     | 794.64     | 852        | 126.6 | 86.17
Neigh   | 0          | 0          | 0          |   0.0 |  0.00
Comm    | 55.05      | 114.59     | 185.19     | 330.0 | 12.43
Output  | 0.099067   | 0.10142    | 0.1247     |   1.5 |  0.01
Modify  | 4.6841     | 7.8179     | 11.826     |  83.1 |  0.85
Other   |            | 5.069      |            |       |  0.55

Nlocal:    11.5714 ave 15 max 5 min
Histogram: 1 1 3 2 1 0 1 6 3 10
Nghost:    650.786 ave 709 max 606 min
Histogram: 5 4 3 0 2 5 5 0 1 3
Neighs:    724.929 ave 1032 max 319 min
Histogram: 1 4 1 2 0 6 5 3 3 3
FullNghs:  1449.86 ave 1925 max 642 min
Histogram: 2 2 2 2 0 1 5 3 6 5

Total # of neighbors = 40596
Ave neighs/atom = 125.296
Neighbor list builds = 0
Dangerous builds = 0

write_restart   POSCAR_1x1x1.rest

#unfix    1
#undump   1
Total wall time: 0:15:22
