LAMMPS (7 Dec 2015)
#----------- Initialize Simulation ------------ restart01
#processors	2 2 2
units		metal
boundary	p p p     ## periodic boundary condition  on x y z axis ##
atom_style atomic
#atom_modify map array sort 0 0.0

read_data	POSCAR_1x1x1.lammps
  triclinic box = (0 0 0) to (15.2149 13.1765 28.7324) with tilt (-7.60743 0 0)
  2 by 2 by 7 MPI processor grid
  reading atoms ...
  324 atoms

#----------- Define Potential -----------------
pair_style meam
pair_coeff * * MgAlZn.library.meam Mg Al Zn MgAlZn.parameter.meam Mg Al Zn 	#1=Mg 2=Al 3=Zn	#atoms/mass

#----------- Neighbor List --------------------
neighbor 2.0 bin
neigh_modify delay 10 check yes

#--------------  Run a simulation (minimization) ---------------------------------------
minimize       1.0e-4   1.0e-6   100   1000          #結構優化的條件
WARNING: Resetting reneighboring criteria during minimization (../min.cpp:168)
Neighbor list info ...
  2 neighbor list requests
  update every 1 steps, delay 0 steps, check yes
  max neighbors/atom: 2000, page size: 100000
  master list distance cutoff = 8
  ghost atom cutoff = 8
  binsize = 4 -> bins = 6 4 8
Memory usage per processor = 8.65166 Mbytes
Step Temp E_pair E_mol TotEng Press 
       0            0   -607.81959            0   -607.81959    16899.815 
      14            0   -623.07995            0   -623.07995    15362.175 
Loop time of 0.0251074 on 28 procs for 14 steps with 324 atoms

87.5% CPU use with 28 MPI tasks x no OpenMP threads

Minimization stats:
  Stopping criterion = energy tolerance
  Energy initial, next-to-last, final = 
        -607.819589685     -623.031087108     -623.079947252
  Force two-norm initial, final = 24.3393 1.35737
  Force max component initial, final = 4.27103 0.443688
  Final line search alpha, max atom move = 0.085243 0.0378213
  Iterations, force evaluations = 14 27

MPI task timing breakdown:
Section |  min time  |  avg time  |  max time  |%varavg| %total
---------------------------------------------------------------
Pair    | 0.020184   | 0.021291   | 0.022798   |   0.5 | 84.80
Neigh   | 0          | 0          | 0          |   0.0 |  0.00
Comm    | 0.0014388  | 0.0028573  | 0.0039892  |   1.4 | 11.38
Output  | 0          | 0          | 0          |   0.0 |  0.00
Modify  | 0          | 0          | 0          |   0.0 |  0.00
Other   |            | 0.000959   |            |       |  3.82

Nlocal:    11.5714 ave 15 max 7 min
Histogram: 2 2 2 4 0 3 5 3 1 6
Nghost:    656.75 ave 716 max 621 min
Histogram: 8 4 0 4 3 2 2 1 1 3
Neighs:    723.286 ave 985 max 430 min
Histogram: 2 2 3 3 2 5 2 4 1 4
FullNghs:  1446.57 ave 1888 max 873 min
Histogram: 2 2 2 4 1 2 5 3 1 6

Total # of neighbors = 40504
Ave neighs/atom = 125.012
Neighbor list builds = 0
Dangerous builds = 0
velocity all  create 393.0 4928459 #rot yes dist gaussian

#--------------  Run a simulation (Relaxation)  ----------------------------------------
fix  1  all  nvt   temp  393.0  393.0  100				#damping constant
#fix  2  all  npt   temp  393.0  393.0  50 iso 0.0 0.0 1000.0
#fix  2  all deform 1 x final 0 15.6906 y final 0 13.5884 z final 0 25.2339 xy final -7.8452 units lattice
#fix  3  all  npt   temp  393.0  393.0  50 z 0.0 0.0 1000.0

#variable b equal 1
#fix 2 all efield  0.0  0.0  v_b
#compute pot all pe/atom


#----------- Output --------------------------
thermo	 500
timestep  0.001		#1.0 fs
thermo_style	custom step time temp ke pe etotal press pxx pyy pzz lx ly lz vol

dump 1 all custom 10000 dump.eq id type x y z
dump_modify 1 sort  id

run        1000000	#10000	 ps
Neighbor list info ...
  2 neighbor list requests
  update every 1 steps, delay 10 steps, check yes
  max neighbors/atom: 2000, page size: 100000
  master list distance cutoff = 8
  ghost atom cutoff = 8
  binsize = 4 -> bins = 6 4 8
Memory usage per processor = 7.54214 Mbytes
Step Time Temp KinEng PotEng TotEng Press Pxx Pyy Pzz Lx Ly Lz Volume 
      14            0          393    16.408154   -623.07995   -606.67179    18404.725    33684.649    43891.336   -22361.811      15.2149      13.1765      28.7324    5760.2466 
     500        0.486    213.23324    8.9027068   -615.56776   -606.66505    18253.504    36530.175    44762.002   -26531.665      15.2149      13.1765      28.7324    5760.2466 
    1000        0.986    215.24496    8.9866979   -615.65172   -606.66502      16033.4    36348.773    46381.628   -34630.202      15.2149      13.1765      28.7324    5760.2466 
    1500        1.486    207.60052    8.6675349   -615.33138   -606.66384    16754.288    36399.736    48042.834   -34179.707      15.2149      13.1765      28.7324    5760.2466 
    2000        1.986     212.9717    8.8917873   -615.55518   -606.66339    16882.153     32712.62     46420.95   -28487.111      15.2149      13.1765      28.7324    5760.2466 
    2500        2.486    217.36908    9.0753822   -615.73767   -606.66229    18473.375    37773.113     50198.15   -32551.138      15.2149      13.1765      28.7324    5760.2466 
    3000        2.986    211.52094    8.8312165   -615.49268   -606.66146    17919.834    37259.576    48518.859   -32018.933      15.2149      13.1765      28.7324    5760.2466 
    3500        3.486    209.90206    8.7636265   -615.42376   -606.66014    16945.978    37695.307    46226.242   -33083.614      15.2149      13.1765      28.7324    5760.2466 
    4000        3.986    212.94148    8.8905255   -615.54869   -606.65816    19036.315    38548.313     49579.77   -31019.139      15.2149      13.1765      28.7324    5760.2466 
    4500        4.486    217.07182    9.0629712   -615.72022   -606.65724    18485.388    38090.876    48672.404   -31307.115      15.2149      13.1765      28.7324    5760.2466 
    5000        4.986    204.84752    8.5525942   -615.20755   -606.65495    17933.941    36790.881    48502.668   -31491.727      15.2149      13.1765      28.7324    5760.2466 
    5500        5.486    231.54571    9.6672713   -616.32096   -606.65369    16121.709      38125.5    47508.525   -37268.898      15.2149      13.1765      28.7324    5760.2466 
    6000        5.986    220.84459    9.2204883   -615.87158   -606.65109    17351.079    35719.273    48267.155   -31933.189      15.2149      13.1765      28.7324    5760.2466 
    6500        6.486    222.84546    9.3040268   -615.95227   -606.64824    16658.192    37938.446    46921.023   -34884.892      15.2149      13.1765      28.7324    5760.2466 
    7000        6.986    215.67231    9.0045402   -615.65065   -606.64611    18688.493    43052.052    49012.889   -35999.463      15.2149      13.1765      28.7324    5760.2466 
    7500        7.486    218.61659    9.1274669   -615.76998   -606.64251    17601.116    36626.854    48971.508   -32795.016      15.2149      13.1765      28.7324    5760.2466 
    8000        7.986    212.06017    8.8537298   -615.49268   -606.63895    18234.767    36427.368    50760.557   -32483.623      15.2149      13.1765      28.7324    5760.2466 
    8500        8.486    220.70091    9.2144895   -615.85069    -606.6362    18135.607    38146.936    51699.927   -35440.042      15.2149      13.1765      28.7324    5760.2466 
    9000        8.986    218.97622    9.1424819   -615.77477   -606.63228    18047.572    38059.632    53719.582   -37636.499      15.2149      13.1765      28.7324    5760.2466 
    9500        9.486    220.35071    9.1998684   -615.82808   -606.62821    18974.723    38206.622    51714.411   -32996.865      15.2149      13.1765      28.7324    5760.2466 
   10000        9.986    216.47948    9.0382404   -615.66241   -606.62417    17277.827    38165.365    53080.665   -39412.548      15.2149      13.1765      28.7324    5760.2466 
   10500       10.486    226.15158    9.4420608   -616.06231   -606.62025    17638.018    37798.501    50434.527   -35318.975      15.2149      13.1765      28.7324    5760.2466 
   11000       10.986    214.32082    8.9481141   -615.56358   -606.61547     18460.12    39772.777    49139.807   -33532.223      15.2149      13.1765      28.7324    5760.2466 
   11500       11.486     226.2683    9.4469339   -616.05935   -606.61242    17436.414    36558.927     49387.65   -33637.335      15.2149      13.1765      28.7324    5760.2466 
   12000       11.986    219.13951    9.1492998   -615.75629   -606.60699    17892.475     39275.14    50930.596    -36528.31      15.2149      13.1765      28.7324    5760.2466 
   12500       12.486    223.61278    9.3360631   -615.93798   -606.60192     18885.22    40086.793    52593.046   -36024.179      15.2149      13.1765      28.7324    5760.2466 
   13000       12.986    212.19471    8.8593472   -615.45575    -606.5964    18281.091    40070.001    48949.096   -34175.824      15.2149      13.1765      28.7324    5760.2466 
   13500       13.486    216.94679    9.0577511   -615.64883   -606.59108    16999.632    37564.503    50458.277   -37023.883      15.2149      13.1765      28.7324    5760.2466 
   14000       13.986    213.48403    8.9131775   -615.49756   -606.58438    18064.687    38042.999     48951.83   -32800.766      15.2149      13.1765      28.7324    5760.2466 
   14500       14.486     206.4658    8.6201592   -615.19917   -606.57901    21146.736    35599.129    55877.351   -28036.273      15.2149      13.1765      28.7324    5760.2466 
   15000       14.986    220.22472    9.1946081    -615.7682   -606.57359     20099.13    38696.448    53653.933   -32052.991      15.2149      13.1765      28.7324    5760.2466 
   15500       15.486    223.41024     9.327607   -615.89451    -606.5669    18681.605    37344.487    52938.819    -34238.49      15.2149      13.1765      28.7324    5760.2466 
   16000       15.986    226.31935    9.4490651   -616.01033   -606.56126    17198.045    36822.809    49286.572   -34515.245      15.2149      13.1765      28.7324    5760.2466 
   16500       16.486    224.30973    9.3651617   -615.91934   -606.55418    18630.844    38224.702    51803.967   -34136.136      15.2149      13.1765      28.7324    5760.2466 
   17000       16.986    224.57368    9.3761818   -615.92366   -606.54748     17800.03    35842.414    47816.798   -30259.123      15.2149      13.1765      28.7324    5760.2466 
   17500       17.486    217.03826    9.0615701    -615.6009   -606.53933    18344.445    37935.929     44809.79   -27712.383      15.2149      13.1765      28.7324    5760.2466 
   18000       17.986    222.50978    9.2900116   -615.82268   -606.53267     17164.69        38318    51172.754   -37996.685      15.2149      13.1765      28.7324    5760.2466 
   18500       18.486    222.79624    9.3019717   -615.82732   -606.52535    18217.113    35811.634    51150.337   -32310.632      15.2149      13.1765      28.7324    5760.2466 
   19000       18.986    223.60409    9.3357003   -615.85346   -606.51776    17692.938    38797.661    49992.296   -35711.143      15.2149      13.1765      28.7324    5760.2466 
   19500       19.486    226.05574    9.4380594   -615.94807   -606.51001    17326.828    38080.843     47794.59    -33894.95      15.2149      13.1765      28.7324    5760.2466 
   20000       19.986    221.09514    9.2309493   -615.73166   -606.50071    18277.559    36578.098    48422.405   -30167.827      15.2149      13.1765      28.7324    5760.2466 
   20500       20.486     225.9521    9.4337323   -615.92693    -606.4932    18990.713    36797.009    52138.487   -31963.358      15.2149      13.1765      28.7324    5760.2466 
   21000       20.986    214.63846    8.9613762   -615.44516   -606.48378    17864.945    38072.536     52117.35   -36595.051      15.2149      13.1765      28.7324    5760.2466 
   21500       21.486    216.18388     9.025899   -615.50131   -606.47541    16237.662    36273.152    46394.612   -33954.778      15.2149      13.1765      28.7324    5760.2466 
   22000       21.986    226.89586    9.4731351   -615.94074   -606.46761    20014.578    38073.633    51285.689   -29315.586      15.2149      13.1765      28.7324    5760.2466 
   22500       22.486    207.29043    8.6545882   -615.11204   -606.45745    16766.191     38331.78    45591.257   -33624.465      15.2149      13.1765      28.7324    5760.2466 
   23000       22.986    226.73208     9.466297   -615.91512   -606.44883    18723.256    41551.848    47780.874   -33162.953      15.2149      13.1765      28.7324    5760.2466 
   23500       23.486    230.13906     9.608542   -616.04759   -606.43905    17308.504    36314.233      49147.4   -33536.121      15.2149      13.1765      28.7324    5760.2466 
   24000       23.986    215.45582    8.9955019   -615.42527   -606.42977    18426.351    38907.972    46218.618   -29847.535      15.2149      13.1765      28.7324    5760.2466 
   24500       24.486    232.37365    9.7018384   -616.12316   -606.42132    18712.434     37517.19     52006.06   -33385.947      15.2149      13.1765      28.7324    5760.2466 
   25000       24.986    215.41521    8.9938064   -615.40354   -606.40974    18586.306    39850.179    48832.189   -32923.449      15.2149      13.1765      28.7324    5760.2466 
   25500       25.486    236.68411    9.8818046   -616.28312   -606.40132    18299.386      36838.1    51028.254   -32968.196      15.2149      13.1765      28.7324    5760.2466 
   26000       25.986    230.57082    9.6265684   -616.01693   -606.39036    16946.956    37009.594    50974.206   -37142.933      15.2149      13.1765      28.7324    5760.2466 
   26500       26.486    221.11141    9.2316285   -615.61088   -606.37925    16920.548    37790.716    54326.844   -41355.917      15.2149      13.1765      28.7324    5760.2466 
   27000       26.986    223.24221    9.3205914   -615.68955   -606.36896    18239.735    36554.399    54950.215    -36785.41      15.2149      13.1765      28.7324    5760.2466 
   27500       27.486    226.48759    9.4560896   -615.81502   -606.35893    18123.915    39855.244    48091.577   -33575.075      15.2149      13.1765      28.7324    5760.2466 
   28000       27.986     225.6519    9.4211984   -615.76878   -606.34758    19815.576    38157.173    50136.543   -28846.988      15.2149      13.1765      28.7324    5760.2466 
   28500       28.486    228.37962    9.5350837    -615.8723   -606.33722    17367.779    38437.727    49480.501   -35814.892      15.2149      13.1765      28.7324    5760.2466 
   29000       28.986    220.35214     9.199928   -615.52493     -606.325    17758.552     36288.37    50581.214   -33593.928      15.2149      13.1765      28.7324    5760.2466 
   29500       29.486    215.14974    8.9827227   -615.29618   -606.31346    17851.171    40259.979    49779.599   -36486.066      15.2149      13.1765      28.7324    5760.2466 
   30000       29.986    226.49697    9.4564812   -615.75905   -606.30257    18209.184    37387.049    52943.683   -35703.182      15.2149      13.1765      28.7324    5760.2466 
   30500       30.486     224.7375    9.3830214   -615.67405   -606.29103    17983.654    38241.334    49204.587    -33494.96      15.2149      13.1765      28.7324    5760.2466 
   31000       30.986    232.22544    9.6956506    -615.9749   -606.27925    18395.959    37600.626    55014.588   -37427.338      15.2149      13.1765      28.7324    5760.2466 
   31500       31.486    229.42572    9.5787596   -615.84543   -606.26667    18256.813    34610.265    53429.368   -33269.195      15.2149      13.1765      28.7324    5760.2466 
   32000       31.986    238.38782    9.9529363   -616.20884    -606.2559    18986.331     40329.54    49953.009   -33323.557      15.2149      13.1765      28.7324    5760.2466 
   32500       32.486    221.83141     9.261689   -615.50424   -606.24256    17304.212    39403.211    49875.195    -37365.77      15.2149      13.1765      28.7324    5760.2466 
   33000       32.986    243.28633    10.157454   -616.38941   -606.23195    18035.694    39499.339    51351.884    -36744.14      15.2149      13.1765      28.7324    5760.2466 
   33500       33.486    234.33559    9.7837517   -616.00305    -606.2193    17624.122     37215.78    51871.093   -36214.506      15.2149      13.1765      28.7324    5760.2466 
   34000       33.986    230.77581    9.6351269    -615.8412   -606.20607    17903.831    37845.674    51597.683   -35731.863      15.2149      13.1765      28.7324    5760.2466 
   34500       34.486    227.51395    9.4989409     -615.693   -606.19406    18127.104    38097.641    48410.329   -32126.658      15.2149      13.1765      28.7324    5760.2466 
   35000       34.986    227.77504    9.5098418   -615.69161   -606.18177    17173.941    33872.253     51356.99   -33707.419      15.2149      13.1765      28.7324    5760.2466 
   35500       35.486    225.79893    9.4273372   -615.59525   -606.16792    18278.219    34312.201    54901.136   -34378.679      15.2149      13.1765      28.7324    5760.2466 
   36000       35.986    220.67642    9.2134669   -615.36878   -606.15531    18872.623    37657.273    54404.963   -35444.367      15.2149      13.1765      28.7324    5760.2466 
   36500       36.486    225.23124    9.4036355   -615.54616   -606.14252    17859.196     38920.02    48762.847   -34105.279      15.2149      13.1765      28.7324    5760.2466 
   37000       36.986    231.89385    9.6818062   -615.81202   -606.13021    17939.457    38180.743    44070.333   -28432.705      15.2149      13.1765      28.7324    5760.2466 
   37500       37.486    231.15047    9.6507693   -615.76794   -606.11717    16827.648     38587.71    47627.603   -35732.368      15.2149      13.1765      28.7324    5760.2466 
   38000       37.986    239.99366    10.019982   -616.12487   -606.10489    18654.479    36653.282    52093.936   -32783.781      15.2149      13.1765      28.7324    5760.2466 
   38500       38.486    229.11139     9.565636   -615.65714   -606.09151    18636.326    38047.357     52314.75   -34453.128      15.2149      13.1765      28.7324    5760.2466 
   39000       38.986    227.79068     9.510495   -615.59024   -606.07974    17536.659     36569.38    50437.562   -34396.966      15.2149      13.1765      28.7324    5760.2466 
   39500       39.486    232.44304    9.7047354   -615.76999   -606.06525     16260.38    37456.411    49095.045   -37770.317      15.2149      13.1765      28.7324    5760.2466 
   40000       39.986    224.06234    9.3548329   -615.40734   -606.05251    17827.026    38121.944    49459.412   -34100.278      15.2149      13.1765      28.7324    5760.2466 
   40500       40.486    229.86909    9.5972706   -615.63685   -606.03958    18020.645    40320.806     47962.26   -34221.132      15.2149      13.1765      28.7324    5760.2466 
   41000       40.986    233.14335    9.7339741   -615.76059   -606.02662    19282.466    40345.672    46602.997   -29101.271      15.2149      13.1765      28.7324    5760.2466 
   41500       41.486    231.89165    9.6817144   -615.69557   -606.01386    18885.418    37721.078    49669.696    -30734.52      15.2149      13.1765      28.7324    5760.2466 
   42000       41.986    224.52228    9.3740359   -615.37513   -606.00109    18223.598     36150.44    46779.265   -28258.912      15.2149      13.1765      28.7324    5760.2466 
   42500       42.486    221.07826    9.2302445   -615.21696   -605.98672    17654.416     37198.19    49770.184   -34005.127      15.2149      13.1765      28.7324    5760.2466 
   43000       42.986    223.39894    9.3271351   -615.30155   -605.97442    17243.179     36452.12    50231.932   -34954.515      15.2149      13.1765      28.7324    5760.2466 
   43500       43.486    233.65573    9.7553665   -615.71725   -605.96188    17081.215    37811.304    49636.757   -36204.415      15.2149      13.1765      28.7324    5760.2466 
   44000       43.986     219.9653    9.1837772   -615.13225   -605.94847    17271.682    38331.773    48808.462   -35325.188      15.2149      13.1765      28.7324    5760.2466 
   44500       44.486    228.54008    9.5417832   -615.47678     -605.935    18650.313    35596.227    53124.297   -32769.583      15.2149      13.1765      28.7324    5760.2466 
   45000       44.986    224.77682    9.3846629   -615.30663   -605.92196    18096.081    39682.149    50644.851   -36038.755      15.2149      13.1765      28.7324    5760.2466 
   45500       45.486    229.67269    9.5890707   -615.49857    -605.9095    16733.185    38875.583     44787.31    -33463.34      15.2149      13.1765      28.7324    5760.2466 
   46000       45.986    222.26699    9.2798751   -615.17607    -605.8962    18105.046    39245.652    51321.774   -36252.288      15.2149      13.1765      28.7324    5760.2466 
   46500       46.486     234.1572    9.7763037    -615.6602    -605.8839    18422.173    37121.606    52573.625   -34428.712      15.2149      13.1765      28.7324    5760.2466 
   47000       46.986    234.50336     9.790756   -615.66134   -605.87059    16189.351     37432.86    50023.171   -38887.977      15.2149      13.1765      28.7324    5760.2466 
   47500       47.486    223.33149    9.3243189   -615.18148   -605.85716    18069.957    37760.749    48972.418   -32523.296      15.2149      13.1765      28.7324    5760.2466 
   48000       47.986     231.9984    9.6861716   -615.53051   -605.84434    19183.664    36904.155    49982.628   -29335.791      15.2149      13.1765      28.7324    5760.2466 
   48500       48.486     219.5783    9.1676196   -614.99847   -605.83085    17428.713    36365.581    50381.043   -34460.486      15.2149      13.1765      28.7324    5760.2466 
   49000       48.986    245.51637    10.250561   -616.07012   -605.81956    18283.378    37470.535    50380.138   -33000.538      15.2149      13.1765      28.7324    5760.2466 
   49500       49.486    238.05049    9.9388525   -615.74582   -605.80697     17677.02    39089.869     48479.31   -34538.121      15.2149      13.1765      28.7324    5760.2466 
   50000       49.986    218.99592    9.1433047   -614.93677   -605.79346    17770.728    38162.035    53017.125   -37866.976      15.2149      13.1765      28.7324    5760.2466 
   50500       50.486    226.00224    9.4358257   -615.21712   -605.78129    18341.033    38498.294    48807.239   -32282.433      15.2149      13.1765      28.7324    5760.2466 
   51000       50.986    223.42743    9.3283247   -615.09757   -605.76925    17737.052    39899.341    48653.677   -35341.863      15.2149      13.1765      28.7324    5760.2466 
   51500       51.486    227.86719    9.5136892   -615.27005   -605.75636    18742.381    35682.058    54050.713   -33505.629      15.2149      13.1765      28.7324    5760.2466 
   52000       51.986    228.70204    9.5485449    -615.2928   -605.74425    17408.123    40053.217    46797.704    -34626.55      15.2149      13.1765      28.7324    5760.2466 
   52500       52.486     236.7161    9.8831402   -615.61544    -605.7323    17330.825    37869.037    51305.239   -37181.801      15.2149      13.1765      28.7324    5760.2466 
   53000       52.986    232.56163    9.7096869   -615.42966   -605.71997     18353.25    38279.589    48379.979   -31599.819      15.2149      13.1765      28.7324    5760.2466 
   53500       53.486    228.87793    9.5558886   -615.26347   -605.70758    18078.109    40213.023    48254.714    -34233.41      15.2149      13.1765      28.7324    5760.2466 
   54000       53.986    213.95279    8.9327485   -614.62772   -605.69497    17576.702    38628.428    50661.322   -36559.643      15.2149      13.1765      28.7324    5760.2466 
   54500       54.486    247.70033    10.341743   -616.02651   -605.68476    18652.721    40648.588    50572.088   -35262.514      15.2149      13.1765      28.7324    5760.2466 
   55000       54.986    241.80476    10.095597   -615.76854   -605.67294    17988.784     38853.16    50417.214   -35304.023      15.2149      13.1765      28.7324    5760.2466 
   55500       55.486    232.63657    9.7128155   -615.37275   -605.65993     19228.19    38263.993    52441.974   -33021.398      15.2149      13.1765      28.7324    5760.2466 
   56000       55.986    230.89193    9.6399753   -615.28807    -605.6481    17566.659    39866.555    52483.739   -39650.318      15.2149      13.1765      28.7324    5760.2466 
   56500       56.486     237.8305    9.9296674   -615.56735   -605.63768    17794.078    41197.428    49259.134   -37074.328      15.2149      13.1765      28.7324    5760.2466 
   57000       56.986     224.8922    9.3894802   -615.01495   -605.62547    16845.391    38353.579    46805.211   -34622.618      15.2149      13.1765      28.7324    5760.2466 
   57500       57.486    229.26488    9.5720442   -615.18519   -605.61315     17836.79    40187.699    47703.894   -34381.223      15.2149      13.1765      28.7324    5760.2466 
   58000       57.986    234.76671    9.8017514   -615.40481   -605.60306    18321.056    35540.689    50934.605   -31512.128      15.2149      13.1765      28.7324    5760.2466 
   58500       58.486    227.43573    9.4956753   -615.08675   -605.59107    18035.217    39953.195    52131.908   -37979.452      15.2149      13.1765      28.7324    5760.2466 
   59000       58.986      233.977    9.7687801   -615.34845   -605.57967    18370.878    37920.911     48862.45   -31670.728      15.2149      13.1765      28.7324    5760.2466 
   59500       59.486    234.40088    9.7864776    -615.3552   -605.56873    17259.181    37522.262    49954.582   -35699.301      15.2149      13.1765      28.7324    5760.2466 
   60000       59.986    225.22195    9.4032475   -614.95957   -605.55632    18795.742    38766.682    55053.873   -37433.328      15.2149      13.1765      28.7324    5760.2466 
   60500       60.486    237.51362    9.9164377   -615.46278   -605.54635    19143.295    37186.796    53405.742   -33162.654      15.2149      13.1765      28.7324    5760.2466 
   61000       60.986    232.79221    9.7193139   -615.25335   -605.53404    17647.591    32104.083    49402.852   -28564.161      15.2149      13.1765      28.7324    5760.2466 
   61500       61.486     245.3088    10.241894     -615.765    -605.5231    17993.429    38136.641    47616.222   -31772.575      15.2149      13.1765      28.7324    5760.2466 
   62000       61.986    239.18268    9.9861226   -615.49958   -605.51346      18312.3    38465.682    50353.315   -33882.098      15.2149      13.1765      28.7324    5760.2466 
   62500       62.486    236.74369    9.8842922   -615.38621   -605.50191    19473.513    39963.833    50595.545   -32138.838      15.2149      13.1765      28.7324    5760.2466 
   63000       62.986    231.75059    9.6758252    -615.1663   -605.49048      16677.6    41378.704    45364.831   -36710.736      15.2149      13.1765      28.7324    5760.2466 
   63500       63.486     229.1905    9.5689388   -615.04903   -605.48009    19250.611    38384.165    49429.186   -30061.517      15.2149      13.1765      28.7324    5760.2466 
   64000       63.986     233.8443    9.7632396   -615.23216   -605.46892    17321.323    38833.354     49814.51   -36683.895      15.2149      13.1765      28.7324    5760.2466 
   64500       64.486    239.75924    10.010194   -615.46837   -605.45818    16494.339    36523.304    52184.096   -39224.384      15.2149      13.1765      28.7324    5760.2466 
   65000       64.986    237.88871    9.9320979   -615.37918   -605.44708     19037.97    38907.172    50131.427   -31924.689      15.2149      13.1765      28.7324    5760.2466 
   65500       65.486    250.44864    10.456488   -615.89292   -605.43643    18713.616    38099.562    49974.535   -31933.248      15.2149      13.1765      28.7324    5760.2466 
   66000       65.986    236.13975    9.8590771   -615.28521   -605.42614    19637.696    36772.666    49247.012   -27106.591      15.2149      13.1765      28.7324    5760.2466 
   66500       66.486    234.56456    9.7933111   -615.20801    -605.4147    17313.784    37737.551    52092.335   -37888.533      15.2149      13.1765      28.7324    5760.2466 
   67000       66.986    243.35778    10.160437   -615.56496   -605.40452    18282.565    37154.556    48318.626   -30625.486      15.2149      13.1765      28.7324    5760.2466 
   67500       67.486    226.95908    9.4757748   -614.86824   -605.39246    17582.531    35476.057    47935.371   -30663.836      15.2149      13.1765      28.7324    5760.2466 
   68000       67.986    243.36365    10.160682   -615.54353   -605.38285    17044.299     38328.63    47823.331   -35019.065      15.2149      13.1765      28.7324    5760.2466 
   68500       68.486    244.26197    10.198188   -615.57062   -605.37244    17815.533    35593.191    52882.217   -35028.808      15.2149      13.1765      28.7324    5760.2466 
   69000       68.986    232.16804    9.6932542   -615.05429   -605.36104    17306.394    41445.164    49450.603   -38976.586      15.2149      13.1765      28.7324    5760.2466 
   69500       69.486    234.79005    9.8027255   -615.15368   -605.35096    16940.216    39405.676    48366.425   -36951.454      15.2149      13.1765      28.7324    5760.2466 
   70000       69.986    240.84974    10.055724   -615.39628   -605.34056    17432.477    36437.144     47807.32   -31947.034      15.2149      13.1765      28.7324    5760.2466 
   70500       70.486      247.048    10.314508   -615.64469   -605.33018    17704.592    38785.913    50870.482   -36542.619      15.2149      13.1765      28.7324    5760.2466 
   71000       70.986    243.71514    10.175357   -615.49484   -605.31948    17917.477    39732.756    52588.551   -38568.877      15.2149      13.1765      28.7324    5760.2466 
   71500       71.486    234.40926    9.7868273   -615.09481   -605.30798    17119.371    37060.687    47779.215    -33481.79      15.2149      13.1765      28.7324    5760.2466 
   72000       71.986    231.50963    9.6657647   -614.96388   -605.29811    17564.265    40579.375    48815.955   -36702.536      15.2149      13.1765      28.7324    5760.2466 
   72500       72.486    238.21535    9.9457355   -615.23344    -605.2877     17793.46    37398.434    50077.969   -34096.023      15.2149      13.1765      28.7324    5760.2466 
   73000       72.986    234.33447    9.7837046   -615.06047   -605.27676    17820.301    35259.661    50970.147   -32768.904      15.2149      13.1765      28.7324    5760.2466 
   73500       73.486    237.28116    9.9067319   -615.17302   -605.26629    18674.897    35553.994    51275.487   -30804.791      15.2149      13.1765      28.7324    5760.2466 
   74000       73.986    251.80151    10.512972   -615.76873   -605.25575    17568.928     39415.06    48981.045   -35689.322      15.2149      13.1765      28.7324    5760.2466 
   74500       74.486    242.07561    10.106905   -615.35192   -605.24501    17530.998     40396.54    51263.113   -39066.661      15.2149      13.1765      28.7324    5760.2466 
   75000       74.986    233.75297    9.7594267   -614.99207   -605.23264    17604.543    36901.047     50519.27   -34606.689      15.2149      13.1765      28.7324    5760.2466 
   75500       75.486    245.15413    10.235436   -615.45818   -605.22274    18050.584    39509.825    48382.276   -33740.348      15.2149      13.1765      28.7324    5760.2466 
   76000       75.986    225.16262    9.4007704   -614.61212   -605.21135    18461.555    37220.188     52620.64   -34456.162      15.2149      13.1765      28.7324    5760.2466 
   76500       76.486    244.54404    10.209965   -615.41193   -605.20196    17740.032     35691.97    53615.152   -36087.027      15.2149      13.1765      28.7324    5760.2466 
   77000       76.986    242.69119    10.132606   -615.32371   -605.19111    18964.703    40175.962    49410.549   -32692.402      15.2149      13.1765      28.7324    5760.2466 
   77500       77.486    241.31701    10.075233    -615.2543   -605.17906    17756.036    37142.412    48852.116    -32726.42      15.2149      13.1765      28.7324    5760.2466 
   78000       77.986    231.94162     9.683801   -614.85322   -605.16942    17161.337    38286.581    51370.049   -38172.618      15.2149      13.1765      28.7324    5760.2466 
   78500       78.486    242.92883    10.142528   -615.30064   -605.15811     17535.05    38478.088    46982.765   -32855.705      15.2149      13.1765      28.7324    5760.2466 
   79000       78.986    231.11976    9.6494875   -614.79601   -605.14652    17777.823     37432.17    51948.948   -36047.647      15.2149      13.1765      28.7324    5760.2466 
   79500       79.486    239.25473    9.9891308   -615.12617   -605.13704    18395.264    37883.235    54016.217    -36713.66      15.2149      13.1765      28.7324    5760.2466 
   80000       79.986    241.72804    10.092394   -615.21804   -605.12564     17510.07    36304.939    50290.635   -34065.364      15.2149      13.1765      28.7324    5760.2466 
   80500       80.486    243.00323    10.145634   -615.26004   -605.11441    18053.681    38976.505    50458.674   -35274.136      15.2149      13.1765      28.7324    5760.2466 
   81000       80.986    236.44368    9.8717665   -614.97511   -605.10335    18523.153    36223.813    51720.932   -32375.287      15.2149      13.1765      28.7324    5760.2466 
   81500       81.486    233.55578    9.7511938   -614.84271   -605.09152    19348.957    37957.851    51457.589   -31368.569      15.2149      13.1765      28.7324    5760.2466 
   82000       81.986    240.89739    10.057713   -615.13863   -605.08091    17702.272    37305.719     53065.01   -37263.912      15.2149      13.1765      28.7324    5760.2466 
   82500       82.486    245.70855    10.258584   -615.32821   -605.06962    18546.155    39915.572    50749.463   -35026.571      15.2149      13.1765      28.7324    5760.2466 
   83000       82.986    231.19203    9.6525045   -614.71052   -605.05801    18407.493    38558.189    49570.635   -32906.345      15.2149      13.1765      28.7324    5760.2466 
   83500       83.486    238.81148    9.9706244   -615.01667   -605.04604    17564.644    37700.502    54554.252   -39560.822      15.2149      13.1765      28.7324    5760.2466 
   84000       83.986    244.33119    10.201078   -615.23603   -605.03495    18165.687    40440.096    53414.957   -39357.992      15.2149      13.1765      28.7324    5760.2466 
   84500       84.486    235.78406    9.8442266    -614.8666   -605.02238     18075.99    38532.724    54359.035   -38663.789      15.2149      13.1765      28.7324    5760.2466 
   85000       84.986    222.50024    9.2896134    -614.3006   -605.01098     17133.27    38916.801    48655.704   -36172.696      15.2149      13.1765      28.7324    5760.2466 
   85500       85.486    257.23327    10.739753    -615.7411   -605.00135    17933.839    38721.204    52611.495   -37531.182      15.2149      13.1765      28.7324    5760.2466 
   86000       85.986    242.94073    10.143025    -615.1321   -604.98907    17453.084    36866.107    55291.575   -39798.429      15.2149      13.1765      28.7324    5760.2466 
   86500       86.486    234.71064    9.7994103   -614.77626   -604.97685    17785.137    38194.813    51073.631   -35913.032      15.2149      13.1765      28.7324    5760.2466 
   87000       86.986    235.28164    9.8232502   -614.78859   -604.96534    17318.866    39030.578    50595.103   -37669.083      15.2149      13.1765      28.7324    5760.2466 
   87500       87.486    235.59973    9.8365307   -614.78958   -604.95305    18132.087    38841.384    49682.449   -34127.572      15.2149      13.1765      28.7324    5760.2466 
   88000       87.986    253.62679    10.589179   -615.53146   -604.94228    17771.519    40119.097    51232.052   -38036.591      15.2149      13.1765      28.7324    5760.2466 
   88500       88.486    241.59086    10.086666   -615.01649   -604.92983    18026.006     36627.15     54962.07   -37511.201      15.2149      13.1765      28.7324    5760.2466 
   89000       88.986    241.13537    10.067649   -614.98525    -604.9176     18052.48    38015.706    49308.112   -33166.377      15.2149      13.1765      28.7324    5760.2466 
   89500       89.486     232.2728    9.6976279   -614.60354   -604.90591    17476.008    37138.162    48732.309   -33442.449      15.2149      13.1765      28.7324    5760.2466 
   90000       89.986    249.78408    10.428742   -615.32322   -604.89448    18984.627    39688.194    50673.617    -33407.93      15.2149      13.1765      28.7324    5760.2466 
   90500       90.486    246.51735    10.292352    -615.1753   -604.88295    16150.572    34954.028    51430.925   -37933.236      15.2149      13.1765      28.7324    5760.2466 
   91000       90.986    243.24128    10.155573   -615.02582   -604.87025    18345.658     39088.12    49801.291   -33852.437      15.2149      13.1765      28.7324    5760.2466 
   91500       91.486    250.51921    10.459434   -615.31853    -604.8591    18524.594    37479.957    50472.631   -32378.805      15.2149      13.1765      28.7324    5760.2466 
   92000       91.986    241.17657     10.06937   -614.91517    -604.8458    16982.359    40874.276    47802.125   -37729.324      15.2149      13.1765      28.7324    5760.2466 
   92500       92.486     249.1507    10.402298   -615.23717   -604.83487    17841.256    36887.244    49959.218   -33322.695      15.2149      13.1765      28.7324    5760.2466 
   93000       92.986    256.95782    10.728253   -615.54976   -604.82151    18070.447    38267.719    52904.134   -36960.513      15.2149      13.1765      28.7324    5760.2466 
   93500       93.486    254.86119    10.640716   -615.45037   -604.80965    19258.556    40014.143    50582.258   -32820.732      15.2149      13.1765      28.7324    5760.2466 
   94000       93.986    253.12996    10.568436   -615.36535   -604.79691    18833.054    37891.968    50273.051   -31665.856      15.2149      13.1765      28.7324    5760.2466 
   94500       94.486    243.77801    10.177982   -614.96211   -604.78412    17978.824    39043.838    52735.374   -37842.739      15.2149      13.1765      28.7324    5760.2466 
   95000       94.986    237.83806    9.9299833    -614.7016   -604.77162    17816.013     34514.08    52029.716   -33095.757      15.2149      13.1765      28.7324    5760.2466 
   95500       95.486     252.1783    10.528703   -615.28862   -604.75992    18154.941    36944.056    48702.909   -31182.143      15.2149      13.1765      28.7324    5760.2466 
   96000       95.986    245.28201    10.240776   -614.98719   -604.74641    18062.125     39510.05    51172.551   -36496.226      15.2149      13.1765      28.7324    5760.2466 
   96500       96.486    244.53268     10.20949    -614.9427   -604.73321    18608.605    36681.147    53673.484   -34528.818      15.2149      13.1765      28.7324    5760.2466 
   97000       96.986    242.77789    10.136226   -614.85651   -604.72029    16788.285    39049.129    51646.414   -40330.689      15.2149      13.1765      28.7324    5760.2466 
   97500       97.486    242.33205    10.117612   -614.82549   -604.70788    19328.297    38754.639    51674.672   -32444.419      15.2149      13.1765      28.7324    5760.2466 
   98000       97.986    246.83727    10.305709         -615   -604.69429    16309.074    39428.658    47143.455   -37644.893      15.2149      13.1765      28.7324    5760.2466 
   98500       98.486    241.44249    10.080472   -614.76245   -604.68198    19329.177    36808.126    52670.117   -31490.713      15.2149      13.1765      28.7324    5760.2466 
   99000       98.986    248.27253    10.365633   -615.03458   -604.66895     18490.92    39589.245    47284.407    -31400.89      15.2149      13.1765      28.7324    5760.2466 
   99500       99.486    240.40473    10.037144   -614.69227   -604.65512    16020.161     38991.03    46573.787   -37504.335      15.2149      13.1765      28.7324    5760.2466 
  100000       99.986    257.08117    10.733403   -615.37616   -604.64276    18831.506    37975.628    51221.862   -32702.972      15.2149      13.1765      28.7324    5760.2466 
  100500      100.486    234.66632    9.7975597   -614.42613   -604.62857    17665.282    39851.672     49088.79   -35944.615      15.2149      13.1765      28.7324    5760.2466 
  101000      100.986     245.8847    10.265939   -614.88137   -604.61543    17499.216     39958.35    51597.543   -39058.245      15.2149      13.1765      28.7324    5760.2466 
  101500      101.486    244.15813    10.193853   -614.79602   -604.60217    19241.362    39891.394    55088.165   -37255.474      15.2149      13.1765      28.7324    5760.2466 
  102000      101.986    252.28203    10.533034   -615.12227   -604.58924    16987.941    37383.267    51241.269   -37660.713      15.2149      13.1765      28.7324    5760.2466 
  102500      102.486    239.24055    9.9885385   -614.56392   -604.57538    19989.521    38185.648    53082.081   -31299.168      15.2149      13.1765      28.7324    5760.2466 
  103000      102.986    255.26028    10.657379   -615.21939   -604.56201    17538.103    36879.587    48460.902   -32726.182      15.2149      13.1765      28.7324    5760.2466 
  103500      103.486    258.18153    10.779344   -615.32851   -604.54917    18711.855    40937.332    53161.276   -37963.043      15.2149      13.1765      28.7324    5760.2466 
  104000      103.986    241.49705     10.08275   -614.61801   -604.53526    19388.175    37324.828      55987.2   -35147.502      15.2149      13.1765      28.7324    5760.2466 
  104500      104.486    259.99113    10.854897   -615.37672   -604.52182    18523.684    35655.824    55768.007   -35852.779      15.2149      13.1765      28.7324    5760.2466 
  105000      104.986    252.32742    10.534929   -615.04361   -604.50868     18932.11    40832.592    46907.874   -30944.135      15.2149      13.1765      28.7324    5760.2466 
  105500      105.486    242.47045     10.12339   -614.61793   -604.49454    19402.682    36457.668    51461.991   -29711.612      15.2149      13.1765      28.7324    5760.2466 
  106000      105.986    249.77593    10.428401   -614.90915   -604.48075    19843.664    34412.573    53859.636   -28741.218      15.2149      13.1765      28.7324    5760.2466 
  106500      106.486    251.09603    10.483517   -614.95066   -604.46714    19537.299    36635.046     52257.72    -30280.87      15.2149      13.1765      28.7324    5760.2466 
  107000      106.986    240.22447    10.029618   -614.48226   -604.45264    18721.947    38520.122    52970.138    -35324.42      15.2149      13.1765      28.7324    5760.2466 
  107500      107.486    250.67854    10.466086   -614.90649    -604.4404    18312.474    38198.932     52435.49   -35697.001      15.2149      13.1765      28.7324    5760.2466 
  108000      107.986    253.90116    10.600634   -615.02639   -604.42576    18088.596    38292.067    50969.906   -34996.184      15.2149      13.1765      28.7324    5760.2466 
  108500      108.486    262.90928    10.976732   -615.38905   -604.41231    19186.615    39327.744    51445.391    -33213.29      15.2149      13.1765      28.7324    5760.2466 
  109000      108.986    242.32362     10.11726   -614.51483   -604.39757    18681.828    38233.454    50492.821   -32680.793      15.2149      13.1765      28.7324    5760.2466 
  109500      109.486    251.73786    10.510314   -614.89422   -604.38391    16496.558    36879.484    52052.827   -39442.636      15.2149      13.1765      28.7324    5760.2466 
  110000      109.986    254.05206    10.606934    -614.9766   -604.36966    18631.876    38531.627    49541.708   -32177.708      15.2149      13.1765      28.7324    5760.2466 
  110500      110.486    252.27141     10.53259   -614.88855   -604.35596    18612.353    38706.397    48555.966   -31425.305      15.2149      13.1765      28.7324    5760.2466 
  111000      110.986    245.94621    10.268507   -614.60987   -604.34136    17698.164     38956.73    51917.156   -37779.393      15.2149      13.1765      28.7324    5760.2466 
  111500      111.486    243.18595    10.153263   -614.47923   -604.32596    18080.051    41432.612    50718.194   -37910.654      15.2149      13.1765      28.7324    5760.2466 
  112000      111.986    254.09375    10.608675   -614.92183   -604.31315    17825.528    39847.521    50954.725   -37325.662      15.2149      13.1765      28.7324    5760.2466 
  112500      112.486     247.8482    10.347917   -614.64609   -604.29818    18415.213    39511.566    51233.512   -35499.438      15.2149      13.1765      28.7324    5760.2466 
  113000      112.986     259.3287    10.827239   -615.11169   -604.28445    18802.345    36582.737    49723.756   -29899.457      15.2149      13.1765      28.7324    5760.2466 
  113500      113.486    250.71725    10.467703   -614.73726   -604.26955    18320.529    37468.099    52388.504   -34895.016      15.2149      13.1765      28.7324    5760.2466 
  114000      113.986    255.01057    10.646953   -614.90195   -604.25499     19477.43    38615.216    57900.678   -38083.603      15.2149      13.1765      28.7324    5760.2466 
  114500      114.486    257.64164    10.756803   -614.99759   -604.24079    16573.829    38109.218    48866.094   -37253.825      15.2149      13.1765      28.7324    5760.2466 
  115000      114.986    239.55734    10.001765   -614.22703   -604.22527    17352.707    37992.139    52133.559   -38067.578      15.2149      13.1765      28.7324    5760.2466 
  115500      115.486    259.01997     10.81435   -615.02679   -604.21244    19414.371    38452.483    49303.573   -29512.945      15.2149      13.1765      28.7324    5760.2466 
  116000      115.986    254.23017    10.614371   -614.81159   -604.19722    17811.539    40561.334    48690.508   -35817.226      15.2149      13.1765      28.7324    5760.2466 
  116500      116.486    250.57987    10.461967   -614.64406   -604.18209    18416.037    42749.916    49104.069   -36605.874      15.2149      13.1765      28.7324    5760.2466 
  117000      116.986    244.57531     10.21127   -614.37787    -604.1666    20274.112    38799.451    53401.864    -31378.98      15.2149      13.1765      28.7324    5760.2466 
  117500      117.486    247.91621    10.350756    -614.5031   -604.15235    19109.156    37354.987      52545.1   -32572.619      15.2149      13.1765      28.7324    5760.2466 
  118000      117.986     250.7779    10.470235   -614.60767   -604.13743    17812.669    40661.066    51427.571   -38650.631      15.2149      13.1765      28.7324    5760.2466 
  118500      118.486    264.62674    11.048438    -615.1712   -604.12277    17524.786    39705.971     50861.28   -37992.893      15.2149      13.1765      28.7324    5760.2466 
  119000      118.986    259.41596    10.830883   -614.93909   -604.10821    19540.105    37361.629    53061.284   -31802.599      15.2149      13.1765      28.7324    5760.2466 
  119500      119.486     255.7733    10.678798   -614.77197   -604.09317    18716.652    38787.266    53572.739   -36210.048      15.2149      13.1765      28.7324    5760.2466 
  120000      119.986    238.23472    9.9465442   -614.02335    -604.0768    17911.803    38466.117    52607.094   -37337.803      15.2149      13.1765      28.7324    5760.2466 
  120500      120.486    265.32198    11.077465   -615.14068   -604.06322     17938.59    37920.427    52592.065   -36696.721      15.2149      13.1765      28.7324    5760.2466 
  121000      120.986    269.38341    11.247034   -615.29557   -604.04854    15968.477    39039.752     50511.59   -41645.909      15.2149      13.1765      28.7324    5760.2466 
  121500      121.486    258.44982    10.790546   -614.82366   -604.03311    18975.134    38153.997    54111.441   -35340.034      15.2149      13.1765      28.7324    5760.2466 
  122000      121.986    249.94989    10.435665   -614.45288   -604.01722     16965.01     40549.92      46326.4   -35981.291      15.2149      13.1765      28.7324    5760.2466 
  122500      122.486    252.01817    10.522017   -614.52562    -604.0036    18558.632    40152.266    51020.295   -35496.665      15.2149      13.1765      28.7324    5760.2466 
  123000      122.986    254.02903    10.605973   -614.59379   -603.98782    18861.868    37820.608    53317.769   -34552.773      15.2149      13.1765      28.7324    5760.2466 
  123500      123.486    251.75771    10.511143   -614.48395   -603.97281    17615.178    40367.326    48223.837   -35745.627      15.2149      13.1765      28.7324    5760.2466 
  124000      123.986    248.22406     10.36361   -614.32057   -603.95696     18068.95    40456.875    48243.569   -34493.594      15.2149      13.1765      28.7324    5760.2466 
  124500      124.486    255.85146    10.682061   -614.62437   -603.94231    18060.529    35990.895    50543.194   -32352.503      15.2149      13.1765      28.7324    5760.2466 
  125000      124.986     253.9201    10.601425   -614.52846   -603.92703    19023.164    37622.531    52135.406   -32688.446      15.2149      13.1765      28.7324    5760.2466 
  125500      125.486    249.28666    10.407974   -614.31904   -603.91107     18469.27    36124.745    50986.575    -31703.51      15.2149      13.1765      28.7324    5760.2466 
  126000      125.986    263.42741    10.998365   -614.89523   -603.89687    18523.436    42250.234    47213.833    -33893.76      15.2149      13.1765      28.7324    5760.2466 
  126500      126.486    243.07832     10.14877   -614.02933   -603.88056     18791.57    35754.345    50264.511   -29644.145      15.2149      13.1765      28.7324    5760.2466 
  127000      126.986    260.97591    10.896012   -614.76237   -603.86635    18631.064    38866.784    50337.723   -33311.313      15.2149      13.1765      28.7324    5760.2466 
  127500      127.486    250.89448    10.475102   -614.32579   -603.85069    18773.702    40666.685    50984.144   -35329.724      15.2149      13.1765      28.7324    5760.2466 
  128000      127.986    250.76557     10.46972   -614.30504   -603.83532    17578.887    34774.217     52124.87   -34162.427      15.2149      13.1765      28.7324    5760.2466 
  128500      128.486    246.16537    10.277657   -614.09692   -603.81926    18816.925    39987.017    47199.363   -30735.604      15.2149      13.1765      28.7324    5760.2466 
  129000      128.986    253.43133    10.581018   -614.38528   -603.80426    17948.491    38698.035    49611.566   -34464.126      15.2149      13.1765      28.7324    5760.2466 
  129500      129.486    260.71655    10.885183   -614.67417   -603.78899     17049.74    40185.258    49559.594   -38595.631      15.2149      13.1765      28.7324    5760.2466 
  130000      129.986    261.58688    10.921521   -614.69523   -603.77371    20116.193    39345.473    51590.273   -30587.169      15.2149      13.1765      28.7324    5760.2466 
  130500      130.486    261.94043    10.936282   -614.69477   -603.75849    18322.106      39480.9    49722.176   -34236.759      15.2149      13.1765      28.7324    5760.2466 
  131000      130.986    262.28967    10.950863   -614.69311   -603.74225    17643.477    42658.752    50971.267   -40699.588      15.2149      13.1765      28.7324    5760.2466 
  131500      131.486    244.38106     10.20316   -613.93045   -603.72729    19064.891    41954.825    50869.909   -35630.062      15.2149      13.1765      28.7324    5760.2466 
  132000      131.986    260.44677     10.87392   -614.58531   -603.71139    18667.196    36558.113    50059.426   -30615.951      15.2149      13.1765      28.7324    5760.2466 
  132500      132.486    246.95239    10.310516    -614.0054   -603.69488    17364.511    42052.697    48811.041   -38770.206      15.2149      13.1765      28.7324    5760.2466 
  133000      132.986    261.68858    10.925767   -614.60638   -603.68062    17402.884    35869.871    46824.562    -30485.78      15.2149      13.1765      28.7324    5760.2466 
  133500      133.486     249.6241    10.422062   -614.08643   -603.66437    18651.058    37185.693    52173.889   -33406.407      15.2149      13.1765      28.7324    5760.2466 
  134000      133.986    247.54378    10.335207   -613.98366   -603.64845    18134.186    40743.117    47017.317   -33357.876      15.2149      13.1765      28.7324    5760.2466 
  134500      134.486    251.12622    10.484777   -614.11778     -603.633    16714.036    37204.693    47253.243   -34315.828      15.2149      13.1765      28.7324    5760.2466 
  135000      134.986    270.21921     11.28193   -614.90021   -603.61829    17954.099    42059.018    49688.881   -37885.601      15.2149      13.1765      28.7324    5760.2466 
  135500      135.486     264.6071    11.047618   -614.64986   -603.60224    18925.259    40770.432    49476.737   -33471.394      15.2149      13.1765      28.7324    5760.2466 
  136000      135.986    251.16029      10.4862   -614.07267   -603.58647     17966.79    39641.494    45487.345   -31228.469      15.2149      13.1765      28.7324    5760.2466 
  136500      136.486    268.99687    11.230895   -614.80203   -603.57113    17871.944    38221.659    52922.374   -37528.202      15.2149      13.1765      28.7324    5760.2466 
  137000      136.986    264.32601    11.035882    -614.5908   -603.55492    18120.399    38048.694    48658.709   -32346.208      15.2149      13.1765      28.7324    5760.2466 
  137500      137.486    259.46037    10.832737   -614.37208   -603.53935    17646.205     34734.87    52920.532   -34716.788      15.2149      13.1765      28.7324    5760.2466 
  138000      137.986    254.14525    10.610825   -614.13449   -603.52366    17975.162    36700.963    54892.608   -37668.086      15.2149      13.1765      28.7324    5760.2466 
  138500      138.486    267.42423    11.165236   -614.67469   -603.50946    19043.228    40001.436    51356.698   -34228.452      15.2149      13.1765      28.7324    5760.2466 
  139000      138.986    260.77671    10.887695   -614.37991   -603.49221    16662.876    35410.443    47890.768   -33312.583      15.2149      13.1765      28.7324    5760.2466 
  139500      139.486    251.59198    10.504223   -613.98054   -603.47632    18847.105    38578.078    52219.101   -34255.864      15.2149      13.1765      28.7324    5760.2466 
  140000      139.986    262.01032      10.9392   -614.40061   -603.46141    17665.144    40062.964    51958.533   -39026.064      15.2149      13.1765      28.7324    5760.2466 
  140500      140.486    269.46447    11.250418   -614.69627   -603.44585    18291.029    39615.336    48139.954   -32882.202      15.2149      13.1765      28.7324    5760.2466 
  141000      140.986    257.17392    10.737275   -614.16683   -603.42956    18507.297    33514.226    49289.812   -27282.147      15.2149      13.1765      28.7324    5760.2466 
  141500      141.486    255.20958    10.655262   -614.06902   -603.41376    17669.345    38444.968    49011.715   -34448.648      15.2149      13.1765      28.7324    5760.2466 
  142000      141.986    248.79616    10.387495   -613.78536   -603.39786    18876.206    40408.982    47506.368   -31286.732      15.2149      13.1765      28.7324    5760.2466 
  142500      142.486    251.55589    10.502717   -613.88484   -603.38212    18774.193    37589.934    54237.106   -35504.461      15.2149      13.1765      28.7324    5760.2466 
  143000      142.986    266.66204    11.133414   -614.50032    -603.3669    18935.132    38310.035    51096.695   -32601.335      15.2149      13.1765      28.7324    5760.2466 
  143500      143.486    252.17969    10.528761   -613.87948   -603.35072    17088.936    39103.754    47248.965   -35085.912      15.2149      13.1765      28.7324    5760.2466 
  144000      143.986    259.40289    10.830337   -614.16537   -603.33503    17914.741    38486.902    48616.131    -33358.81      15.2149      13.1765      28.7324    5760.2466 
  144500      144.486    249.78581    10.428814    -613.7475   -603.31868    16313.476    36742.521    46070.271   -33872.363      15.2149      13.1765      28.7324    5760.2466 
  145000      144.986    256.49969    10.709126   -614.01235   -603.30323    18875.206    38359.662     54831.41   -36565.454      15.2149      13.1765      28.7324    5760.2466 
  145500      145.486    255.37374    10.662116   -613.94897   -603.28685    18262.409    36978.468    49713.225   -31904.466      15.2149      13.1765      28.7324    5760.2466 
  146000      145.986    255.52931    10.668611   -613.94029   -603.27168    17561.448    38568.983    50123.145   -36007.783      15.2149      13.1765      28.7324    5760.2466 
  146500      146.486    269.92624    11.269698   -614.52584   -603.25615    18734.551    41349.625    48091.254   -33237.226      15.2149      13.1765      28.7324    5760.2466 
  147000      146.986    246.89773    10.308234   -613.54665   -603.23841    18205.353    38772.716    52134.313   -36290.969      15.2149      13.1765      28.7324    5760.2466 
  147500      147.486    262.03767    10.940342   -614.16336   -603.22302    17601.729     38060.91     50086.58   -35342.304      15.2149      13.1765      28.7324    5760.2466 
  148000      147.986    250.77765    10.470224   -613.67748   -603.20725    17593.916    37003.168    52581.066   -36802.485      15.2149      13.1765      28.7324    5760.2466 
  148500      148.486    256.57608    10.712315   -613.90494   -603.19263    17805.955    37063.025    49650.271    -33295.43      15.2149      13.1765      28.7324    5760.2466 
  149000      148.986    265.43204     11.08206    -614.2586   -603.17654    17949.971    36802.404    53177.199   -36129.691      15.2149      13.1765      28.7324    5760.2466 
  149500      149.486    264.34668    11.036745   -614.19715    -603.1604    18874.127    38513.808    51884.568   -33775.995      15.2149      13.1765      28.7324    5760.2466 
  150000      149.986    243.20756    10.154165   -613.29694   -603.14277    18947.074     37680.33    51002.241   -31841.349      15.2149      13.1765      28.7324    5760.2466 
  150500      150.486    259.98896    10.854806   -613.98244   -603.12764    18159.534    38205.229    49638.477   -33365.103      15.2149      13.1765      28.7324    5760.2466 
  151000      150.986    264.58372    11.046642   -614.15831   -603.11167    18887.593     39296.27    50413.231   -33046.722      15.2149      13.1765      28.7324    5760.2466 
  151500      151.486    263.57608    11.004572    -614.0996   -603.09503    16780.419    35122.221    50430.245    -35211.21      15.2149      13.1765      28.7324    5760.2466 
  152000      151.986    267.45893    11.166685   -614.24577   -603.07908    18308.907    39944.021    50552.391   -35569.692      15.2149      13.1765      28.7324    5760.2466 
  152500      152.486    280.04408    11.692128   -614.75576   -603.06363    17690.676    38370.383    48048.043   -33346.399      15.2149      13.1765      28.7324    5760.2466 
  153000      152.986    269.11853    11.235975   -614.28313   -603.04716    17983.005    37589.568    52662.838    -36303.39      15.2149      13.1765      28.7324    5760.2466 
  153500      153.486    265.33734    11.078106   -614.10838   -603.03027     17858.62    37083.533    50316.529   -33824.202      15.2149      13.1765      28.7324    5760.2466 
  154000      153.986    268.84325    11.224482   -614.23919   -603.01471     18290.78    37435.425    46463.229   -29026.314      15.2149      13.1765      28.7324    5760.2466 
  154500      154.486    256.77396    10.720576   -613.71897   -602.99839    16823.149    35577.407    50161.359    -35269.32      15.2149      13.1765      28.7324    5760.2466 
  155000      154.986    259.40685    10.830502   -613.81231   -602.98181    18012.504    37929.289     48852.05   -32743.828      15.2149      13.1765      28.7324    5760.2466 
  155500      155.486    269.83027    11.265691    -614.2313   -602.96561    17491.369    39627.616     52316.96    -39470.47      15.2149      13.1765      28.7324    5760.2466 
  156000      155.986    264.87029    11.058607    -614.0081   -602.94949    17705.206    34952.372     49825.74   -31662.493      15.2149      13.1765      28.7324    5760.2466 
  156500      156.486    274.86977    11.476095    -614.4093   -602.93321    17444.295    36087.905    49276.262   -33031.283      15.2149      13.1765      28.7324    5760.2466 
  157000      156.986    260.28569    10.867195   -613.78415   -602.91695    18880.849    40656.234     52492.48   -36506.167      15.2149      13.1765      28.7324    5760.2466 
  157500      157.486     270.5589    11.296112   -614.19712   -602.90101    18943.025    36332.584    53531.589   -33035.097      15.2149      13.1765      28.7324    5760.2466 
  158000      157.986    271.18992    11.322458   -614.20758   -602.88512    18690.442    38456.638    51517.228   -33902.539      15.2149      13.1765      28.7324    5760.2466 
  158500      158.486    259.98529    10.854653   -613.72351   -602.86885    18315.909    38454.902    50190.812   -33697.987      15.2149      13.1765      28.7324    5760.2466 
  159000      158.986    279.97511    11.689248   -614.54114   -602.85189    18008.032    37515.306    53934.286   -37425.494      15.2149      13.1765      28.7324    5760.2466 
  159500      159.486    268.74018    11.220178   -614.05584   -602.83566    17777.203    39559.685    46400.249   -32628.326      15.2149      13.1765      28.7324    5760.2466 
  160000      159.986    266.68268    11.134276   -613.95303   -602.81875    18744.278    35287.653    53670.553   -32725.371      15.2149      13.1765      28.7324    5760.2466 
  160500      160.486    265.64956    11.091142   -613.89384    -602.8027    18656.438    39580.975    52273.941   -35885.604      15.2149      13.1765      28.7324    5760.2466 
  161000      160.986    269.99469    11.272556   -614.05816    -602.7856    18961.273    39193.762    51739.656     -34049.6      15.2149      13.1765      28.7324    5760.2466 
  161500      161.486    272.29305    11.368514   -614.13819   -602.76968    15684.934    34382.872    47964.937   -35293.008      15.2149      13.1765      28.7324    5760.2466 
  162000      161.986    248.44302    10.372751   -613.12533   -602.75258    18002.711    37902.331    50525.149   -34419.347      15.2149      13.1765      28.7324    5760.2466 
  162500      162.486    267.93341    11.186495   -613.92464   -602.73815    18495.956    42699.433    52517.417   -39728.982      15.2149      13.1765      28.7324    5760.2466 
  163000      162.986     285.9444    11.938472   -614.65971   -602.72124    19002.397    37259.379    50497.222   -30749.411      15.2149      13.1765      28.7324    5760.2466 
  163500      163.486    275.29584    11.493884   -614.19813   -602.70425    18231.818    40406.077    51251.284   -36961.907      15.2149      13.1765      28.7324    5760.2466 
  164000      163.986    253.66718    10.590865   -613.27779   -602.68692    17846.016    41456.777    50057.182   -37975.912      15.2149      13.1765      28.7324    5760.2466 
  164500      164.486    265.30059    11.076572   -613.74689   -602.67032    18001.249     36906.77      51275.8   -34178.821      15.2149      13.1765      28.7324    5760.2466 
  165000      164.986    274.27645    11.451323   -614.10531   -602.65399    19223.008    41695.904    51815.846   -35842.727      15.2149      13.1765      28.7324    5760.2466 
  165500      165.486    268.16133    11.196011   -613.83331    -602.6373    17849.203    38002.738    47238.813   -31693.941      15.2149      13.1765      28.7324    5760.2466 
  166000      165.986    267.99835    11.189206   -613.81113   -602.62192    19124.527     37488.94     52434.73   -32550.088      15.2149      13.1765      28.7324    5760.2466 
  166500      166.486    255.08432    10.650032    -613.2533   -602.60326    19236.461    42659.542    49540.334   -34490.492      15.2149      13.1765      28.7324    5760.2466 
  167000      166.986    269.27872    11.242663    -613.8301   -602.58744      16713.1    35256.344    50116.946   -35233.991      15.2149      13.1765      28.7324    5760.2466 
  167500      167.486    260.00911    10.855647   -613.42699   -602.57135    18260.111    41600.924    50334.862   -37155.453      15.2149      13.1765      28.7324    5760.2466 
  168000      167.986    271.51854    11.336178   -613.89096   -602.55478     19854.77    39289.629    47457.364   -27182.684      15.2149      13.1765      28.7324    5760.2466 
  168500      168.486    264.61743    11.048049   -613.58579   -602.53774    17199.752    39356.551    50724.481   -38481.777      15.2149      13.1765      28.7324    5760.2466 
  169000      168.986    266.31465     11.11891   -613.64031    -602.5214    19215.303    37941.237    53427.793    -33723.12      15.2149      13.1765      28.7324    5760.2466 
  169500      169.486    274.96326    11.479998   -613.98519   -602.50519    17635.184    33254.419    49728.343    -30077.21      15.2149      13.1765      28.7324    5760.2466 
  170000      169.986    267.01052    11.147963   -613.63615   -602.48818    18646.741    40116.239    51596.242   -35772.258      15.2149      13.1765      28.7324    5760.2466 
  170500      170.486    264.63904    11.048952   -613.52045    -602.4715    18269.031    40119.122    52027.316   -37339.344      15.2149      13.1765      28.7324    5760.2466 
  171000      170.986    264.25477    11.032908   -613.48897   -602.45606    18610.443    40896.428    48259.506   -33324.604      15.2149      13.1765      28.7324    5760.2466 
  171500      171.486    269.26325    11.242017   -613.67855   -602.43653    19148.655      40445.7    50693.556   -33693.292      15.2149      13.1765      28.7324    5760.2466 
  172000      171.986    269.95455     11.27088   -613.69139   -602.42051    17572.491    36839.933    52829.262   -36951.723      15.2149      13.1765      28.7324    5760.2466 
  172500      172.486    268.60611    11.214581   -613.61844   -602.40385    16735.932    39684.618    49554.394   -39031.216      15.2149      13.1765      28.7324    5760.2466 
  173000      172.986    274.23777    11.449708   -613.83673   -602.38702    17585.197    40755.854    50627.272   -38627.534      15.2149      13.1765      28.7324    5760.2466 
  173500      173.486    259.47314     10.83327    -613.2031   -602.36983    18204.238    39341.331    53742.818   -38471.434      15.2149      13.1765      28.7324    5760.2466 
  174000      173.986    267.76391    11.179418     -613.533   -602.35358    18335.242    38817.296    49013.851   -32825.421      15.2149      13.1765      28.7324    5760.2466 
  174500      174.486    276.11252    11.527981   -613.86603   -602.33805    18644.866    36223.948     50933.37    -31222.72      15.2149      13.1765      28.7324    5760.2466 
  175000      174.986    283.25616    11.826235    -614.1476   -602.32136    19584.155    37162.565    48968.007   -27378.107      15.2149      13.1765      28.7324    5760.2466 
  175500      175.486    262.26449    10.949812   -613.25351   -602.30369    17768.566    35822.538    51824.168   -34341.009      15.2149      13.1765      28.7324    5760.2466 
  176000      175.986    280.59639    11.715188   -614.00241   -602.28723    18147.852    37212.505    51576.468   -34345.417      15.2149      13.1765      28.7324    5760.2466 
  176500      176.486    262.93697    10.977889   -613.24762   -602.26974    17402.074    38621.277    50009.846   -36424.902      15.2149      13.1765      28.7324    5760.2466 
  177000      176.986    272.42579    11.374056   -613.62768   -602.25363    18202.415    37081.493    46985.152   -29459.401      15.2149      13.1765      28.7324    5760.2466 
  177500      177.486    264.82251    11.056612    -613.2934   -602.23679    17276.057    37757.654    47049.067    -32978.55      15.2149      13.1765      28.7324    5760.2466 
  178000      177.986    287.18439    11.990243   -614.21025   -602.22001    18945.243    36963.341    50739.732   -30867.343      15.2149      13.1765      28.7324    5760.2466 
  178500      178.486    269.80307    11.264555   -613.46757   -602.20302    17445.238    39321.349    51896.303   -38881.937      15.2149      13.1765      28.7324    5760.2466 
  179000      178.986    288.30104    12.036864   -614.22325   -602.18639     18341.98    38706.947    48193.947   -31874.954      15.2149      13.1765      28.7324    5760.2466 
  179500      179.486    275.23354    11.491283   -613.66089    -602.1696    19394.908    41229.148    51457.469   -34501.893      15.2149      13.1765      28.7324    5760.2466 
  180000      179.986     259.0749    10.816643   -612.96808   -602.15144    18592.908    42085.835    52024.718   -38331.829      15.2149      13.1765      28.7324    5760.2466 
  180500      180.486     261.7079    10.926574   -613.06158   -602.13501    17316.525    38723.614    50802.599   -37576.637      15.2149      13.1765      28.7324    5760.2466 
  181000      180.986    273.56995    11.421826   -613.54115   -602.11933    17442.341    38929.449    49439.914   -36042.341      15.2149      13.1765      28.7324    5760.2466 
  181500      181.486    283.84642    11.850879   -613.95341   -602.10253    17848.219     38814.87    49254.168    -34524.38      15.2149      13.1765      28.7324    5760.2466 
  182000      181.986    268.54068    11.211849   -613.29674   -602.08489    17449.139    37943.106    52302.137   -37897.826      15.2149      13.1765      28.7324    5760.2466 
  182500      182.486     263.7239    11.010744   -613.07856   -602.06781    19356.938    42186.432    50073.573   -34189.191      15.2149      13.1765      28.7324    5760.2466 
  183000      182.986    259.83476    10.848368   -612.89882   -602.05045    18861.997     40324.22    56883.607   -40621.834      15.2149      13.1765      28.7324    5760.2466 
  183500      183.486    292.57758    12.215414    -614.2494   -602.03399     19783.36     39956.05    52927.461   -33533.431      15.2149      13.1765      28.7324    5760.2466 
  184000      183.986    293.48147    12.253153   -614.26989   -602.01674    18918.009    39847.336    48583.197   -31676.507      15.2149      13.1765      28.7324    5760.2466 
  184500      184.486    276.49099    11.543783   -613.54335   -601.99957    19248.873    40580.299    50692.943   -33526.623      15.2149      13.1765      28.7324    5760.2466 
  185000      184.986    277.37061    11.580508   -613.56325   -601.98274    18092.174    38464.962    52429.665   -36618.107      15.2149      13.1765      28.7324    5760.2466 
  185500      185.486    268.31133    11.202273   -613.16694   -601.96467    19801.331    39918.211    51413.637   -31927.855      15.2149      13.1765      28.7324    5760.2466 
  186000      185.986    274.24204    11.449887    -613.3974   -601.94751    17821.845    38656.154    51425.099   -36615.717      15.2149      13.1765      28.7324    5760.2466 
  186500      186.486    280.92611    11.728954   -613.65868   -601.92972    17599.749    40129.801    53595.582   -40926.137      15.2149      13.1765      28.7324    5760.2466 
  187000      186.986    295.09737    12.320618    -614.2345   -601.91388     17761.39    39049.578    52429.086   -38194.493      15.2149      13.1765      28.7324    5760.2466 
  187500      187.486    282.36991    11.789234   -613.68455   -601.89532    17888.592    39596.504    50017.374   -35948.103      15.2149      13.1765      28.7324    5760.2466 
  188000      187.986    273.86567    11.434173   -613.31178   -601.87761    17846.271    38265.046    51514.642   -36240.874      15.2149      13.1765      28.7324    5760.2466 
  188500      188.486     291.3029    12.162195   -614.02321   -601.86102    19512.126     36799.29    50271.813   -28534.723      15.2149      13.1765      28.7324    5760.2466 
  189000      188.986    270.33082     11.28659   -613.12972   -601.84313     18639.26    40427.035    51451.025   -35960.281      15.2149      13.1765      28.7324    5760.2466 
  189500      189.486    279.40619    11.665495   -613.49244   -601.82695    17305.394    41499.924    47568.694   -37152.435      15.2149      13.1765      28.7324    5760.2466 
  190000      189.986    292.13867     12.19709   -614.00706   -601.80997    18842.963    36689.042    48739.193   -28899.347      15.2149      13.1765      28.7324    5760.2466 
  190500      190.486    280.62093    11.716212   -613.50872   -601.79251    18083.776    41027.505    51465.514   -38241.692      15.2149      13.1765      28.7324    5760.2466 
  191000      190.986    294.80799    12.308536   -614.08373    -601.7752    18617.131    43837.515    47396.282   -35382.404      15.2149      13.1765      28.7324    5760.2466 
  191500      191.486    287.85301    12.018159   -613.77689   -601.75874    18900.489    41880.715    50151.271   -35330.518      15.2149      13.1765      28.7324    5760.2466 
  192000      191.986    280.69504    11.719306   -613.45968   -601.74037     18575.17    36589.254    54621.939   -35485.683      15.2149      13.1765      28.7324    5760.2466 
  192500      192.486    278.94862    11.646391   -613.36923   -601.72284    18252.097    40532.289    48607.262   -34383.261      15.2149      13.1765      28.7324    5760.2466 
  193000      192.986    283.08922    11.819266    -613.5254   -601.70613    18495.484     40724.77    53531.797   -38770.117      15.2149      13.1765      28.7324    5760.2466 
  193500      193.486    273.51922    11.419708   -613.10832   -601.68861      19924.6    40950.371    49406.503   -30583.075      15.2149      13.1765      28.7324    5760.2466 
  194000      193.986    279.97391    11.689198   -613.36063   -601.67143    19177.117    41133.349    54872.746   -38474.745      15.2149      13.1765      28.7324    5760.2466 
  194500      194.486    273.96992    11.438525   -613.09237   -601.65384    18837.392    43382.884    53347.006   -40217.714      15.2149      13.1765      28.7324    5760.2466 
  195000      194.986    281.93619    11.771125   -613.40795   -601.63683    18555.104    40012.144     53330.71   -37677.541      15.2149      13.1765      28.7324    5760.2466 
  195500      195.486    275.73132    11.512066   -613.13232   -601.62025    18471.649    38656.684    49274.355   -32516.093      15.2149      13.1765      28.7324    5760.2466 
  196000      195.986    274.41841     11.45725    -613.0597   -601.60245    18480.693    41381.847    57146.919   -43086.688      15.2149      13.1765      28.7324    5760.2466 
  196500      196.486    287.09769    11.986623   -613.57192    -601.5853    17448.289    36355.523    49236.114   -33246.771      15.2149      13.1765      28.7324    5760.2466 
  197000      196.986    275.09274    11.485405   -613.05294   -601.56753    17872.862    38453.653     50243.55   -35078.617      15.2149      13.1765      28.7324    5760.2466 
  197500      197.486    278.70038    11.636027   -613.18715   -601.55113     19578.01    38482.298    53065.661   -32813.929      15.2149      13.1765      28.7324    5760.2466 
  198000      197.986    283.52132    11.837306   -613.37108   -601.53378    17597.565    37797.129    50726.934   -35731.366      15.2149      13.1765      28.7324    5760.2466 
  198500      198.486    286.78971    11.973765   -613.49021   -601.51645    18964.362     39429.88    55680.382   -38217.174      15.2149      13.1765      28.7324    5760.2466 
  199000      198.986    295.34725    12.331051    -613.8294   -601.49835    17587.798    36995.398    49842.047   -34074.052      15.2149      13.1765      28.7324    5760.2466 
  199500      199.486    284.16561    11.864206   -613.34434   -601.48014    17780.208    37535.322    51242.697   -35437.395      15.2149      13.1765      28.7324    5760.2466 
  200000      199.986    282.50877    11.795031   -613.25808   -601.46305    18288.922    39018.936    53106.855   -37259.024      15.2149      13.1765      28.7324    5760.2466 
  200500      200.486    286.96304    11.981001   -613.42697   -601.44597    18317.486    37806.259    49593.613   -32447.413      15.2149      13.1765      28.7324    5760.2466 
  201000      200.986    291.10587    12.153969   -613.58205   -601.42808    17958.001    38117.547    55556.724   -39800.269      15.2149      13.1765      28.7324    5760.2466 
  201500      201.486      284.808    11.891026   -613.30229   -601.41127    18566.531    40932.211    50805.621    -36038.24      15.2149      13.1765      28.7324    5760.2466 
  202000      201.986    286.69785     11.96993   -613.36392   -601.39399    17761.591    40618.535     48785.62   -36119.382      15.2149      13.1765      28.7324    5760.2466 
  202500      202.486    279.90519    11.686329   -613.06296   -601.37663    19580.637     40634.49     52309.55   -34202.129      15.2149      13.1765      28.7324    5760.2466 
  203000      202.986    294.69442    12.303794   -613.66437   -601.36058    19819.148    44398.646      55215.6   -40156.803      15.2149      13.1765      28.7324    5760.2466 
  203500      203.486    281.22716    11.741523    -613.0836   -601.34208    20284.029    41312.902    51507.254    -31968.07      15.2149      13.1765      28.7324    5760.2466 
  204000      203.986    262.66107    10.966369   -612.29043   -601.32406    19568.236    36041.525    51628.862    -28965.68      15.2149      13.1765      28.7324    5760.2466 
  204500      204.486    288.40969    12.041401   -613.34869   -601.30729    17845.459    40712.338    51307.495   -38483.454      15.2149      13.1765      28.7324    5760.2466 
  205000      204.986     290.3677     12.12315   -613.41377   -601.29062    19286.138    40313.133    52333.184   -34787.904      15.2149      13.1765      28.7324    5760.2466 
  205500      205.486    293.79122    12.266085   -613.53851   -601.27242    18117.416    39556.885    49759.684   -34964.321      15.2149      13.1765      28.7324    5760.2466 
  206000      205.986    274.29148    11.451951   -612.70689   -601.25494    19526.958    41152.528    51973.387   -34545.041      15.2149      13.1765      28.7324    5760.2466 
  206500      206.486     283.4134      11.8328    -613.0707    -601.2379    17465.507    41750.753    47031.245   -36385.477      15.2149      13.1765      28.7324    5760.2466 
  207000      206.986    292.48828    12.211686   -613.43161   -601.21993    18595.985    40291.907    50557.754   -35061.706      15.2149      13.1765      28.7324    5760.2466 
  207500      207.486    295.54839    12.339449   -613.54244   -601.20299    17138.285    38179.588    48371.771   -35136.506      15.2149      13.1765      28.7324    5760.2466 
  208000      207.986    286.57481    11.964793   -613.14983   -601.18504    19139.421    41211.525    53904.973   -37698.234      15.2149      13.1765      28.7324    5760.2466 
  208500      208.486    274.74039    11.470694   -612.63658   -601.16589    18749.516    39289.685    54086.555   -37127.692      15.2149      13.1765      28.7324    5760.2466 
  209000      208.986    270.27189    11.284129   -612.43184   -601.14771    19097.789    41756.194    54500.876   -38963.702      15.2149      13.1765      28.7324    5760.2466 
  209500      209.486    304.50213    12.713276   -613.84632   -601.13305    19284.728    40884.977    50519.462   -33550.255      15.2149      13.1765      28.7324    5760.2466 
  210000      209.986    287.51196     12.00392   -613.11784   -601.11392    17812.588    39805.227    50904.044   -37271.506      15.2149      13.1765      28.7324    5760.2466 
  210500      210.486    285.66682    11.926883   -613.02194   -601.09505    18735.686    44141.862    49059.054   -36993.859      15.2149      13.1765      28.7324    5760.2466 
  211000      210.986    275.86451    11.517626   -612.59546   -601.07783    18209.114    43785.149    55278.449   -44436.256      15.2149      13.1765      28.7324    5760.2466 
  211500      211.486    271.47619     11.33441   -612.39467   -601.06026    20327.613    43151.955    56232.165    -38401.28      15.2149      13.1765      28.7324    5760.2466 
  212000      211.986    281.44403    11.750577   -612.79317   -601.04259    20055.185    37596.005    55713.482   -33143.934      15.2149      13.1765      28.7324    5760.2466 
[...]
  948500      948.486    354.48913    14.800285   -608.67948    -593.8792    20045.989    41765.373    50724.656   -32352.061      15.2149      13.1765      28.7324    5760.2466 
  949000      948.986    375.52908    15.678725   -609.55941   -593.88068    21351.477     40009.71    52338.293   -28293.573      15.2149      13.1765      28.7324    5760.2466 
  949500      949.486    377.57426    15.764113   -609.64205   -593.87793     19896.42    43940.207    51364.038   -35614.983      15.2149      13.1765      28.7324    5760.2466 
  950000      949.986     364.3664    15.212671    -609.0901   -593.87743    18803.999    40044.827    49230.234   -32863.065      15.2149      13.1765      28.7324    5760.2466 
  950500      950.486    384.62196    16.058362    -609.9355   -593.87713    19948.511    41478.035    54234.299     -35866.8      15.2149      13.1765      28.7324    5760.2466 
  951000      950.986    378.87046    15.818231    -609.6948   -593.87656    17925.117     42216.22     50123.32   -38564.189      15.2149      13.1765      28.7324    5760.2466 
  951500      951.486     369.4282    15.424007   -609.29877   -593.87476    18336.758     43600.24    51832.725   -40422.692      15.2149      13.1765      28.7324    5760.2466 
  952000      951.986    353.07458    14.741226   -608.61374   -593.87251    19697.157    42724.987    49128.976   -32762.491      15.2149      13.1765      28.7324    5760.2466 
  952500      952.486    385.02658    16.075255   -609.94867   -593.87341    20539.845    45154.111    50563.468   -34098.046      15.2149      13.1765      28.7324    5760.2466 
  953000      952.986    383.14226    15.996583   -609.86754   -593.87096    19444.024    39640.676    52162.494   -33471.098      15.2149      13.1765      28.7324    5760.2466 
  953500      953.486    388.65727     16.22684   -610.09572   -593.86888    21497.869    40980.515    54791.932    -31278.84      15.2149      13.1765      28.7324    5760.2466 
  954000      953.986     380.8678    15.901622   -609.76854   -593.86692    20406.577    40133.992    54271.642   -33185.902      15.2149      13.1765      28.7324    5760.2466 
  954500      954.486    374.02183    15.615796   -609.48282   -593.86703     20917.88    40483.758    52294.785   -30024.904      15.2149      13.1765      28.7324    5760.2466 
  955000      954.986    343.70812    14.350167   -608.21402   -593.86385    20097.846    41824.647    56543.979   -38075.089      15.2149      13.1765      28.7324    5760.2466 
  955500      955.486    369.31768    15.419393   -609.28243   -593.86303    19956.418    42740.912    48849.634   -31721.292      15.2149      13.1765      28.7324    5760.2466 
  956000      955.986    383.37298    16.006215   -609.86873   -593.86251    20309.353     42893.25    49055.987   -31021.177      15.2149      13.1765      28.7324    5760.2466 
  956500      956.486    361.32217    15.085572   -608.94554   -593.85997    19713.564    39319.637    51904.181   -32083.126      15.2149      13.1765      28.7324    5760.2466 
  957000      956.986    363.69507    15.184642   -609.04404    -593.8594    20186.006    42599.576     50130.35   -32171.908      15.2149      13.1765      28.7324    5760.2466 
  957500      957.486    374.46256    15.634196   -609.49204   -593.85784    18508.682    37664.439    53504.687    -35643.08      15.2149      13.1765      28.7324    5760.2466 
  958000      957.986    372.43134    15.549391   -609.40435   -593.85496    20296.119    45235.699    51180.519   -35527.862      15.2149      13.1765      28.7324    5760.2466 
  958500      958.486    373.46233    15.592436   -609.44607   -593.85363     20881.59    44093.245    54029.121   -35477.596      15.2149      13.1765      28.7324    5760.2466 
  959000      958.986    354.97728    14.820666   -608.67191   -593.85124    19527.022    42480.456    49732.957   -33632.347      15.2149      13.1765      28.7324    5760.2466 
  959500      959.486    390.48984    16.303352   -610.15511   -593.85176    20340.057    43121.118    51700.868   -33801.815      15.2149      13.1765      28.7324    5760.2466 
  960000      959.986    362.14962    15.120118   -608.96774   -593.84762    19340.547    42681.513    53124.734   -37784.607      15.2149      13.1765      28.7324    5760.2466 
  960500      960.486    380.25759    15.876145   -609.72262   -593.84647    21437.363    37620.634    50455.597   -23764.142      15.2149      13.1765      28.7324    5760.2466 
  961000      960.986    374.90405    15.652629   -609.49723    -593.8446    17933.384    35754.523    47222.119    -29176.49      15.2149      13.1765      28.7324    5760.2466 
  961500      961.486    390.12538    16.288135   -610.13246   -593.84432    18736.534    41434.843    52095.922   -37321.164      15.2149      13.1765      28.7324    5760.2466 
  962000      961.986    362.00149    15.113934   -608.95416   -593.84023    18645.992    42403.445    53782.687   -40248.155      15.2149      13.1765      28.7324    5760.2466 
  962500      962.486    379.67839    15.851963   -609.68921   -593.83724    18401.993    40124.445    52032.794   -36951.259      15.2149      13.1765      28.7324    5760.2466 
  963000      962.986    360.11594     15.03521   -608.86881    -593.8336     21034.53    41353.794    52443.802   -30694.007      15.2149      13.1765      28.7324    5760.2466 
  963500      963.486    378.00039    15.781904   -609.61674   -593.83483    18721.488    38961.071    53903.297   -36699.905      15.2149      13.1765      28.7324    5760.2466 
  964000      963.986    383.63506    16.017158   -609.84837   -593.83121    19732.359    44612.199    47226.707   -32641.827      15.2149      13.1765      28.7324    5760.2466 
  964500      964.486    379.50811    15.844853   -609.67349   -593.82864    19527.672    43138.939    54745.663   -39301.586      15.2149      13.1765      28.7324    5760.2466 
  965000      964.986    377.35655    15.755023   -609.58205   -593.82703    19629.453    44159.067    50796.934   -36067.642      15.2149      13.1765      28.7324    5760.2466 
  965500      965.486     364.5216    15.219151   -609.04212   -593.82297    20795.543    44807.331     55499.54   -37920.242      15.2149      13.1765      28.7324    5760.2466 
  966000      965.986    358.90857    14.984801   -608.80543   -593.82063    16047.997    38915.209    54567.577   -45338.796      15.2149      13.1765      28.7324    5760.2466 
  966500      966.486    372.43096    15.549375   -609.36854   -593.81916    19947.787    40753.334    54426.648    -35336.62      15.2149      13.1765      28.7324    5760.2466 
  967000      966.986      366.238    15.290813   -609.10773   -593.81691    19361.962    45014.979    50925.715   -37854.808      15.2149      13.1765      28.7324    5760.2466 
  967500      967.486    375.68189    15.685105   -609.49914   -593.81403    20105.117    41257.583    49363.039   -30305.272      15.2149      13.1765      28.7324    5760.2466 
  968000      967.986    376.41856    15.715861   -609.52484   -593.80898    19095.435    43557.755     50860.55       -37132      15.2149      13.1765      28.7324    5760.2466 
  968500      968.486    352.88404    14.733271   -608.53937    -593.8061    21134.214    42287.395    55512.324   -34397.078      15.2149      13.1765      28.7324    5760.2466 
  969000      968.986    382.60744    15.974253   -609.77947   -593.80521    21709.161    49950.643    50037.474   -34860.633      15.2149      13.1765      28.7324    5760.2466 
  969500      969.486    376.76153    15.730181   -609.53196   -593.80178     18944.34      43631.4    50337.016   -37135.397      15.2149      13.1765      28.7324    5760.2466 
  970000      969.986    356.59943    14.888392    -608.6854     -593.797    20563.753    42607.468    56530.841   -37447.049      15.2149      13.1765      28.7324    5760.2466 
  970500      970.486    396.45499    16.552403   -610.34931    -593.7969    21482.319    44197.969    54653.739   -34404.752      15.2149      13.1765      28.7324    5760.2466 
  971000      970.986    387.81714    16.191764   -609.98502   -593.79325    19093.934    39867.683    52029.862   -34615.743      15.2149      13.1765      28.7324    5760.2466 
  971500      971.486    363.08225    15.159057   -608.94936    -593.7903    19621.311    47069.744    54477.539   -42683.349      15.2149      13.1765      28.7324    5760.2466 
  972000      971.986    388.55134    16.222418   -610.00998   -593.78756    19974.353    37932.347    54623.164   -32632.451      15.2149      13.1765      28.7324    5760.2466 
  972500      972.486    379.02295    15.824597   -609.60831   -593.78372    19947.977    45442.234    52327.617    -37925.92      15.2149      13.1765      28.7324    5760.2466 
  973000      972.986    363.25258    15.166168   -608.94634   -593.78017    19307.226    42026.922    53331.451   -37436.696      15.2149      13.1765      28.7324    5760.2466 
  973500      973.486    377.98656    15.781327   -609.55981   -593.77849    20398.431    42446.699    54028.695   -35280.101      15.2149      13.1765      28.7324    5760.2466 
  974000      973.986    385.20759    16.082813   -609.85878   -593.77596    21620.367    37921.475    56651.801   -29712.176      15.2149      13.1765      28.7324    5760.2466 
  974500      974.486    378.34021    15.796092   -609.56754   -593.77145    19550.757    44028.858    55392.385   -40768.973      15.2149      13.1765      28.7324    5760.2466 
  975000      974.986    372.46146    15.550648   -609.31893   -593.76828    21492.595    45351.002    51657.542   -32530.759      15.2149      13.1765      28.7324    5760.2466 
  975500      975.486    391.66073    16.352238     -610.118   -593.76576    20223.707    46596.352    54240.981   -40166.211      15.2149      13.1765      28.7324    5760.2466 
  976000      975.986    381.16149    15.913883   -609.67616   -593.76228    19304.154    42784.789    50571.285   -35443.612      15.2149      13.1765      28.7324    5760.2466 
  976500      976.486     368.0114    15.364854   -609.12229   -593.75744    19249.138    45068.833    51967.344   -39288.762      15.2149      13.1765      28.7324    5760.2466 
  977000      976.986    364.33606    15.211405   -608.96523   -593.75382    18844.074     42971.93    49734.099   -36173.808      15.2149      13.1765      28.7324    5760.2466 
  977500      977.486     375.7134     15.68642   -609.43667   -593.75025     19059.31    43241.019    52801.527   -38864.615      15.2149      13.1765      28.7324    5760.2466 
  978000      977.986    391.96246    16.364835   -610.11303    -593.7482    18578.091    39886.366    50371.641   -34523.734      15.2149      13.1765      28.7324    5760.2466 
  978500      978.486    363.20309    15.164102   -608.90868   -593.74458    19800.024    40968.256    55342.736   -36910.921      15.2149      13.1765      28.7324    5760.2466 
  979000      978.986     367.2713    15.333954   -609.07533   -593.74138    19798.682    39046.818    53672.867   -33323.638      15.2149      13.1765      28.7324    5760.2466 
  979500      979.486    391.95361    16.364466   -610.10296   -593.73849    19039.961    44350.924    49585.265   -36816.306      15.2149      13.1765      28.7324    5760.2466 
  980000      979.986    386.90087    16.153509   -609.88804   -593.73453    16505.793    40548.643    46258.056    -37289.32      15.2149      13.1765      28.7324    5760.2466 
  980500      980.486    370.83213    15.482622   -609.21245   -593.72983    18231.151    40314.808    51327.892   -36949.248      15.2149      13.1765      28.7324    5760.2466 
  981000      980.986    377.04585    15.742052   -609.46908   -593.72703    19570.685    42166.126    50272.698   -33726.768      15.2149      13.1765      28.7324    5760.2466 
  981500      981.486    380.77203    15.897623   -609.62012    -593.7225     19306.63    42467.176     53555.06   -38102.345      15.2149      13.1765      28.7324    5760.2466 
  982000      981.986    360.42597    15.048154   -608.76581   -593.71766    19375.175    37460.081    52168.991   -31503.548      15.2149      13.1765      28.7324    5760.2466 
  982500      982.486    374.60871    15.640298   -609.35499    -593.7147     19092.31     39187.67    53214.673   -35125.414      15.2149      13.1765      28.7324    5760.2466 
  983000      982.986    358.31832    14.960158   -608.67051   -593.71036    21682.097    41154.601    48683.476   -24791.786      15.2149      13.1765      28.7324    5760.2466 
  983500      983.486    344.57534    14.386374   -608.09105   -593.70467    19621.337    43692.478     53619.22   -38447.687      15.2149      13.1765      28.7324    5760.2466 
  984000      983.986    367.88474    15.359566   -609.06118   -593.70161    19248.741    39400.375    59728.721   -41382.873      15.2149      13.1765      28.7324    5760.2466 
  984500      984.486    358.98994    14.988199   -608.68715   -593.69895    18192.348    42897.249    51244.175    -39564.38      15.2149      13.1765      28.7324    5760.2466 
  985000      984.986    396.48101    16.553489    -610.2494   -593.69591    18655.263    40339.155    50552.514   -34925.881      15.2149      13.1765      28.7324    5760.2466 
  985500      985.486    398.56924    16.640675   -610.33331   -593.69264    17410.118    37690.192    47617.285   -33077.124      15.2149      13.1765      28.7324    5760.2466 
  986000      985.986    386.16867    16.122938   -609.81103   -593.68809    19485.898    38621.455    49110.536   -29274.297      15.2149      13.1765      28.7324    5760.2466 
  986500      986.486    379.94214    15.862975   -609.54682   -593.68385    19803.841    43142.589    53742.465    -37473.53      15.2149      13.1765      28.7324    5760.2466 
  987000      986.986    382.31808    15.962172    -609.6424   -593.68023    18396.954    42996.698    50274.372    -38080.21      15.2149      13.1765      28.7324    5760.2466 
  987500      987.486    377.47023     15.75977   -609.43472   -593.67495    19444.947    45661.796    51966.301   -39293.256      15.2149      13.1765      28.7324    5760.2466 
  988000      987.986    376.70032    15.727625    -609.4003   -593.67267    19265.306    41582.327    49627.927   -33414.336      15.2149      13.1765      28.7324    5760.2466 
  988500      988.486    369.53281    15.428374   -609.09607    -593.6677    18427.671     46165.36    50190.239   -41072.585      15.2149      13.1765      28.7324    5760.2466 
  989000      988.986    393.26431    16.419189   -610.08379    -593.6646    17934.302    45288.749    45691.974   -37177.816      15.2149      13.1765      28.7324    5760.2466 
  989500      989.486    362.71209    15.143602    -608.8024    -593.6588    20123.784    39234.968    51732.148   -30595.764      15.2149      13.1765      28.7324    5760.2466 
  990000      989.986     363.8754    15.192172    -608.8469   -593.65472    20808.655    43303.333    52980.401   -33857.768      15.2149      13.1765      28.7324    5760.2466 
  990500      990.486    375.76047    15.688386   -609.33874   -593.65035    19859.941    45103.523    51951.759    -37475.46      15.2149      13.1765      28.7324    5760.2466 
  991000      990.986    370.23703    15.457776   -609.10281   -593.64503    17813.526    41712.961     46848.71   -35121.094      15.2149      13.1765      28.7324    5760.2466 
  991500      991.486    359.31332      15.0017   -608.64205   -593.64035    18215.458    42559.215    50976.139   -38888.979      15.2149      13.1765      28.7324    5760.2466 
  992000      991.986    363.50722      15.1768   -608.81418   -593.63738    21898.616    39903.138    51094.724   -25302.013      15.2149      13.1765      28.7324    5760.2466 
  992500      992.486    377.47114    15.759808   -609.39278   -593.63298    19370.673    44204.157    53196.751    -39288.89      15.2149      13.1765      28.7324    5760.2466 
  993000      992.986    380.79165    15.898442   -609.52671   -593.62826    21977.765     42077.58    52357.153   -28501.438      15.2149      13.1765      28.7324    5760.2466 
  993500      993.486    365.78975    15.272098   -608.89625   -593.62415    19628.123    41906.658    50235.148   -33257.436      15.2149      13.1765      28.7324    5760.2466 
  994000      993.986    383.21876    15.999777   -609.61989   -593.62011    19952.413    46983.949    50837.667   -37964.378      15.2149      13.1765      28.7324    5760.2466 
  994500      994.486    367.00384    15.322787   -608.93819    -593.6154    20319.509    47752.818    47835.155   -34629.446      15.2149      13.1765      28.7324    5760.2466 
  995000      994.986    358.34481    14.961264   -608.57183   -593.61057     22000.87     42672.14    51055.826   -27725.355      15.2149      13.1765      28.7324    5760.2466 
  995500      995.486    374.54586    15.637674    -609.2436   -593.60593    19885.123    45503.613    50476.014   -36324.259      15.2149      13.1765      28.7324    5760.2466 
  996000      995.986    369.58074    15.430375   -609.03107    -593.6007    19843.508    47223.185    42771.906   -30464.566      15.2149      13.1765      28.7324    5760.2466 
  996500      996.486    385.07545    16.077296   -609.67642   -593.59912     19064.75    45578.514    53425.384   -41809.648      15.2149      13.1765      28.7324    5760.2466 
  997000      996.986    384.33805    16.046508   -609.63921   -593.59271    18924.967    42041.435    46879.798   -32146.331      15.2149      13.1765      28.7324    5760.2466 
  997500      997.486     378.7906    15.814897   -609.40217   -593.58728    20566.307     43485.06    50802.477   -32588.617      15.2149      13.1765      28.7324    5760.2466 
  998000      997.986    372.57762    15.555498   -609.13701   -593.58151    20950.588    45266.422    51417.622   -33832.279      15.2149      13.1765      28.7324    5760.2466 
  998500      998.486    379.65381    15.850937   -609.42943    -593.5785    21331.085    44236.023    50317.951    -30560.72      15.2149      13.1765      28.7324    5760.2466 
  999000      998.986    381.39591    15.923671   -609.49557    -593.5719    20965.542    45108.664     52530.23   -34742.266      15.2149      13.1765      28.7324    5760.2466 
  999500      999.486    376.83313     15.73317   -609.30095   -593.56778    20504.917    44609.189    47539.922   -30634.358      15.2149      13.1765      28.7324    5760.2466 
 1000000      999.986    378.47174    15.801584   -609.36284   -593.56126    20111.647    41225.387    55747.089   -36637.535      15.2149      13.1765      28.7324    5760.2466 
 1000014         1000    384.26606    16.043503   -609.60541   -593.56191    19589.646    40030.013    54934.118   -36195.192      15.2149      13.1765      28.7324    5760.2466 
Loop time of 917.262 on 28 procs for 1000000 steps with 324 atoms

Performance: 94.193 ns/day, 0.255 hours/ns, 1090.201 timesteps/s
87.8% CPU use with 28 MPI tasks x no OpenMP threads

MPI task timing breakdown:
Section |  min time  |  avg time  |  max time  |%varavg| %total
---------------------------------------------------------------
Pair    | 751.19     | 792.31     | 843.26     |  98.4 | 86.38
Neigh   | 0          | 0          | 0          |   0.0 |  0.00
Comm    | 59.298     | 111.89     | 153.15     | 265.5 | 12.20
Output  | 0.097367   | 0.099683   | 0.12022    |   1.3 |  0.01
Modify  | 5.1758     | 7.9876     | 11.308     |  65.1 |  0.87
Other   |            | 4.98       |            |       |  0.54

Nlocal:    11.5714 ave 15 max 7 min
Histogram: 1 3 3 4 0 1 6 2 3 5
Nghost:    656 ave 713 max 620 min
Histogram: 9 3 0 4 3 1 3 1 1 3
Neighs:    725.536 ave 989 max 435 min
Histogram: 1 4 3 2 2 5 1 5 2 3
FullNghs:  1451.07 ave 1906 max 897 min
Histogram: 1 3 3 4 1 5 1 2 3 5

Total # of neighbors = 40630
Ave neighs/atom = 125.401
Neighbor list builds = 0
Dangerous builds = 0

write_restart   POSCAR_1x1x1.rest

#unfix    1
#undump   1
Total wall time: 0:15:17
