LAMMPS (7 Dec 2015)
#----------- Initialize Simulation ------------ restart01
#processors	2 2 2
units		metal
boundary	p p p     ## periodic boundary condition  on x y z axis ##
atom_style atomic
#atom_modify map array sort 0 0.0

read_data	POSCAR_1x1x1.lammps
  triclinic box = (0 0 0) to (15.2149 13.1765 28.7324) with tilt (-7.60743 0 0)
  2 by 2 by 7 MPI processor grid
  reading atoms ...
  324 atoms

#----------- Define Potential -----------------
pair_style meam
pair_coeff * * MgAlZn.library.meam Mg Al Zn MgAlZn.parameter.meam Mg Al Zn 	#1=Mg 2=Al 3=Zn	#atoms/mass

#----------- Neighbor List --------------------
neighbor 2.0 bin
neigh_modify delay 10 check yes

#--------------  Run a simulation (minimization) ---------------------------------------
minimize       1.0e-4   1.0e-6   100   1000          #結構優化的條件
WARNING: Resetting reneighboring criteria during minimization (../min.cpp:168)
Neighbor list info ...
  2 neighbor list requests
  update every 1 steps, delay 0 steps, check yes
  max neighbors/atom: 2000, page size: 100000
  master list distance cutoff = 8
  ghost atom cutoff = 8
  binsize = 4 -> bins = 6 4 8
Memory usage per processor = 8.65336 Mbytes
Step Temp E_pair E_mol TotEng Press 
       0            0   -519.90959            0   -519.90959    4518.4253 
      13            0   -535.06238            0   -535.06238   -779.04281 
Loop time of 0.0239568 on 28 procs for 13 steps with 324 atoms

90.8% CPU use with 28 MPI tasks x no OpenMP threads

Minimization stats:
  Stopping criterion = energy tolerance
  Energy initial, next-to-last, final = 
        -519.909587156     -535.024811984     -535.062383735
  Force two-norm initial, final = 23.2221 1.93137
  Force max component initial, final = 3.05672 0.638606
  Final line search alpha, max atom move = 0.185153 0.11824
  Iterations, force evaluations = 13 26

MPI task timing breakdown:
Section |  min time  |  avg time  |  max time  |%varavg| %total
---------------------------------------------------------------
Pair    | 0.019216   | 0.020281   | 0.021755   |   0.4 | 84.66
Neigh   | 0          | 0          | 0          |   0.0 |  0.00
Comm    | 0.0013721  | 0.00279    | 0.003854   |   1.2 | 11.65
Output  | 0          | 0          | 0          |   0.0 |  0.00
Modify  | 0          | 0          | 0          |   0.0 |  0.00
Other   |            | 0.0008854  |            |       |  3.70

Nlocal:    11.5714 ave 15 max 9 min
Histogram: 6 4 0 3 0 8 2 0 0 5
Nghost:    656.571 ave 708 max 621 min
Histogram: 6 6 0 3 5 0 0 3 2 3
Neighs:    721.179 ave 984 max 541 min
Histogram: 5 3 5 1 5 3 1 0 2 3
FullNghs:  1442.36 ave 1890 max 1106 min
Histogram: 6 3 1 3 5 3 2 0 0 5

Total # of neighbors = 40386
Ave neighs/atom = 124.648
Neighbor list builds = 0
Dangerous builds = 0
velocity all  create 393.0 4928459 #rot yes dist gaussian

#--------------  Run a simulation (Relaxation)  ----------------------------------------
fix  1  all  nvt   temp  393.0  393.0  100				#damping constant
#fix  2  all  npt   temp  393.0  393.0  50 iso 0.0 0.0 1000.0
#fix  2  all deform 1 x final 0 15.6906 y final 0 13.5884 z final 0 25.2339 xy final -7.8452 units lattice
#fix  3  all  npt   temp  393.0  393.0  50 z 0.0 0.0 1000.0

#variable b equal 1
#fix 2 all efield  0.0  0.0  v_b
#compute pot all pe/atom


#----------- Output --------------------------
thermo	 500
timestep  0.001		#1.0 fs
thermo_style	custom step time temp ke pe etotal press pxx pyy pzz lx ly lz vol

dump 1 all custom 10000 dump.eq id type x y z
dump_modify 1 sort  id

run        1000000	#10000	 ps
Neighbor list info ...
  2 neighbor list requests
  update every 1 steps, delay 10 steps, check yes
  max neighbors/atom: 2000, page size: 100000
  master list distance cutoff = 8
  ghost atom cutoff = 8
  binsize = 4 -> bins = 6 4 8
Memory usage per processor = 7.54383 Mbytes
Step Time Temp KinEng PotEng TotEng Press Pxx Pyy Pzz Lx Ly Lz Volume 
      13            0          393    16.408154   -535.06238   -518.65423    2263.5073    23796.603     33688.73   -50694.811      15.2149      13.1765      28.7324    5760.2466 
     500        0.487    218.56385     9.125265   -527.77381   -518.64854    6346.4077    27800.241    38896.822    -47657.84      15.2149      13.1765      28.7324    5760.2466 
    1000        0.987    203.52109    8.4972146   -527.14466   -518.64745    5016.9552     29170.28    40735.877   -54855.292      15.2149      13.1765      28.7324    5760.2466 
    1500        1.487    220.94885    9.2248413   -527.87341   -518.64857    5542.2368    27863.478    37184.424   -48421.192      15.2149      13.1765      28.7324    5760.2466 
    2000        1.987    210.49994    8.7885885   -527.43609    -518.6475    5009.7886    31248.552    37110.161   -53329.347      15.2149      13.1765      28.7324    5760.2466 
    2500        2.487    224.28926    9.3643069   -528.01155   -518.64724    4832.0079    28354.154     40843.04    -54701.17      15.2149      13.1765      28.7324    5760.2466 
    3000        2.987    216.76706    9.0502472   -527.69639   -518.64615    5937.5122     32063.44    39425.569   -53676.472      15.2149      13.1765      28.7324    5760.2466 
    3500        3.487    208.16412    8.6910657   -527.33516   -518.64409    5548.8466     29813.95    38085.595   -51253.005      15.2149      13.1765      28.7324    5760.2466 
    4000        3.987    208.18696    8.6920193   -527.33397   -518.64195    5175.8169    30879.846    40652.976   -56005.371      15.2149      13.1765      28.7324    5760.2466 
    4500        4.487    225.88618    9.4309801   -528.07241   -518.64143    6250.4574    31286.852    37321.437   -49856.917      15.2149      13.1765      28.7324    5760.2466 
    5000        4.987    210.65235     8.794952   -527.43321   -518.63826    4296.9637    28764.461    39157.395   -55030.964      15.2149      13.1765      28.7324    5760.2466 
    5500        5.487    213.83447    8.9278085   -527.56505   -518.63724    5333.4506    33921.283    38168.646   -56089.578      15.2149      13.1765      28.7324    5760.2466 
    6000        5.987    218.67866    9.1300586   -527.76452   -518.63446    5460.4428    27491.247    40258.118   -51368.037      15.2149      13.1765      28.7324    5760.2466 
    6500        6.487    224.75678    9.3838262   -528.01629   -518.63246    4909.8399    31325.468    37031.728   -53627.676      15.2149      13.1765      28.7324    5760.2466 
    7000        6.987    228.38881    9.5354674   -528.16509   -518.62962     5282.471    29001.729     38534.45   -51688.766      15.2149      13.1765      28.7324    5760.2466 
    7500        7.487    223.32865    9.3242003   -527.95056   -518.62636    5215.5406    28114.323    38559.532   -51027.233      15.2149      13.1765      28.7324    5760.2466 
    8000        7.987     224.1801    9.3597495   -527.98269   -518.62294    4792.9949    28577.431    37452.611   -51651.058      15.2149      13.1765      28.7324    5760.2466 
    8500        8.487    207.14843    8.6486598    -527.2678   -518.61914    4876.4957    29445.348    38343.461   -53159.322      15.2149      13.1765      28.7324    5760.2466 
    9000        8.987    213.48313    8.9131401   -527.52906   -518.61592    5508.9675    29277.888    40582.801   -53333.786      15.2149      13.1765      28.7324    5760.2466 
    9500        9.487    216.14771     9.024389   -527.63644   -518.61205    5953.7534    27984.293    40509.343   -50632.376      15.2149      13.1765      28.7324    5760.2466 
   10000        9.987    213.61647    8.9187069    -527.5271   -518.60839    3774.5702    29907.724    38190.251   -56774.264      15.2149      13.1765      28.7324    5760.2466 
   10500       10.487    215.38826    8.9926808   -527.59694   -518.60426    4748.9402    28943.941    39581.329   -54278.449      15.2149      13.1765      28.7324    5760.2466 
   11000       10.987    228.44231    9.5377011    -528.1379    -518.6002    4628.4108    28050.409    40544.774   -54709.951      15.2149      13.1765      28.7324    5760.2466 
   11500       11.487    212.68596    8.8798574   -527.47491   -518.59505    5123.7966    30185.232    37450.951   -52264.793      15.2149      13.1765      28.7324    5760.2466 
   12000       11.987    221.18162    9.2345598   -527.82492   -518.59036    3956.9282        28973    38702.715   -55804.931      15.2149      13.1765      28.7324    5760.2466 
   12500       12.487    228.72321    9.5494287   -528.13513    -518.5857    5643.9166    30405.499    36497.282   -49971.031      15.2149      13.1765      28.7324    5760.2466 
   13000       12.987    221.17065    9.2341017   -527.81432   -518.58022    4998.5552    29946.017    41947.372   -56897.723      15.2149      13.1765      28.7324    5760.2466 
   13500       13.487    227.41971    9.4950066   -528.07068   -518.57567    5971.0628    31639.619    39063.932   -52790.363      15.2149      13.1765      28.7324    5760.2466 
   14000       13.987    215.78791    9.0093669   -527.57831   -518.56895    5362.2755    26253.426    39535.254   -49701.854      15.2149      13.1765      28.7324    5760.2466 
   14500       14.487    222.61624    9.2944565   -527.85795   -518.56349    5394.4515    29459.453    40345.525   -53621.623      15.2149      13.1765      28.7324    5760.2466 
   15000       14.987    220.11813     9.190158   -527.74729   -518.55714     5624.844    26152.541    40841.819   -50119.828      15.2149      13.1765      28.7324    5760.2466 
   15500       15.487     220.5854    9.2096671    -527.7616   -518.55193    4819.0793    28968.142    38503.037   -53013.942      15.2149      13.1765      28.7324    5760.2466 
   16000       15.987    221.42003    9.2445134   -527.78899   -518.54448    4543.2519     25761.39     39879.31   -52010.944      15.2149      13.1765      28.7324    5760.2466 
   16500       16.487    204.74741    8.5484147   -527.08583   -518.53742    5644.7422    31892.707    39300.414   -54258.894      15.2149      13.1765      28.7324    5760.2466 
   17000       16.987     223.1755    9.3178063   -527.84932   -518.53152      4811.67    29372.094      39076.6   -54013.684      15.2149      13.1765      28.7324    5760.2466 
   17500       17.487    199.59192    8.3331677   -526.85603   -518.52286    4952.4287    29829.882      36433.3   -51405.896      15.2149      13.1765      28.7324    5760.2466 
   18000       17.987    216.87411    9.0547169   -527.57148   -518.51676    5311.6068    30629.243    42576.859   -57271.282      15.2149      13.1765      28.7324    5760.2466 
   18500       18.487    224.53918    9.3747413   -527.88375   -518.50901    5114.6712    28950.197    39201.996   -52808.179      15.2149      13.1765      28.7324    5760.2466 
   19000       18.987    212.64506    8.8781496   -527.37911   -518.50096    5859.2895    28124.232    38833.495   -49379.859      15.2149      13.1765      28.7324    5760.2466 
   19500       19.487    209.85106    8.7614971    -527.2546   -518.49311    5853.3237    28166.284    40748.634   -51354.947      15.2149      13.1765      28.7324    5760.2466 
   20000       19.987    221.23784    9.2369068   -527.72315   -518.48624    6774.3872    29730.833    41171.768   -50579.439      15.2149      13.1765      28.7324    5760.2466 
   20500       20.487    221.90505    9.2647637   -527.74217    -518.4774    5209.5108    27563.408     35938.95   -47873.826      15.2149      13.1765      28.7324    5760.2466 
   21000       20.987    235.65191     9.838709   -528.30876   -518.47005    4873.7459    30010.533    37845.615    -53234.91      15.2149      13.1765      28.7324    5760.2466 
   21500       21.487    229.80294    9.5945089   -528.05528   -518.46077    4605.7585     28947.88    40694.983   -55825.587      15.2149      13.1765      28.7324    5760.2466 
   22000       21.987    204.45131    8.5360521   -526.98724   -518.45119    3880.6171      25880.6     39352.06   -53590.808      15.2149      13.1765      28.7324    5760.2466 
   22500       22.487    224.12759    9.3575569   -527.80087   -518.44331    5811.8718    29643.177    37872.187   -50079.749      15.2149      13.1765      28.7324    5760.2466 
   23000       22.987    222.02936    9.2699536   -527.70348   -518.43353    4458.6112    28584.165    36286.162   -51494.493      15.2149      13.1765      28.7324    5760.2466 
   23500       23.487    219.66965    9.1714333   -527.59583    -518.4244    5574.3912    27396.062    40121.466   -50794.355      15.2149      13.1765      28.7324    5760.2466 
   24000       23.987    212.80999    8.8850357   -527.29934   -518.41431    5378.9787    29927.369    36457.537   -50247.969      15.2149      13.1765      28.7324    5760.2466 
   24500       24.487    228.04195    9.5209854   -527.92665   -518.40567    4491.3884    27872.888     39549.65   -53948.372      15.2149      13.1765      28.7324    5760.2466 
   25000       24.987    227.16481    9.4843641   -527.87979   -518.39543     6361.661     28146.51     39164.37   -48225.897      15.2149      13.1765      28.7324    5760.2466 
   25500       25.487    210.75619    8.7992872   -527.18413   -518.38484    4133.8725    29076.478    42235.561   -58910.421      15.2149      13.1765      28.7324    5760.2466 
   26000       25.987      211.262    8.8204053   -527.19558   -518.37517    3644.2006    28859.178    38417.885   -56344.461      15.2149      13.1765      28.7324    5760.2466 
   26500       26.487    223.95157    9.3502079   -527.71509   -518.36488    7008.4627    31966.529    37883.641   -48824.782      15.2149      13.1765      28.7324    5760.2466 
   27000       26.987    222.50077    9.2896355   -527.64351   -518.35388    5373.9988     28834.37    42492.588   -55204.962      15.2149      13.1765      28.7324    5760.2466 
   27500       27.487    224.05563    9.3545528   -527.69805    -518.3435    5387.4071     28410.04    40741.664   -52989.483      15.2149      13.1765      28.7324    5760.2466 
   28000       27.987    230.32919    9.6164804   -527.94931   -518.33283     4698.813    30574.126    39077.021   -55554.708      15.2149      13.1765      28.7324    5760.2466 
   28500       28.487    222.35829    9.2836871    -527.6053   -518.32161    4842.3276    28788.757    36821.641   -51083.415      15.2149      13.1765      28.7324    5760.2466 
   29000       28.987    217.25645      9.07068    -527.3814   -518.31072    5555.3588    28492.002    39912.414    -51738.34      15.2149      13.1765      28.7324    5760.2466 
   29500       29.487    222.20301    9.2772039    -527.5763    -518.2991    4791.0087    31291.322    37631.603   -54549.899      15.2149      13.1765      28.7324    5760.2466 
   30000       29.987    214.70936    8.9643361   -527.25247   -518.28813    4555.0568    31293.311    37739.588   -55367.729      15.2149      13.1765      28.7324    5760.2466 
   30500       30.487    204.22503    8.5266048   -526.80253   -518.27593    6043.4409    30185.279    38098.645   -50153.601      15.2149      13.1765      28.7324    5760.2466 
   31000       30.987    222.98968     9.310048   -527.57549   -518.26544    6048.9269     33748.71    40367.291   -55969.221      15.2149      13.1765      28.7324    5760.2466 
   31500       31.487    214.64449    8.9616277   -527.21508   -518.25345    4702.4004    27518.112    39948.035   -53358.946      15.2149      13.1765      28.7324    5760.2466 
   32000       31.987     229.4487    9.5797187   -527.82111   -518.24139     5338.332    30447.103    36627.266   -51059.374      15.2149      13.1765      28.7324    5760.2466 
   32500       32.487    218.19793    9.1099878   -527.33829   -518.22831     5200.885    27882.351    37691.923   -49971.619      15.2149      13.1765      28.7324    5760.2466 
   33000       32.987    227.45059    9.4962957    -527.7131    -518.2168    5597.1761    28015.783     38770.19   -49994.445      15.2149      13.1765      28.7324    5760.2466 
   33500       33.487    226.35087     9.450381    -527.6548   -518.20442    4697.3518    27949.485    38185.703   -52043.133      15.2149      13.1765      28.7324    5760.2466 
   34000       33.987    231.03462    9.6459325   -527.83887   -518.19294    4110.4432    29038.255    38704.495    -55411.42      15.2149      13.1765      28.7324    5760.2466 
   34500       34.487     223.0164    9.3111637   -527.49108   -518.17992    6193.6326    31288.629    39271.652   -51979.383      15.2149      13.1765      28.7324    5760.2466 
   35000       34.987    224.98214    9.3932354   -527.56002   -518.16679    4952.5834    27049.064    41076.149   -53267.463      15.2149      13.1765      28.7324    5760.2466 
   35500       35.487    232.99763    9.7278903   -527.88237   -518.15448    5749.5497    31817.044    38464.998   -53033.392      15.2149      13.1765      28.7324    5760.2466 
   36000       35.987    218.38422    9.1177655   -527.25945   -518.14168    4499.0479    28756.486    39211.604   -54470.947      15.2149      13.1765      28.7324    5760.2466 
   36500       36.487    232.91331    9.7243697    -527.8539   -518.12953    6354.3949    30171.598     34697.67   -45806.084      15.2149      13.1765      28.7324    5760.2466 
   37000       36.987    213.94993    8.9326292   -527.04888   -518.11625    4384.4684     30172.44    36962.401   -53981.436      15.2149      13.1765      28.7324    5760.2466 
   37500       37.487    217.67659    9.0882213   -527.19058   -518.10236    3834.2414    28981.629    41222.112   -58701.016      15.2149      13.1765      28.7324    5760.2466 
   38000       37.987    216.69673    9.0473109   -527.13764   -518.09033    6137.8713    32786.003    38981.647   -53354.037      15.2149      13.1765      28.7324    5760.2466 
   38500       38.487    219.22393     9.152824   -527.23101   -518.07819    6158.6244    29415.445    43061.403   -54000.975      15.2149      13.1765      28.7324    5760.2466 
   39000       38.987    226.42982    9.4536775   -527.51852   -518.06484     3768.878    27221.879      40085.3   -56000.544      15.2149      13.1765      28.7324    5760.2466 
   39500       39.487    229.55089    9.5839855   -527.63597   -518.05198    5484.6685    29415.548    42830.556   -55792.099      15.2149      13.1765      28.7324    5760.2466 
   40000       39.987    216.65757    9.0456762   -527.08472   -518.03905    4724.0154    32429.133    39070.473    -57327.56      15.2149      13.1765      28.7324    5760.2466 
   40500       40.487    232.68971    9.7150345   -527.74246   -518.02742    4623.0412    28178.732    40711.816   -55021.424      15.2149      13.1765      28.7324    5760.2466 
   41000       40.987    212.26175    8.8621461   -526.87633   -518.01418    7138.0042     29858.01    42413.608   -50857.606      15.2149      13.1765      28.7324    5760.2466 
   41500       41.487    218.21503    9.1107017   -527.11145   -518.00074    5413.0431    31103.629    39689.173   -54553.673      15.2149      13.1765      28.7324    5760.2466 
   42000       41.987     219.7077    9.1730222   -527.16093   -517.98791    6292.1849    31404.419    35942.361   -48470.225      15.2149      13.1765      28.7324    5760.2466 
   42500       42.487    227.00344    9.4776267   -527.45211   -517.97448    4619.1925    27447.834     40427.13   -54017.387      15.2149      13.1765      28.7324    5760.2466 
   43000       42.987    215.89022    9.0136382   -526.97478   -517.96114    5554.1619    32190.785     39219.47    -54747.77      15.2149      13.1765      28.7324    5760.2466 
   43500       43.487    229.64476    9.5879045   -527.53673   -517.94883    5454.8394    29745.066    37786.569   -51167.117      15.2149      13.1765      28.7324    5760.2466 
   44000       43.987    217.67867    9.0883081   -527.02391    -517.9356    4424.2236    28046.893    38802.984   -53577.206      15.2149      13.1765      28.7324    5760.2466 
   44500       44.487    236.77297    9.8855147   -527.80929   -517.92378    5706.7118    27994.178    38622.143   -49496.185      15.2149      13.1765      28.7324    5760.2466 
   45000       44.987    235.77876    9.8440055   -527.75445   -517.91045    5568.8938    30731.235    37401.703   -51426.257      15.2149      13.1765      28.7324    5760.2466 
   45500       45.487    228.46001      9.53844   -527.43467   -517.89623    4644.1467    31821.402    39937.349    -57826.31      15.2149      13.1765      28.7324    5760.2466 
   46000       45.987    232.60167    9.7113584    -527.5963   -517.88494    6194.4078    27065.071    39162.123    -47643.97      15.2149      13.1765      28.7324    5760.2466 
   46500       46.487      229.635    9.5874969   -527.45941   -517.87191    5301.4993    30944.508    40312.719   -55352.729      15.2149      13.1765      28.7324    5760.2466 
   47000       46.987    223.74132    9.3414297   -527.19989   -517.85846     5506.017    30355.696    40764.485    -54602.13      15.2149      13.1765      28.7324    5760.2466 
   47500       47.487    215.81232    9.0103861   -526.85577   -517.84538    4662.6291    28394.277    38360.143   -52766.532      15.2149      13.1765      28.7324    5760.2466 
   48000       47.987    214.41131    8.9518923    -526.7849   -517.83301     4639.371     29766.69    42301.392    -58149.97      15.2149      13.1765      28.7324    5760.2466 
   48500       48.487     225.4193    9.4114871   -527.23191   -517.82043    5113.8306    29116.504    40319.331   -54094.343      15.2149      13.1765      28.7324    5760.2466 
   49000       48.987    228.81441    9.5532367   -527.36194   -517.80871    4992.3182    29448.718    37939.435   -52411.198      15.2149      13.1765      28.7324    5760.2466 
   49500       49.487     230.3105    9.6156998   -527.41205   -517.79635    5556.7075    27878.077     39705.81   -50913.764      15.2149      13.1765      28.7324    5760.2466 
   50000       49.987    219.26599    9.1545801   -526.93761   -517.78303    6436.7408    30557.933     42862.82    -54110.53      15.2149      13.1765      28.7324    5760.2466 
   50500       50.487    225.53769    9.4164303   -527.18818   -517.77175    4638.1057    27478.842    37353.623   -50918.148      15.2149      13.1765      28.7324    5760.2466 
   51000       50.987    231.97688    9.6852728   -527.44524   -517.75997    5891.3207    31384.479    41609.747   -55320.264      15.2149      13.1765      28.7324    5760.2466 
   51500       51.487     221.9717    9.2675466   -527.01403   -517.74649    4159.2697    26752.233    39731.973   -54006.397      15.2149      13.1765      28.7324    5760.2466 
   52000       51.987    238.30349    9.9494156     -527.685   -517.73558    5008.5539    27676.311    42324.242   -54974.891      15.2149      13.1765      28.7324    5760.2466 
   52500       52.487    229.32268    9.5744575   -527.29771   -517.72325    5599.5708    32647.965    38978.064   -54827.317      15.2149      13.1765      28.7324    5760.2466 
   53000       52.987    220.58397    9.2096071   -526.92019   -517.71059    5100.1788        30530    37623.118   -52852.582      15.2149      13.1765      28.7324    5760.2466 
   53500       53.487    229.33104    9.5748065   -527.27388   -517.69907    4436.2661    30373.571    38931.228       -55996      15.2149      13.1765      28.7324    5760.2466 
   54000       53.987    233.43157    9.7460079   -527.43338   -517.68737    5460.6224    28637.039    38118.108   -50373.279      15.2149      13.1765      28.7324    5760.2466 
   54500       54.487    230.62504    9.6288321   -527.30407   -517.67524    5515.5069    31168.146    35780.545    -50402.17      15.2149      13.1765      28.7324    5760.2466 
   55000       54.987    218.20764    9.1103932   -526.77422   -517.66382    4251.2194    30008.753    42830.663   -60085.758      15.2149      13.1765      28.7324    5760.2466 
   55500       55.487    221.03665    9.2285071   -526.88034   -517.65183    5748.9566    31391.569    41187.292   -55331.991      15.2149      13.1765      28.7324    5760.2466 
   56000       55.987    230.63053    9.6290615   -527.26978   -517.64072    6817.5574    30266.891    35333.459   -45147.678      15.2149      13.1765      28.7324    5760.2466 
   56500       56.487    242.11145    10.108402   -527.73818   -517.62978    5282.7078    28432.798    38982.733   -51567.408      15.2149      13.1765      28.7324    5760.2466 
   57000       56.987    218.36625    9.1170152   -526.73506   -517.61805    4916.1668    29236.058    39184.149   -53671.706      15.2149      13.1765      28.7324    5760.2466 
   57500       57.487    231.07455    9.6475997   -527.25416   -517.60656    6146.9231    30501.884    38344.108   -50405.223      15.2149      13.1765      28.7324    5760.2466 
   58000       57.987    227.66918    9.5054219   -527.10038   -517.59495    5283.4839    29320.495    36391.607    -49861.65      15.2149      13.1765      28.7324    5760.2466 
   58500       58.487    237.26506      9.90606   -527.48996    -517.5839    4201.5138    31384.929    38576.555   -57356.943      15.2149      13.1765      28.7324    5760.2466 
   59000       58.987    217.15275    9.0663503   -526.63892   -517.57257    6300.3953    29354.107    39198.669    -49651.59      15.2149      13.1765      28.7324    5760.2466 
   59500       59.487    237.44563    9.9135987    -527.4748    -517.5612    5143.2105    30470.681    37094.847   -52135.896      15.2149      13.1765      28.7324    5760.2466 
   60000       59.987     239.1216    9.9835725   -527.53423   -517.55066    5725.1483    30689.245     38165.93    -51679.73      15.2149      13.1765      28.7324    5760.2466 
   60500       60.487    229.34839     9.575531   -527.11461   -517.53908    5837.0555     27980.12    37771.093   -48240.046      15.2149      13.1765      28.7324    5760.2466 
   61000       60.987    233.74653    9.7591577   -527.28826    -517.5291    4481.6647    26469.498    38054.226    -51078.73      15.2149      13.1765      28.7324    5760.2466 
   61500       61.487    242.02038    10.104599   -527.62326   -517.51866    6911.2569    30331.701    36990.352   -46588.282      15.2149      13.1765      28.7324    5760.2466 
   62000       61.987    237.78986    9.9279707   -527.43459   -517.50662    4209.6169    30227.177    39023.811   -56622.137      15.2149      13.1765      28.7324    5760.2466 
   62500       62.487    226.09261    9.4395988   -526.93503   -517.49544    4626.2713    31066.583    37296.116   -54483.885      15.2149      13.1765      28.7324    5760.2466 
   63000       62.987     230.4761     9.622614    -527.1075   -517.48488    6485.7298    31104.703    43436.946   -55084.459      15.2149      13.1765      28.7324    5760.2466 
   63500       63.487    243.38852    10.161721   -527.63664   -517.47492    5163.3009    27367.098    39620.656   -51497.851      15.2149      13.1765      28.7324    5760.2466 
   64000       63.987    230.71728    9.6326835   -527.09665   -517.46397    5491.0186    28124.368    40655.441   -52306.753      15.2149      13.1765      28.7324    5760.2466 
   64500       64.487     247.4514     10.33135   -527.78464   -517.45329    5822.0421    30615.133     39126.75   -52275.757      15.2149      13.1765      28.7324    5760.2466 
   65000       64.987    235.12754    9.8168162   -527.25929   -517.44247    4482.4742    27960.522    39045.474   -53558.573      15.2149      13.1765      28.7324    5760.2466 
   65500       65.487    223.51863    9.3321322   -526.76288   -517.43074    6118.2661    27514.201    39887.984   -49047.386      15.2149      13.1765      28.7324    5760.2466 
   66000       65.987    229.74679    9.5921645   -527.01283   -517.42067    5009.4857    26708.419    37481.058    -49161.02      15.2149      13.1765      28.7324    5760.2466 
   66500       66.487    230.53393    9.6250283   -527.03566   -517.41063    5742.2011    30595.464     38507.37   -51876.232      15.2149      13.1765      28.7324    5760.2466 
   67000       66.987    230.64102    9.6294993   -527.02898   -517.39948    4558.7094    27913.745    38343.535   -52581.151      15.2149      13.1765      28.7324    5760.2466 
   67500       67.487    233.08212    9.7314178   -527.12036   -517.38894    3977.7526    27002.192    39129.469   -54198.403      15.2149      13.1765      28.7324    5760.2466 
   68000       67.987    226.31509    9.4488875   -526.82719    -517.3783    3158.9369    28965.064    37576.086   -57064.339      15.2149      13.1765      28.7324    5760.2466 
   68500       68.487    235.16124    9.8182231   -527.18604   -517.36782    5473.3348     30248.11    41034.596   -54862.702      15.2149      13.1765      28.7324    5760.2466 
   69000       68.987    235.44406    9.8300314   -527.18713    -517.3571    5506.3816     29387.15    41045.711   -53913.716      15.2149      13.1765      28.7324    5760.2466 
   69500       69.487    240.91287     10.05836   -527.40574   -517.34738    5580.5299    34221.124    38357.462   -55836.997      15.2149      13.1765      28.7324    5760.2466 
   70000       69.987    225.59581    9.4188566   -526.75448   -517.33562    6578.6305    27863.111    40274.253   -48401.473      15.2149      13.1765      28.7324    5760.2466 
   70500       70.487    216.54464    9.0409612   -526.36521   -517.32425      6464.02    31170.353    41082.737    -52861.03      15.2149      13.1765      28.7324    5760.2466 
   71000       70.987    237.89706    9.9324464   -527.24729   -517.31485     5971.788    33150.526    35964.378    -51199.54      15.2149      13.1765      28.7324    5760.2466 
   71500       71.487    227.25489     9.488125   -526.79251   -517.30439    5405.9096    30274.554    40507.091   -54563.916      15.2149      13.1765      28.7324    5760.2466 
   72000       71.987    228.72367    9.5494479    -526.8424   -517.29295    6587.0106    29437.172    39591.584   -49267.724      15.2149      13.1765      28.7324    5760.2466 
   72500       72.487    240.96239    10.060427   -527.34293    -517.2825     5459.425    32660.928    38192.622   -54475.275      15.2149      13.1765      28.7324    5760.2466 
   73000       72.987    242.53051    10.125898   -527.39819   -517.27229    5001.2173    30757.038    39434.341   -55187.727      15.2149      13.1765      28.7324    5760.2466 
   73500       73.487    214.83954    8.9697714   -526.23048   -517.26071    5607.7269    29014.119    40148.451   -52339.389      15.2149      13.1765      28.7324    5760.2466 
   74000       73.987    236.91737    9.8915436   -527.14314    -517.2516    5067.9123    29774.253     40221.27   -54791.786      15.2149      13.1765      28.7324    5760.2466 
   74500       74.487    237.12867    9.9003655   -527.14067    -517.2403    6111.4398    30807.453    40048.074   -52521.208      15.2149      13.1765      28.7324    5760.2466 
   75000       74.987    218.35494     9.116543   -526.34547   -517.22893    4990.3133    27477.302    40930.954   -53437.315      15.2149      13.1765      28.7324    5760.2466 
   75500       75.487     243.5366    10.167903   -527.38678   -517.21888    5360.3365    29611.482    38881.292   -52411.764      15.2149      13.1765      28.7324    5760.2466 
   76000       75.987    213.07336    8.8960315   -526.10322   -517.20718     4480.707     30940.24    34975.298   -52473.417      15.2149      13.1765      28.7324    5760.2466 
   76500       76.487    233.41558    9.7453401   -526.94199   -517.19665    4483.2708    30231.842    38868.218   -55650.247      15.2149      13.1765      28.7324    5760.2466 
   77000       76.987    215.57338      9.00041   -526.18528   -517.18487    5795.6538    29342.001     35955.12    -47910.16      15.2149      13.1765      28.7324    5760.2466 
   77500       77.487    231.40424    9.6613647   -526.83594   -517.17458    4865.9487    26739.731    38479.129   -50621.014      15.2149      13.1765      28.7324    5760.2466 
   78000       77.987     243.2362    10.155361   -527.31997   -517.16461    5077.5824    26652.865    39610.556   -51030.674      15.2149      13.1765      28.7324    5760.2466 
   78500       78.487     238.0222    9.9376711   -527.09089   -517.15322    4461.1428    30205.097    41055.375   -57877.044      15.2149      13.1765      28.7324    5760.2466 
   79000       78.987     235.2613    9.8224007   -526.96367   -517.14127    5369.8745    30754.529    39925.783   -54570.688      15.2149      13.1765      28.7324    5760.2466 
   79500       79.487    250.10657    10.442206   -527.57328   -517.13108    5923.8643    31159.175     40681.54   -54069.122      15.2149      13.1765      28.7324    5760.2466 
   80000       79.987    236.83793    9.8882266   -527.00825   -517.12002    4860.3959     29617.39    43335.407    -58371.61      15.2149      13.1765      28.7324    5760.2466 
   80500       80.487    234.05139    9.7718857   -526.87986   -517.10798    5752.4214    32386.247    40382.898    -55511.88      15.2149      13.1765      28.7324    5760.2466 
   81000       80.987    230.94708    9.6422778   -526.73949   -517.09721     5688.721    30107.384    40524.391   -53565.611      15.2149      13.1765      28.7324    5760.2466 
   81500       81.487    233.63517    9.7545082   -526.84032   -517.08581    6148.5524    32561.037    40960.227   -55075.607      15.2149      13.1765      28.7324    5760.2466 
   82000       81.987    243.36658    10.160804   -527.23534   -517.07454    3916.0796    30066.623    40824.035    -59142.42      15.2149      13.1765      28.7324    5760.2466 
   82500       82.487     231.9773    9.6852906   -526.74832   -517.06303    6277.3372    35031.368    36862.145   -53061.502      15.2149      13.1765      28.7324    5760.2466 
   83000       82.987    232.76422    9.7181453   -526.76915     -517.051     4932.027    31844.769    39702.383   -56751.071      15.2149      13.1765      28.7324    5760.2466 
   83500       83.487    221.57893     9.251148   -526.29077   -517.03963    4216.5178    31682.154    35092.604   -54125.204      15.2149      13.1765      28.7324    5760.2466 
   84000       83.987     234.6058    9.7950331   -526.82367   -517.02863    5266.9643    31900.719    39829.741   -55929.567      15.2149      13.1765      28.7324    5760.2466 
   84500       84.487    243.89008    10.182661   -527.19992   -517.01726    5351.2504      31292.5    35126.989   -50365.738      15.2149      13.1765      28.7324    5760.2466 
   85000       84.987    238.69151    9.9656158   -526.97182    -517.0062    4701.1224    31976.818    37718.789    -55592.24      15.2149      13.1765      28.7324    5760.2466 
   85500       85.487    236.56047    9.8766426   -526.87101   -516.99437     5137.036    30287.496    38726.425   -53602.812      15.2149      13.1765      28.7324    5760.2466 
   86000       85.987    227.68415    9.5060472   -526.48952   -516.98347    4394.8563    28478.046    40948.702   -56242.179      15.2149      13.1765      28.7324    5760.2466 
   86500       86.487    231.78728    9.6773569   -526.64889   -516.97154    5170.9379    27152.375    38785.937   -50425.498      15.2149      13.1765      28.7324    5760.2466 
   87000       86.987    238.60663    9.9620718   -526.92218    -516.9601    5929.2779    29426.159    41145.833   -52784.159      15.2149      13.1765      28.7324    5760.2466 
   87500       87.487    244.25217    10.197779    -527.1457   -516.94792    4497.8617    28162.984    41097.822   -55767.221      15.2149      13.1765      28.7324    5760.2466 
   88000       87.987    245.33788    10.243108   -527.17925   -516.93614    5478.2588    31165.729     39263.39   -53994.343      15.2149      13.1765      28.7324    5760.2466 
   88500       88.487    235.52427    9.8333801   -526.75757   -516.92419     3323.441    28206.611    37079.396   -55315.684      15.2149      13.1765      28.7324    5760.2466 
   89000       88.987    234.66575    9.7975361   -526.70978   -516.91225    4930.0887    29734.372    39009.338   -53953.444      15.2149      13.1765      28.7324    5760.2466 
   89500       89.487    226.17898    9.4432047   -526.34344   -516.90023     6005.917    30577.521    38177.487   -50737.257      15.2149      13.1765      28.7324    5760.2466 
   90000       89.987    244.48548     10.20752   -527.09708   -516.88956    6744.7121    33210.571    38153.821   -51130.255      15.2149      13.1765      28.7324    5760.2466 
   90500       90.487    235.44385    9.8300224   -526.70689   -516.87687    6658.5658    32519.525    37898.834   -50442.662      15.2149      13.1765      28.7324    5760.2466 
   91000       90.987    237.12686    9.9002901   -526.76563   -516.86534    5141.3221    27277.813    40527.372   -52381.219      15.2149      13.1765      28.7324    5760.2466 
   91500       91.487    233.29021    9.7401058   -526.59303   -516.85293    6347.5166    27308.398        42650   -50915.847      15.2149      13.1765      28.7324    5760.2466 
   92000       91.987    236.72742    9.8836131   -526.72427   -516.84066    4899.0563    31151.741    39100.431   -55555.003      15.2149      13.1765      28.7324    5760.2466 
   92500       92.487    232.03724    9.6877929   -526.51544   -516.82765    5684.9806    31192.424    41815.556   -55953.039      15.2149      13.1765      28.7324    5760.2466 
   93000       92.987    240.08381    10.023746   -526.84068   -516.81693    5829.3651    33431.345    40907.144   -56850.393      15.2149      13.1765      28.7324    5760.2466 
   93500       93.487     241.3202    10.075366   -526.87937   -516.80401    5035.1747    28252.754    41598.453   -54745.683      15.2149      13.1765      28.7324    5760.2466 
   94000       93.987    240.40715    10.037245   -526.82782   -516.79058    5418.8992    27542.833     40812.69   -52098.826      15.2149      13.1765      28.7324    5760.2466 
   94500       94.487    241.10749    10.066485   -526.84591   -516.77943    6313.3739    26882.019    41065.166   -49007.064      15.2149      13.1765      28.7324    5760.2466 
   95000       94.987    238.37309    9.9523212    -526.7185   -516.76617     6204.143    31022.601    40438.971   -52849.143      15.2149      13.1765      28.7324    5760.2466 
   95500       95.487    239.24515    9.9887305   -526.74216   -516.75343    5944.0087    32630.803    37877.641   -52676.418      15.2149      13.1765      28.7324    5760.2466 
   96000       95.987    238.28753    9.9487489   -526.68937   -516.74062    5133.6477    29544.617    43758.599   -57902.272      15.2149      13.1765      28.7324    5760.2466 
   96500       96.487    237.97482     9.935693   -526.66358   -516.72789     5289.672    28022.479    41609.968   -53763.431      15.2149      13.1765      28.7324    5760.2466 
   97000       96.987    247.94844    10.352102   -527.06742   -516.71531    5958.7068    27047.614    39582.532   -48754.026      15.2149      13.1765      28.7324    5760.2466 
   97500       97.487    249.22253    10.405296   -527.10824   -516.70294    5871.0219    28490.395    37504.586   -48381.914      15.2149      13.1765      28.7324    5760.2466 
   98000       97.987    220.13284     9.190772   -525.87943   -516.68866    4096.9733    29628.709    39975.682   -57313.471      15.2149      13.1765      28.7324    5760.2466 
   98500       98.487    221.71739    9.2569289   -525.93311   -516.67618     3624.111    28257.459    39559.746   -56944.872      15.2149      13.1765      28.7324    5760.2466 
   99000       98.987    241.72029     10.09207   -526.75644   -516.66437    7318.3968    28942.629    38615.014   -45602.453      15.2149      13.1765      28.7324    5760.2466 
   99500       99.487     237.6929    9.9239227   -526.57504   -516.65112    4699.8017    31169.936    40292.255   -57362.786      15.2149      13.1765      28.7324    5760.2466 
  100000       99.987    240.97784    10.061072   -526.69944   -516.63836     5569.573    29266.185    40353.139   -52910.604      15.2149      13.1765      28.7324    5760.2466 
  100500      100.487    237.23737    9.9049039    -526.5287   -516.62379    5697.4883    30023.667    39145.716   -52076.918      15.2149      13.1765      28.7324    5760.2466 
  101000      100.987    239.13385    9.9840838   -526.59572   -516.61164     4000.757    29177.862    38701.433   -55877.024      15.2149      13.1765      28.7324    5760.2466 
  101500      101.487    234.74208    9.8007227   -526.39837   -516.59764    5238.5656    26981.796    41721.773   -52987.873      15.2149      13.1765      28.7324    5760.2466 
  102000      101.987     235.7017    9.8407881   -526.42512   -516.58433    4074.4694     28959.91      37831.7   -54568.202      15.2149      13.1765      28.7324    5760.2466 
  102500      102.487    257.00218    10.730105   -527.30156   -516.57146    4865.1314    29028.514    41151.003   -55584.123      15.2149      13.1765      28.7324    5760.2466 
  103000      102.987    238.02647    9.9378493   -526.49442   -516.55657     6343.243    29231.383    39614.023   -49815.677      15.2149      13.1765      28.7324    5760.2466 
  103500      103.487    245.57343    10.252943   -526.79711   -516.54416    4960.3266    26737.622    36860.934   -48717.576      15.2149      13.1765      28.7324    5760.2466 
  104000      103.987    244.12265    10.192371   -526.72195   -516.52958    5663.8508    29284.394    41609.554   -53902.395      15.2149      13.1765      28.7324    5760.2466 
  104500      104.487    232.89639    9.7236636   -526.23985   -516.51619    4876.7472    30159.552    42529.207   -58058.517      15.2149      13.1765      28.7324    5760.2466 
  105000      104.987    245.00502    10.229211   -526.73171    -516.5025    3986.8285    29302.127    38923.017   -56264.659      15.2149      13.1765      28.7324    5760.2466 
  105500      105.487    243.61885    10.171337   -526.66033   -516.48899    4209.7738    28416.075     39291.64   -55078.393      15.2149      13.1765      28.7324    5760.2466 
  106000      105.987    236.38067    9.8691358    -526.3434   -516.47427    4149.6763    26750.541    39121.854   -53423.365      15.2149      13.1765      28.7324    5760.2466 
  106500      106.487    240.41596    10.037613   -526.49807   -516.46046    4576.2248    29467.231    38607.061   -54345.618      15.2149      13.1765      28.7324    5760.2466 
  107000      106.987    241.59893    10.087003   -526.53378   -516.44678    5241.8213    28734.201     42549.78   -55558.517      15.2149      13.1765      28.7324    5760.2466 
  107500      107.487    252.97748    10.562069   -526.99507     -516.433    6428.4327    29662.011    37314.339   -47691.052      15.2149      13.1765      28.7324    5760.2466 
  108000      107.987    247.09201    10.316345   -526.73603   -516.41968    5517.3225    26079.632    39058.373   -48586.037      15.2149      13.1765      28.7324    5760.2466 
  108500      108.487     244.9493    10.226885   -526.63249   -516.40561    4727.1629    27640.997    37746.558   -51206.066      15.2149      13.1765      28.7324    5760.2466 
  109000      108.987    256.58655    10.712752     -527.104   -516.39124    4027.6457      27083.7     40024.12   -55024.883      15.2149      13.1765      28.7324    5760.2466 
  109500      109.487    237.42534    9.9127519   -526.28872   -516.37597    4415.0859    29059.987    42937.454   -58752.183      15.2149      13.1765      28.7324    5760.2466 
  110000      109.987    249.46987    10.415623   -526.77898   -516.36336    6042.5575    32708.813    38505.484   -53086.625      15.2149      13.1765      28.7324    5760.2466 
  110500      110.487    240.92535    10.058881   -526.40665   -516.34777    6644.9911    31066.857     39624.98   -50756.864      15.2149      13.1765      28.7324    5760.2466 
  111000      110.987    255.61455     10.67217   -527.00678   -516.33461    3537.0484    29795.076    38029.386   -57213.316      15.2149      13.1765      28.7324    5760.2466 
  111500      111.487    236.92366    9.8918063   -526.21119   -516.31938    4525.3305    29005.121    41343.873   -56773.003      15.2149      13.1765      28.7324    5760.2466 
  112000      111.987    244.60632    10.212565   -526.51785   -516.30528    6657.1712     30060.62    38363.963   -48453.069      15.2149      13.1765      28.7324    5760.2466 
  112500      112.487    243.45239    10.164387    -526.4551   -516.29071    5041.3735     27622.07    39694.562   -52192.511      15.2149      13.1765      28.7324    5760.2466 
  113000      112.987    243.60273    10.170664   -526.44629   -516.27563    5202.0879     29944.44    37242.693    -51580.87      15.2149      13.1765      28.7324    5760.2466 
  113500      113.487    240.90651    10.058094   -526.31931   -516.26122    6501.8895    31229.432    39146.807   -50870.571      15.2149      13.1765      28.7324    5760.2466 
  114000      113.987    240.75398    10.051726    -526.2981   -516.24637     4296.014    28743.473    40477.404   -56332.835      15.2149      13.1765      28.7324    5760.2466 
  114500      114.487    240.50676    10.041404   -526.27276   -516.23136    5292.4093    29914.414    39586.732   -53623.918      15.2149      13.1765      28.7324    5760.2466 
  115000      114.987    245.27858    10.240632   -526.45842   -516.21778    5545.0872    28482.799    39564.281   -51411.818      15.2149      13.1765      28.7324    5760.2466 
  115500      115.487    236.36714    9.8685709   -526.07105   -516.20248    4510.3045     30538.86    37720.535   -54728.481      15.2149      13.1765      28.7324    5760.2466 
  116000      115.987    240.72875    10.050673   -526.23918    -516.1885    4995.0997    31323.047    40743.501   -57081.249      15.2149      13.1765      28.7324    5760.2466 
  116500      116.487    256.78081    10.720862   -526.89515   -516.17429    5859.5765    29698.833    39567.904   -51688.008      15.2149      13.1765      28.7324    5760.2466 
  117000      116.987    241.36082    10.077062   -526.23537   -516.15831    6610.2193    33152.617    40808.389   -54130.349      15.2149      13.1765      28.7324    5760.2466 
  117500      117.487    254.46222    10.624059   -526.76787   -516.14381    5292.7701    28802.139    40825.212    -53749.04      15.2149      13.1765      28.7324    5760.2466 
  118000      117.987    253.64567    10.589967   -526.71968   -516.12971    5032.8932    27635.356    35612.539   -48149.216      15.2149      13.1765      28.7324    5760.2466 
  118500      118.487    237.29641    9.9073687   -526.02102   -516.11366    5199.2162    31022.107    37532.377   -52956.835      15.2149      13.1765      28.7324    5760.2466 
  119000      118.987    238.17403    9.9440103   -526.04272   -516.09871    5957.9698    30671.345    42516.495   -55313.931      15.2149      13.1765      28.7324    5760.2466 
  119500      119.487    242.84976    10.139227   -526.22393   -516.08471    5844.3912    30387.201    41215.875   -54069.902      15.2149      13.1765      28.7324    5760.2466 
  120000      119.987    241.09726    10.066058   -526.13613   -516.07007     5631.836    29297.539    42838.368   -55240.399      15.2149      13.1765      28.7324    5760.2466 
  120500      120.487    238.28968    9.9488387   -526.00261   -516.05377    6520.5732    30107.414    40180.152   -50725.847      15.2149      13.1765      28.7324    5760.2466 
  121000      120.987    243.97038    10.186014   -526.22558   -516.03956    5609.6677     29104.16    41830.832   -54105.989      15.2149      13.1765      28.7324    5760.2466 
  121500      121.487    247.62653    10.338662   -526.36373   -516.02507    5029.1956    33297.499    41990.271   -60200.183      15.2149      13.1765      28.7324    5760.2466 
  122000      121.987    240.71334    10.050029    -526.0591   -516.00908    5255.6218    33319.871    40420.099   -57973.105      15.2149      13.1765      28.7324    5760.2466 
  122500      122.487    255.08893    10.650225   -526.64479   -515.99456    6563.3357    29091.862    41872.121   -51273.976      15.2149      13.1765      28.7324    5760.2466 
  123000      122.987     240.6401    10.046971   -526.02585   -515.97888    5201.0386    30789.085    40909.147   -56095.116      15.2149      13.1765      28.7324    5760.2466 
  123500      123.487    235.75859    9.8431631   -525.80613   -515.96296     5332.728      33137.4    36629.367   -53768.583      15.2149      13.1765      28.7324    5760.2466 
  124000      123.987    255.66901    10.674444   -526.62328   -515.94883    6504.5271    29828.683    39817.239   -50132.341      15.2149      13.1765      28.7324    5760.2466 
  124500      124.487    250.35052    10.452391   -526.38603   -515.93364    5039.6919    31705.845    39061.025   -55647.795      15.2149      13.1765      28.7324    5760.2466 
  125000      124.987    250.57246    10.461657   -526.37926    -515.9176    4867.6459     28630.07    42951.513   -56978.645      15.2149      13.1765      28.7324    5760.2466 
  125500      125.487    254.12432    10.609951   -526.51288   -515.90292    4935.7718    30349.142    40250.986   -55792.813      15.2149      13.1765      28.7324    5760.2466 
  126000      125.987    264.98565    11.063423   -526.95142     -515.888    6280.8415    31274.885    37698.078   -50130.438      15.2149      13.1765      28.7324    5760.2466 
  126500      126.487    265.25637    11.074726   -526.94699   -515.87226     6103.236    28260.626    37884.099   -47835.018      15.2149      13.1765      28.7324    5760.2466 
  127000      126.987    242.41441    10.121051   -525.97616   -515.85511    6429.0913    28332.482    39727.268   -48772.476      15.2149      13.1765      28.7324    5760.2466 
  127500      127.487    252.57339    10.545199   -526.38586   -515.84066    6323.2827    30663.901    40265.147   -51959.199      15.2149      13.1765      28.7324    5760.2466 
  128000      127.987    257.52195    10.751806   -526.57717   -515.82536    6407.7482    29634.746    41349.218   -51760.719      15.2149      13.1765      28.7324    5760.2466 
  128500      128.487    246.53566    10.293117   -526.10274   -515.80962    5118.3854    33332.299    40326.133   -58303.275      15.2149      13.1765      28.7324    5760.2466 
  129000      128.987    247.72049    10.342585   -526.13708   -515.79449    6013.7115     28150.25    40921.157   -51030.273      15.2149      13.1765      28.7324    5760.2466 
  129500      129.487    257.28823    10.742048   -526.52098   -515.77893    6007.0799    31432.229    37508.866   -50919.855      15.2149      13.1765      28.7324    5760.2466 
  130000      129.987    250.19214    10.445779   -526.20917   -515.76339     6036.325    29895.725    43049.903   -54836.653      15.2149      13.1765      28.7324    5760.2466 
  130500      130.487    257.80706    10.763709   -526.51147   -515.74776    4443.3935    26804.877    39917.712   -53392.409      15.2149      13.1765      28.7324    5760.2466 
  131000      130.987    258.48174    10.791878   -526.52416   -515.73228    5274.3434    33214.004    41389.673   -58780.647      15.2149      13.1765      28.7324    5760.2466 
  131500      131.487    255.73951    10.677387   -526.39431   -515.71692    5034.6989    29829.458    40266.991   -54992.352      15.2149      13.1765      28.7324    5760.2466 
  132000      131.987    240.81514    10.054279    -525.7553   -515.70102    6471.2776    29267.952    41604.721    -51458.84      15.2149      13.1765      28.7324    5760.2466 
  132500      132.487    259.99733    10.855156   -526.54149   -515.68633    7615.2251    32342.565    41819.172   -51316.061      15.2149      13.1765      28.7324    5760.2466 
  133000      132.987    264.85972    11.058165   -526.72908   -515.67092    4241.3394    30218.002    39767.446    -57261.43      15.2149      13.1765      28.7324    5760.2466 
  133500      133.487    252.48254    10.541405   -526.19565   -515.65425    6245.5303    31298.311     41224.14   -53785.861      15.2149      13.1765      28.7324    5760.2466 
  134000      133.987    248.83799    10.389242   -526.02791   -515.63867    7263.3145    30634.282    42417.706   -51262.045      15.2149      13.1765      28.7324    5760.2466 
  134500      134.487    252.96174    10.561412   -526.18386   -515.62245    4777.0345     25776.44    43002.623    -54447.96      15.2149      13.1765      28.7324    5760.2466 
  135000      134.987    261.14413    10.903036     -526.511   -515.60796    6173.3689    29407.072     40079.62   -50966.585      15.2149      13.1765      28.7324    5760.2466 
  135500      135.487    253.34556    10.577437   -526.16904    -515.5916    4499.7513    34165.965    38076.914   -58743.625      15.2149      13.1765      28.7324    5760.2466 
  136000      135.987    236.96425    9.8935009   -525.46865   -515.57515    5514.8466    29718.906    40142.442   -53316.808      15.2149      13.1765      28.7324    5760.2466 
  136500      136.487     256.6638    10.715977   -526.27584   -515.55986    6402.0036    28600.215    37412.128   -46806.332      15.2149      13.1765      28.7324    5760.2466 
  137000      136.987    262.09026    10.942537   -526.48702   -515.54448    5737.7188    30684.686    41268.437   -54739.967      15.2149      13.1765      28.7324    5760.2466 
  137500      137.487    243.92249    10.184014   -525.71245   -515.52844     6537.277    30794.825    41419.736    -52602.73      15.2149      13.1765      28.7324    5760.2466 
  138000      137.987    258.68547    10.800384   -526.31226   -515.51187    4993.6089     28975.78    42278.316    -56273.27      15.2149      13.1765      28.7324    5760.2466 
  138500      138.487    264.86698    11.058469   -526.55574   -515.49727    6642.5124    30873.634    36899.093   -47845.189      15.2149      13.1765      28.7324    5760.2466 
  139000      138.987    263.31795    10.993795   -526.47473   -515.48093    7479.1545    29661.048    40498.965    -47722.55      15.2149      13.1765      28.7324    5760.2466 
  139500      139.487    254.49415    10.625392   -526.09052   -515.46513    6376.8228    31334.407    43605.077   -55809.015      15.2149      13.1765      28.7324    5760.2466 
  140000      139.987    255.49665    10.667248    -526.1183   -515.45106    7373.5846    32580.135    42409.076   -52868.458      15.2149      13.1765      28.7324    5760.2466 
  140500      140.487    248.62133    10.380196   -525.81336   -515.43316    4961.6183     29777.75    43238.402   -58131.297      15.2149      13.1765      28.7324    5760.2466 
  141000      140.987     265.2269    11.073495   -526.49181   -515.41831    5769.5223    29150.733    39383.793    -51225.96      15.2149      13.1765      28.7324    5760.2466 
  141500      141.487    263.43673    10.998754   -526.40165    -515.4029     3676.589    27916.071     38066.58   -54952.884      15.2149      13.1765      28.7324    5760.2466 
  142000      141.987    248.65777    10.381717   -525.76768   -515.38596     5607.699    32442.116    40967.201    -56586.22      15.2149      13.1765      28.7324    5760.2466 
  142500      142.487    246.25404    10.281359   -525.65121   -515.36985     5905.425    31059.925    45084.601   -58428.251      15.2149      13.1765      28.7324    5760.2466 
  143000      142.987    254.33793     10.61887   -525.97313   -515.35426     4676.938    29320.038    39764.545   -55053.769      15.2149      13.1765      28.7324    5760.2466 
  143500      143.487    260.11115    10.859907   -526.19807   -515.33817    5822.2347    27557.793    37344.601    -47435.69      15.2149      13.1765      28.7324    5760.2466 
  144000      143.987    245.34032     10.24321   -525.56501    -515.3218    6759.5001     32325.18    43305.909   -55352.588      15.2149      13.1765      28.7324    5760.2466 
  144500      144.487    258.13193    10.777273   -526.08334   -515.30607    5998.6563    31785.429    38383.258   -52172.718      15.2149      13.1765      28.7324    5760.2466 
  145000      144.987    270.74571    11.303911   -526.59478   -515.29087    5887.3274    32005.102     35277.01    -49620.13      15.2149      13.1765      28.7324    5760.2466 
  145500      145.487    267.73312    11.178132   -526.45357   -515.27544    6930.0005    32319.157    40856.421   -52385.577      15.2149      13.1765      28.7324    5760.2466 
  146000      145.987    270.79358     11.30591   -526.56534   -515.25943    5846.5494    32132.296     39342.09   -53934.738      15.2149      13.1765      28.7324    5760.2466 
  146500      146.487    252.05523    10.523565   -525.76629   -515.24273    7022.5832    31543.888    42332.135   -52808.274      15.2149      13.1765      28.7324    5760.2466 
  147000      146.987    269.92619    11.269696   -526.49621   -515.22652    4986.2128    28061.941    41254.542   -54357.844      15.2149      13.1765      28.7324    5760.2466 
  147500      147.487    279.94482    11.687984   -526.89986   -515.21188    7369.7646    28745.447    41466.413   -48102.566      15.2149      13.1765      28.7324    5760.2466 
  148000      147.987    244.00553    10.187481   -525.38109   -515.19361    5650.2808    31223.059    43345.538   -57617.755      15.2149      13.1765      28.7324    5760.2466 
  148500      148.487    272.91389    11.394435    -526.5726   -515.17817    6303.6245    31935.295    39843.977   -52868.399      15.2149      13.1765      28.7324    5760.2466 
  149000      148.987    255.46407    10.665887    -525.8268   -515.16092    6359.7974     30649.97    42757.656   -54328.234      15.2149      13.1765      28.7324    5760.2466 
  149500      149.487    251.04535    10.481401   -525.62632   -515.14492    6919.2156    30338.335    41697.692    -51278.38      15.2149      13.1765      28.7324    5760.2466 
  150000      149.987    256.12208     10.69336   -525.82203   -515.12867    6813.7134    29387.285    41403.977   -50350.122      15.2149      13.1765      28.7324    5760.2466 
  150500      150.487    258.58437    10.796163   -525.90926    -515.1131    6251.3639     29559.33     41131.35   -51936.588      15.2149      13.1765      28.7324    5760.2466 
  151000      150.987    258.69006    10.800576   -525.89754   -515.09696    6523.9031    29631.658    39294.814   -49354.763      15.2149      13.1765      28.7324    5760.2466 
  151500      151.487    273.79795    11.431346   -526.51265    -515.0813    5351.3177    29175.113    39816.114   -52937.274      15.2149      13.1765      28.7324    5760.2466 
  152000      151.987    270.30177    11.285377   -526.35061   -515.06523    6395.8141    31486.333    38643.556   -50942.447      15.2149      13.1765      28.7324    5760.2466 
  152500      152.487    249.60677    10.421339   -525.47065   -515.04931    5458.1333    30950.377    42268.379   -56844.356      15.2149      13.1765      28.7324    5760.2466 
  153000      152.987    276.89723    11.560744     -526.593   -515.03225    5321.9651    28623.605    41341.398   -53999.108      15.2149      13.1765      28.7324    5760.2466 
  153500      153.487    267.16838    11.154554   -526.16999   -515.01544    6086.4162    28646.065    38235.561   -48622.377      15.2149      13.1765      28.7324    5760.2466 
  154000      153.987    276.04976    11.525361   -526.52617   -515.00081    4576.3446    29888.743    40512.964   -56672.673      15.2149      13.1765      28.7324    5760.2466 
  154500      154.487    258.03328    10.773155   -525.75579   -514.98263    5709.0326    29698.154    40618.308   -53189.365      15.2149      13.1765      28.7324    5760.2466 
  155000      154.987    254.24859     10.61514   -525.58201   -514.96687    5221.4031    29338.847    37093.877   -50768.516      15.2149      13.1765      28.7324    5760.2466 
  155500      155.487    260.59772    10.880222   -525.83037   -514.95015    5712.5459    28171.561    40000.207    -51034.13      15.2149      13.1765      28.7324    5760.2466 
  156000      155.987    256.63757    10.714882   -525.64941   -514.93453    6364.9084     34738.63    41970.957   -57614.862      15.2149      13.1765      28.7324    5760.2466 
  156500      156.487    248.77943    10.386797    -525.3041   -514.91731    6118.8298    31646.248    46234.331    -59524.09      15.2149      13.1765      28.7324    5760.2466 
  157000      156.987    266.97226    11.146366   -526.04861   -514.90224    7242.8758    31860.344    39200.556   -49332.273      15.2149      13.1765      28.7324    5760.2466 
  157500      157.487    253.78399    10.595742   -525.48101   -514.88527     5943.101    30977.874     40182.13   -53330.701      15.2149      13.1765      28.7324    5760.2466 
  158000      157.987    255.33771    10.660612    -525.5303   -514.86969    7997.3494    32528.553     38266.82   -46803.325      15.2149      13.1765      28.7324    5760.2466 
  158500      158.487    253.43849    10.581317    -525.4336   -514.85228    5593.8016    28059.682     40712.62   -51990.897      15.2149      13.1765      28.7324    5760.2466 
  159000      158.987    258.90519    10.809558   -525.64597   -514.83641    7852.7067    29291.318    43381.158   -49114.356      15.2149      13.1765      28.7324    5760.2466 
  159500      159.487    252.82097    10.555535   -525.37484    -514.8193    5404.1372    28153.097    38789.882   -50730.567      15.2149      13.1765      28.7324    5760.2466 
  160000      159.987    257.43365    10.748119    -525.5517   -514.80358    4368.5319    30251.662    42834.109   -59980.175      15.2149      13.1765      28.7324    5760.2466 
  160500      160.487    271.11803    11.319456   -526.10599   -514.78653    7173.2512    28215.345      42344.8   -49040.391      15.2149      13.1765      28.7324    5760.2466 
  161000      160.987    251.16226    10.486282   -525.25601   -514.76973    5864.6055    31312.017    39940.281   -53658.481      15.2149      13.1765      28.7324    5760.2466 
  161500      161.487    256.98648    10.729449   -525.48376   -514.75431    5042.2687    30555.006    42512.621    -57940.82      15.2149      13.1765      28.7324    5760.2466 
  162000      161.987    253.44405    10.581549   -525.32045    -514.7389    5992.2345    30575.359    39938.089   -52536.744      15.2149      13.1765      28.7324    5760.2466 
  162500      162.487    265.74036    11.094933   -525.81757   -514.72264    4663.2185    31891.789    38796.108   -56698.242      15.2149      13.1765      28.7324    5760.2466 
  163000      162.987    246.18097    10.278308   -524.98392   -514.70561    5411.5887    29858.488    40817.801   -54441.523      15.2149      13.1765      28.7324    5760.2466 
  163500      163.487     260.7893    10.888221   -525.57736   -514.68914    6051.4159    30204.936    42932.151   -54982.839      15.2149      13.1765      28.7324    5760.2466 
  164000      163.987    268.29843    11.201735   -525.87414    -514.6724    4273.5867    31588.651     35450.13   -54218.021      15.2149      13.1765      28.7324    5760.2466 
  164500      164.487    260.32119    10.868677   -525.52455   -514.65588    6988.4173    33681.061    43395.778   -56111.587      15.2149      13.1765      28.7324    5760.2466 
  165000      164.987    258.02068    10.772628   -525.41225   -514.63962    6147.3614    32045.669    39188.017   -52791.603      15.2149      13.1765      28.7324    5760.2466 
  165500      165.487    258.92938    10.810568   -525.43333   -514.62276      5090.25    29536.967    44549.463    -58815.68      15.2149      13.1765      28.7324    5760.2466 
  166000      165.987     275.6258     11.50766    -526.1144   -514.60674    7338.2581    31549.701    39773.553   -49308.479      15.2149      13.1765      28.7324    5760.2466 
  166500      166.487    264.87022    11.058604   -525.64888   -514.59027    5086.7577    31485.437    42162.135   -58387.299      15.2149      13.1765      28.7324    5760.2466 
  167000      166.987    273.03568     11.39952   -525.97301   -514.57349    5657.1313    30889.188    41028.022   -54945.816      15.2149      13.1765      28.7324    5760.2466 
  167500      167.487     246.9178    10.309072   -524.86536   -514.55629    6132.7511    30969.004    39826.045   -52396.796      15.2149      13.1765      28.7324    5760.2466 
  168000      167.987    268.26338    11.200271   -525.73998   -514.53971    5846.1434    34374.973    39710.092   -56546.635      15.2149      13.1765      28.7324    5760.2466 
  168500      168.487    258.37185     10.78729   -525.31024   -514.52295    5471.9809    28495.519    43484.345   -55563.922      15.2149      13.1765      28.7324    5760.2466 
  169000      168.987    253.05288    10.565217   -525.07276   -514.50754    5960.4821    31298.235    41462.855   -54879.644      15.2149      13.1765      28.7324    5760.2466 
  169500      169.487    247.47696    10.332417    -524.8231   -514.49069    4549.2642    31104.299    37913.892   -55370.398      15.2149      13.1765      28.7324    5760.2466 
  170000      169.987    268.95735    11.229245   -525.70371   -514.47447    7274.8386    34420.533    40458.449   -53054.465      15.2149      13.1765      28.7324    5760.2466 
  170500      170.487    269.36883    11.246425   -525.70357   -514.45714    5848.3494     30920.39    40706.824   -54082.166      15.2149      13.1765      28.7324    5760.2466 
  171000      170.987     261.4264    10.914821   -525.35573   -514.44091    5617.2789    29344.308    41971.505   -54463.976      15.2149      13.1765      28.7324    5760.2466 
  171500      171.487    271.92975    11.353346   -525.77732   -514.42397    6692.2649    30420.146    42246.405   -52589.757      15.2149      13.1765      28.7324    5760.2466 
  172000      171.987    267.46223    11.166823   -525.57381   -514.40699    5802.9982    32034.422    39806.844   -54432.271      15.2149      13.1765      28.7324    5760.2466 
  172500      172.487    266.75442    11.137271   -525.52816   -514.39088     4795.704    29198.524    38061.796   -52873.209      15.2149      13.1765      28.7324    5760.2466 
  173000      172.987    268.45242    11.208164    -525.5818   -514.37363    4186.1672    28974.897    39209.588   -55625.984      15.2149      13.1765      28.7324    5760.2466 
  173500      173.487    264.53486    11.044602   -525.40095   -514.35635    5090.9026    30317.737    37155.119   -52200.148      15.2149      13.1765      28.7324    5760.2466 
  174000      173.987    275.51473    11.503023   -525.84388   -514.34085    6079.7703    30596.327    39492.615   -51849.631      15.2149      13.1765      28.7324    5760.2466 
  174500      174.487    275.28898    11.493598   -525.81723   -514.32364    4436.2871    27333.048    39326.816   -53351.003      15.2149      13.1765      28.7324    5760.2466 
  175000      174.987    273.00772    11.398353   -525.70567   -514.30732    6338.6026    30794.639    41701.971   -53480.803      15.2149      13.1765      28.7324    5760.2466 
  175500      175.487    256.30225    10.700882   -524.98945   -514.28857    6416.9271    31335.611    40139.202   -52224.032      15.2149      13.1765      28.7324    5760.2466 
  176000      175.987    269.25715    11.241762   -525.51439   -514.27263    4960.7832    29789.314    39913.042   -54820.007      15.2149      13.1765      28.7324    5760.2466 
  176500      176.487    279.03795    11.650121   -525.90635   -514.25623    6039.1525    29315.337    37905.672   -49103.552      15.2149      13.1765      28.7324    5760.2466 
  177000      176.987    257.46143    10.749279   -524.98748    -514.2382    5727.9329    31414.776    40069.413   -54300.391      15.2149      13.1765      28.7324    5760.2466 
  177500      177.487    274.29154    11.451953   -525.67413   -514.22218    4352.5093    27930.882    41439.174   -56312.529      15.2149      13.1765      28.7324    5760.2466 
  178000      177.987    272.05186    11.358445   -525.56381   -514.20536    6400.1378    31095.248    40085.536    -51980.37      15.2149      13.1765      28.7324    5760.2466 
  178500      178.487    262.81282    10.972705    -525.1601   -514.18739    5288.5173    28325.811    43145.004   -55605.263      15.2149      13.1765      28.7324    5760.2466 
  179000      178.987    264.52059    11.044006   -525.21398   -514.16997    6528.7001    33359.105    40773.347   -54546.352      15.2149      13.1765      28.7324    5760.2466 
  179500      179.487    275.13899    11.487335   -525.64147   -514.15413    6185.6709    29100.311    39507.653   -50050.951      15.2149      13.1765      28.7324    5760.2466 
  180000      179.987    270.78131    11.305398   -525.44214   -514.13674     5343.163    29374.649    41436.861   -54782.021      15.2149      13.1765      28.7324    5760.2466 
  180500      180.487    277.52171    11.586817   -525.70707   -514.12026    5708.7766    29635.914    41457.609   -53967.194      15.2149      13.1765      28.7324    5760.2466 
  181000      180.987    281.25447    11.742663   -525.84646    -514.1038    5420.8271    27194.949     37348.75   -48281.218      15.2149      13.1765      28.7324    5760.2466 
  181500      181.487    262.68218    10.967251   -525.05298   -514.08573     4489.305    25653.836    37541.346   -49727.267      15.2149      13.1765      28.7324    5760.2466 
  182000      181.987      274.463    11.459112   -525.52711     -514.068    5627.4344    29240.298    43573.683   -55931.678      15.2149      13.1765      28.7324    5760.2466 
  182500      182.487    259.71222    10.843252   -524.89388   -514.05062       6816.9    28940.582    43886.583   -52376.465      15.2149      13.1765      28.7324    5760.2466 
  183000      182.987    273.04952    11.400098   -525.43356   -514.03347    5246.3903    32138.616    41044.302   -57443.747      15.2149      13.1765      28.7324    5760.2466 
  183500      183.487     274.5451     11.46254   -525.47931   -514.01677    5424.0989    29723.585    41207.817   -54659.105      15.2149      13.1765      28.7324    5760.2466 
  184000      183.987    272.14699    11.362416   -525.36247   -514.00005     6941.185    28145.837    38894.816   -46217.098      15.2149      13.1765      28.7324    5760.2466 
  184500      184.487    263.26474    10.991573   -524.97442   -513.98284    5502.5476    29926.875    43161.192   -56580.424      15.2149      13.1765      28.7324    5760.2466 
  185000      184.987    271.57216    11.338417   -525.30453   -513.96611    4911.9919    29496.086    37816.755   -52576.865      15.2149      13.1765      28.7324    5760.2466 
  185500      185.487    263.55481    11.003684   -524.95181   -513.94813    5172.4969    29947.728    37105.862   -51536.099      15.2149      13.1765      28.7324    5760.2466 
  186000      185.987    260.66836    10.883172   -524.81485   -513.93168    6781.1594    29820.463    43647.136    -53124.12      15.2149      13.1765      28.7324    5760.2466 
  186500      186.487    272.63864    11.382943   -525.29721   -513.91427    6230.0736    30048.669    42596.855   -53955.303      15.2149      13.1765      28.7324    5760.2466 
  187000      186.987    263.04351    10.982337   -524.87985   -513.89752    7125.7303    29322.829    45021.257   -52966.896      15.2149      13.1765      28.7324    5760.2466 
  187500      187.487     280.0328    11.691657    -525.5725   -513.88084    8051.7355    30490.693    44536.278   -50871.765      15.2149      13.1765      28.7324    5760.2466 
  188000      187.987    280.47018    11.709918   -525.57401   -513.86409    5709.2957     30303.21    39591.683   -52767.006      15.2149      13.1765      28.7324    5760.2466 
  188500      188.487    260.83909      10.8903   -524.73607   -513.84577    7357.2012    29883.496    44638.012   -52449.904      15.2149      13.1765      28.7324    5760.2466 
  189000      188.987    259.86986    10.849834   -524.67831   -513.82848    5949.7394    31156.367    39352.459   -52659.608      15.2149      13.1765      28.7324    5760.2466 
  189500      189.487    272.18822    11.364137   -525.17609   -513.81196    6182.8916    28048.996    41074.493   -50574.815      15.2149      13.1765      28.7324    5760.2466 
  190000      189.987    274.21171     11.44862     -525.243   -513.79438    5455.5688    33085.438    37424.596   -54143.328      15.2149      13.1765      28.7324    5760.2466 
  190500      190.487    273.50994    11.419321   -525.19674   -513.77741    6497.1239    32094.901    39715.359   -52318.888      15.2149      13.1765      28.7324    5760.2466 
  191000      190.987    286.31875    11.954102   -525.71524   -513.76114    7914.9945    31112.438    37928.053   -45295.507      15.2149      13.1765      28.7324    5760.2466 
  191500      191.487    271.21363    11.323448   -525.06654   -513.74309     5553.306    31849.018    39248.917   -54438.017      15.2149      13.1765      28.7324    5760.2466 
  192000      191.987     282.0207    11.774654   -525.49977   -513.72512    4859.8125    27741.571    39965.711   -53127.845      15.2149      13.1765      28.7324    5760.2466 
  192500      192.487    280.41207    11.707492    -525.4157    -513.7082    6656.1539    28567.367    41358.264   -49957.169      15.2149      13.1765      28.7324    5760.2466 
  193000      192.987    274.79904    11.473142   -525.16316   -513.69002      5476.51    28734.254     41628.64   -53933.363      15.2149      13.1765      28.7324    5760.2466 
  193500      193.487    276.35935    11.538287   -525.21095   -513.67266    5378.0311     31964.16    40988.792   -56818.859      15.2149      13.1765      28.7324    5760.2466 
  194000      193.987     277.4009    11.581772   -525.23717    -513.6554    5782.5286    30068.553    40292.393    -53013.36      15.2149      13.1765      28.7324    5760.2466 
  194500      194.487     281.0491    11.734089   -525.37219   -513.63811    4942.7561    29903.192    40325.397   -55400.321      15.2149      13.1765      28.7324    5760.2466 
  195000      194.987    291.99766    12.191202   -525.81239   -513.62119    6775.9822    29189.218    38267.506   -47128.778      15.2149      13.1765      28.7324    5760.2466 
  195500      195.487    274.89498    11.477148    -525.0808   -513.60366    6204.7098    28024.179    43018.706   -52428.756      15.2149      13.1765      28.7324    5760.2466 
  196000      195.987     284.2657    11.868385   -525.45457   -513.58618    5098.1961    28932.766    41423.275   -55061.453      15.2149      13.1765      28.7324    5760.2466 
  196500      196.487    280.01794    11.691036   -525.25935   -513.56832    6381.9911    29240.567     41336.03   -51430.623      15.2149      13.1765      28.7324    5760.2466 
  197000      196.987     288.4914    12.044812    -525.5964   -513.55159    5528.0368    28007.804    40231.028   -51654.721      15.2149      13.1765      28.7324    5760.2466 
  197500      197.487    271.36016    11.329565   -524.86317    -513.5336    5272.8076    29842.809    36746.833   -50771.219      15.2149      13.1765      28.7324    5760.2466 
  198000      197.987    283.15145    11.821864   -525.33801   -513.51615    6192.0781    33436.141    42872.749   -57732.656      15.2149      13.1765      28.7324    5760.2466 
  198500      198.487     271.6091    11.339959   -524.83794   -513.49798    6257.7004    30248.017     40267.05   -51741.966      15.2149      13.1765      28.7324    5760.2466 
  199000      198.987     283.9754    11.856265   -525.33729   -513.48102    7452.8597    31788.993    42915.988   -52346.402      15.2149      13.1765      28.7324    5760.2466 
  199500      199.487     266.3502    11.120394   -524.58394   -513.46354      6611.99    30939.954    42616.376    -53720.36      15.2149      13.1765      28.7324    5760.2466 
  200000      199.987    274.47561    11.459639   -524.90542   -513.44578    4462.0171    29687.147    35051.197   -51352.292      15.2149      13.1765      28.7324    5760.2466 
  200500      200.487    267.96539     11.18783   -524.61561   -513.42778    5892.4165    26954.731    42542.048   -51819.529      15.2149      13.1765      28.7324    5760.2466 
  201000      200.987    274.97568    11.480517    -524.8911   -513.41059    5457.4381    29263.082     40912.92   -53803.688      15.2149      13.1765      28.7324    5760.2466 
  201500      201.487    267.57059    11.171347   -524.56424   -513.39289    4802.0841    31255.966    41723.505   -58573.219      15.2149      13.1765      28.7324    5760.2466 
  202000      201.987     288.7085    12.053876   -525.42989   -513.37601    4412.1791    29338.472    38035.111   -54137.045      15.2149      13.1765      28.7324    5760.2466 
  202500      202.487     281.1779    11.739466   -525.09879   -513.35932    6379.6484    33212.787      39306.5   -53380.341      15.2149      13.1765      28.7324    5760.2466 
  203000      202.987    284.00558    11.857525    -525.1982   -513.34068    7564.2816     29598.04    42569.969   -49475.164      15.2149      13.1765      28.7324    5760.2466 
  203500      203.487    279.91772    11.686852   -525.01058   -513.32373    5348.9379    31941.363    39610.967   -55505.516      15.2149      13.1765      28.7324    5760.2466 
  204000      203.987    266.33031    11.119564    -524.4242   -513.30463    5666.2952    28418.247    38517.296   -49936.658      15.2149      13.1765      28.7324    5760.2466 
  204500      204.487    289.04197    12.067799   -525.35518   -513.28738    5847.2761    29744.543    46160.253   -58362.968      15.2149      13.1765      28.7324    5760.2466 
  205000      204.987    266.97554    11.146503   -524.41664   -513.27014    6002.6878    31560.219    44229.662   -57781.817      15.2149      13.1765      28.7324    5760.2466 
  205500      205.487     280.4787    11.710274   -524.96394   -513.25367     5988.418    29782.834     41604.17   -53421.749      15.2149      13.1765      28.7324    5760.2466 
  206000      205.987    281.30032    11.744577   -524.98036   -513.23578    5492.2072    30891.544    36397.718   -50812.641      15.2149      13.1765      28.7324    5760.2466 
  206500      206.487    289.62733    12.092239   -525.31001   -513.21777    5952.5081    29227.388    38462.204   -49832.068      15.2149      13.1765      28.7324    5760.2466 
  207000      206.987    276.26659    11.534414   -524.73386   -513.19945    7200.7326    31782.759    40711.527   -50892.088      15.2149      13.1765      28.7324    5760.2466 
  207500      207.487    273.58326    11.422382   -524.60445   -513.18207    4637.3275     27371.71    40340.194   -53799.922      15.2149      13.1765      28.7324    5760.2466 
  208000      207.987     282.8016    11.807257   -524.97214   -513.16488    6404.9143    30451.744    42939.913   -54176.914      15.2149      13.1765      28.7324    5760.2466 
  208500      208.487    278.83914    11.641821   -524.78855   -513.14673    6156.1277    33591.706     39754.83   -54878.153      15.2149      13.1765      28.7324    5760.2466 
  209000      208.987    263.23542    10.990349   -524.11972   -513.12937    5677.2444    28072.169    43125.945   -54166.381      15.2149      13.1765      28.7324    5760.2466 
  209500      209.487    269.79095    11.264049   -524.37577   -513.11172    6398.5575    30595.622    41058.656   -52458.606      15.2149      13.1765      28.7324    5760.2466 
  210000      209.987     279.3168    11.661763   -524.75644   -513.09468    5418.0051    28735.846    42538.519    -55020.35      15.2149      13.1765      28.7324    5760.2466 
  210500      210.487    265.84129    11.099147   -524.17582   -513.07667     7133.222     30163.54    44149.587    -52913.46      15.2149      13.1765      28.7324    5760.2466 
  211000      210.987    285.37528    11.914711   -524.97294   -513.05823    6076.4564    32084.263    43044.978   -56899.871      15.2149      13.1765      28.7324    5760.2466 
  211500      211.487    277.02508    11.566081   -524.60723   -513.04115    5908.1349    25574.669    39212.711   -47062.975      15.2149      13.1765      28.7324    5760.2466 
  212000      211.987    287.93807     12.02171   -525.04444   -513.02273     5596.938    30035.236    38863.116   -52107.538      15.2149      13.1765      28.7324    5760.2466 
[...]
  948500      948.487    370.56228    15.471356   -520.99374   -505.52239    8684.9623    32127.617    46909.411   -52982.141      15.2149      13.1765      28.7324    5760.2466 
  949000      948.987    374.20652    15.623507   -521.14409   -505.52059    7783.8321    35485.612    42095.083   -54229.199      15.2149      13.1765      28.7324    5760.2466 
  949500      949.487    397.55418    16.598295   -522.11891   -505.52061    7733.4696    35271.799    44163.353   -56234.743      15.2149      13.1765      28.7324    5760.2466 
  950000      949.987    376.75777    15.730024   -521.24742   -505.51739    7606.6924     31649.09    46065.354   -54894.367      15.2149      13.1765      28.7324    5760.2466 
  950500      950.487    373.87771    15.609778   -521.12711   -505.51733    8228.7258    32791.828    45158.126   -53263.777      15.2149      13.1765      28.7324    5760.2466 
  951000      950.987    388.56267     16.22289   -521.73865   -505.51576    8148.9836    33086.976    44783.178   -53423.203      15.2149      13.1765      28.7324    5760.2466 
  951500      951.487    385.23095    16.083788   -521.59895   -505.51516    7044.2593    35174.468    41830.102   -55871.792      15.2149      13.1765      28.7324    5760.2466 
  952000      951.987    362.10935    15.118437   -520.63186   -505.51343    7216.1871     31345.88    43215.316   -52912.634      15.2149      13.1765      28.7324    5760.2466 
  952500      952.487    376.50957    15.719661   -521.23415   -505.51449    7419.6603    31238.447    43528.955   -52508.422      15.2149      13.1765      28.7324    5760.2466 
  953000      952.987    382.13235    15.954418   -521.46625   -505.51183    8061.4389    30870.831    47199.659   -53886.174      15.2149      13.1765      28.7324    5760.2466 
  953500      953.487    360.22426    15.039733   -520.54904   -505.50931    6402.3517    28113.867    50607.691   -59514.503      15.2149      13.1765      28.7324    5760.2466 
  954000      953.987    352.10557    14.700769   -520.20881   -505.50804    8913.3509    34964.555    45529.896   -53754.399      15.2149      13.1765      28.7324    5760.2466 
  954500      954.487    379.75157    15.855018   -521.36251    -505.5075    8080.4792    31984.656    48235.836   -55979.054      15.2149      13.1765      28.7324    5760.2466 
  955000      954.987    359.68115    15.017057   -520.52215   -505.50509    7604.8562     31034.62     42473.67   -50693.721      15.2149      13.1765      28.7324    5760.2466 
  955500      955.487    396.54036    16.555967   -522.06115   -505.50518    8491.0194    31996.561    40432.047    -46955.55      15.2149      13.1765      28.7324    5760.2466 
  956000      955.987     374.2455    15.625134     -521.129   -505.50386    6730.2387    32945.213     46131.35   -58885.847      15.2149      13.1765      28.7324    5760.2466 
  956500      956.487    367.24542    15.332873   -520.83454   -505.50167    6736.3138    31215.941    43406.943   -54413.943      15.2149      13.1765      28.7324    5760.2466 
  957000      956.987     367.2729    15.334021   -520.83494   -505.50092     7286.643      30936.1    42462.021   -51538.191      15.2149      13.1765      28.7324    5760.2466 
  957500      957.487    377.02625    15.741233   -521.24188   -505.50064    10792.299    34203.943    45443.346   -47270.391      15.2149      13.1765      28.7324    5760.2466 
  958000      957.987    371.98814    15.530887   -521.02767   -505.49678    6770.8164    34776.457    46272.082   -60736.089      15.2149      13.1765      28.7324    5760.2466 
  958500      958.487    372.27724    15.542957   -521.03924   -505.49628    8924.5501     32258.89    44278.778   -49764.017      15.2149      13.1765      28.7324    5760.2466 
  959000      958.987    367.88107    15.359412   -520.85263   -505.49321    7596.7855    29550.452    44477.274    -51237.37      15.2149      13.1765      28.7324    5760.2466 
  959500      959.487    374.83108    15.649582   -521.14109   -505.49151    6303.5672    31700.325    49674.464   -62464.087      15.2149      13.1765      28.7324    5760.2466 
  960000      959.987    376.27607    15.709912   -521.19929   -505.48937    9189.1895    34011.212    47460.628   -53904.272      15.2149      13.1765      28.7324    5760.2466 
  960500      960.487    358.17545    14.954193   -520.43989    -505.4857    9010.3757    36766.757    48200.619   -57936.249      15.2149      13.1765      28.7324    5760.2466 
  961000      960.987    375.75154    15.688013   -521.17165   -505.48364    8267.1225    32030.822    44877.157   -52106.611      15.2149      13.1765      28.7324    5760.2466 
  961500      961.487     388.7354    16.230102   -521.71156   -505.48145    7880.5662    33116.255    44842.429   -54316.985      15.2149      13.1765      28.7324    5760.2466 
  962000      961.987    389.99251    16.282588   -521.76423   -505.48164    9380.7409    36502.021    45887.765   -54247.563      15.2149      13.1765      28.7324    5760.2466 
  962500      962.487    365.04876     15.24116   -520.71848   -505.47731    7977.3143    35342.897    42985.948   -54396.902      15.2149      13.1765      28.7324    5760.2466 
  963000      962.987     363.5689    15.179375   -520.65488    -505.4755    6904.6865    29867.736    47511.739   -56665.415      15.2149      13.1765      28.7324    5760.2466 
  963500      963.487    372.38067    15.547275   -521.02051   -505.47324    8265.9385    34158.982    50147.675   -59508.841      15.2149      13.1765      28.7324    5760.2466 
  964000      963.987     375.3744    15.672267    -521.1437   -505.47144    9724.9823    39351.727    45842.667   -56019.447      15.2149      13.1765      28.7324    5760.2466 
  964500      964.487    384.62858    16.058638   -521.52558   -505.46694    7117.4478    36422.007    40498.031   -55567.694      15.2149      13.1765      28.7324    5760.2466 
  965000      964.987    372.20494    15.539938   -521.00383    -505.4639    9376.6211     34470.67    45860.435   -52201.242      15.2149      13.1765      28.7324    5760.2466 
  965500      965.487    375.61371    15.682258   -521.14525   -505.46299    9323.9111    34826.444    47473.968   -54328.678      15.2149      13.1765      28.7324    5760.2466 
  966000      965.987    368.38495     15.38045   -520.83963   -505.45918    7931.2374    33779.377    45044.132   -55029.797      15.2149      13.1765      28.7324    5760.2466 
  966500      966.487    385.39635    16.090693   -521.54718   -505.45649    8605.9166    32666.088    48674.136   -55522.475      15.2149      13.1765      28.7324    5760.2466 
  967000      966.987    340.23851    14.205307   -519.65829   -505.45298    9192.0303    36214.525    47865.395   -56503.829      15.2149      13.1765      28.7324    5760.2466 
  967500      967.487    374.44847    15.633608   -521.08579   -505.45218    7162.3715    29315.051     44880.74   -52708.677      15.2149      13.1765      28.7324    5760.2466 
  968000      967.987    393.93709    16.447278   -521.89591   -505.44863    7088.1679    28340.763    46534.801   -53611.061      15.2149      13.1765      28.7324    5760.2466 
  968500      968.487    378.58136    15.806161   -521.25124   -505.44508    7869.3251    33482.984    48470.108   -58345.116      15.2149      13.1765      28.7324    5760.2466 
  969000      968.987    363.18143    15.163197    -520.6055    -505.4423    7876.7448    32034.433    48173.283   -56577.482      15.2149      13.1765      28.7324    5760.2466 
  969500      969.487    376.43588    15.716585   -521.15603   -505.43945    7241.0639    31850.138     39939.03   -50065.976      15.2149      13.1765      28.7324    5760.2466 
  970000      969.987    384.93204    16.071308   -521.50868   -505.43737    7788.2711    34235.693    41973.048   -52843.928      15.2149      13.1765      28.7324    5760.2466 
  970500      970.487    374.70671     15.64439   -521.07886   -505.43447    9642.4469    33402.782        47140   -51615.442      15.2149      13.1765      28.7324    5760.2466 
  971000      970.987    386.65999    16.143451   -521.57459   -505.43114    9355.7085     32637.51    42993.828   -47564.212      15.2149      13.1765      28.7324    5760.2466 
  971500      971.487    381.78007     15.93971   -521.36902   -505.42931    9757.4705    35419.762    47175.236   -53322.586      15.2149      13.1765      28.7324    5760.2466 
  972000      971.987    383.56174    16.014096   -521.43974   -505.42565    9055.3264    32592.592    43703.317    -49129.93      15.2149      13.1765      28.7324    5760.2466 
  972500      972.487    347.95013    14.527275   -519.94907    -505.4218    9158.6865     36574.82    46021.808   -55120.568      15.2149      13.1765      28.7324    5760.2466 
  973000      972.987    378.76103    15.813662   -521.23396    -505.4203    7771.0311    36239.027    46327.011   -59252.945      15.2149      13.1765      28.7324    5760.2466 
  973500      973.487    365.67414    15.267271   -520.68564   -505.41837    9282.2104    31098.928    42843.462   -46095.759      15.2149      13.1765      28.7324    5760.2466 
  974000      973.987    375.59716    15.681567   -521.09681   -505.41524    7466.5294    31812.465    39907.832   -49320.708      15.2149      13.1765      28.7324    5760.2466 
  974500      974.487    362.63375    15.140331   -520.55231   -505.41198    7858.6764    32174.961    42259.375   -50858.307      15.2149      13.1765      28.7324    5760.2466 
  975000      974.987    366.20905    15.289604   -520.69732   -505.40772    6490.5705    30635.616    42706.308   -53870.213      15.2149      13.1765      28.7324    5760.2466 
  975500      975.487    389.28618    16.253098   -521.66036   -505.40726    8821.7358    36998.225    44231.979   -54764.997      15.2149      13.1765      28.7324    5760.2466 
  976000      975.987    381.33143    15.920979   -521.32446   -505.40348    5227.7296    31062.043    44134.045   -59512.899      15.2149      13.1765      28.7324    5760.2466 
  976500      976.487    378.40644    15.798857   -521.19729   -505.39843    7868.9204    34139.195    36785.216    -47317.65      15.2149      13.1765      28.7324    5760.2466 
  977000      976.987    370.76425    15.479788   -520.87737   -505.39758    8013.7267    31773.265     42861.49   -50593.575      15.2149      13.1765      28.7324    5760.2466 
  977500      977.487     382.2453    15.959134   -521.35296   -505.39383    8509.1591    33874.706    45193.121    -53540.35      15.2149      13.1765      28.7324    5760.2466 
  978000      977.987    367.28159    15.334383   -520.72373   -505.38934    7469.8459    34504.918    44286.227   -56381.607      15.2149      13.1765      28.7324    5760.2466 
  978500      978.487    360.15076    15.036664   -520.42128   -505.38462     7072.371    30323.481    45684.667   -54791.035      15.2149      13.1765      28.7324    5760.2466 
  979000      978.987    377.24294     15.75028   -521.13256   -505.38228    8575.6844    33974.724    46734.293   -54981.964      15.2149      13.1765      28.7324    5760.2466 
  979500      979.487    383.51458    16.012127    -521.3907   -505.37857    8348.3308    38326.323    40177.614   -53458.945      15.2149      13.1765      28.7324    5760.2466 
  980000      979.987    394.01113    16.450369   -521.82615   -505.37578     8175.008    33232.279    43476.875    -52184.13      15.2149      13.1765      28.7324    5760.2466 
  980500      980.487    378.73473    15.812564   -521.18492   -505.37235    6900.1231    35898.822    49031.545   -64229.997      15.2149      13.1765      28.7324    5760.2466 
  981000      980.987    359.67111    15.016638   -520.38327   -505.36663    7742.0524     33159.23    39805.892   -49738.965      15.2149      13.1765      28.7324    5760.2466 
  981500      981.487    370.62134    15.473822   -520.83771   -505.36389    8843.4668    29435.162    47447.247   -50352.008      15.2149      13.1765      28.7324    5760.2466 
  982000      981.987    377.34464    15.754526   -521.11577   -505.36125    7958.1881    29779.093    47782.905   -53687.434      15.2149      13.1765      28.7324    5760.2466 
  982500      982.487    366.58224    15.305185   -520.66196   -505.35678    9811.7602    37482.663    46228.045   -54275.427      15.2149      13.1765      28.7324    5760.2466 
  983000      982.987    390.35025    16.297524   -521.65141   -505.35389    7227.3548    31600.236    40097.882   -50016.054      15.2149      13.1765      28.7324    5760.2466 
  983500      983.487    380.97561    15.906123   -521.25587   -505.34975    8927.1762    38416.826    41717.073    -53352.37      15.2149      13.1765      28.7324    5760.2466 
  984000      983.987    373.72824    15.603538   -520.94753   -505.34399    7980.2981    38188.189    44236.193   -58483.488      15.2149      13.1765      28.7324    5760.2466 
  984500      984.487    402.62128    16.809852   -522.15134   -505.34149     8373.077    36743.981     36311.69    -47936.44      15.2149      13.1765      28.7324    5760.2466 
  985000      984.987    383.55351    16.013753   -521.35114   -505.33739     9568.651    33918.202     49182.95   -54395.199      15.2149      13.1765      28.7324    5760.2466 
  985500      985.487    365.79873    15.272473   -520.60424   -505.33177    8192.8036    31925.183     40313.27   -47660.042      15.2149      13.1765      28.7324    5760.2466 
  986000      985.987    408.88848    17.071514   -522.40277   -505.33126    8592.2263     29214.12    44513.606   -47951.047      15.2149      13.1765      28.7324    5760.2466 
  986500      986.487    373.90869    15.611072   -520.93705   -505.32598    7149.7579     28003.27    44257.348   -50811.344      15.2149      13.1765      28.7324    5760.2466 
  987000      986.987     378.0341    15.783312   -521.10582   -505.32251    7584.6683    33968.456    42699.711   -53914.162      15.2149      13.1765      28.7324    5760.2466 
  987500      987.487    376.27588    15.709904   -521.02777   -505.31787    8358.0765     31087.46    44586.329    -50599.56      15.2149      13.1765      28.7324    5760.2466 
  988000      987.987    389.13063    16.246603   -521.56014   -505.31353    8275.1457     32902.89    46906.277    -54983.73      15.2149      13.1765      28.7324    5760.2466 
  988500      988.487    367.69664    15.351712   -520.66129   -505.30958    8497.7407    34925.887    47379.037   -56811.702      15.2149      13.1765      28.7324    5760.2466 
  989000      988.987    379.83289    15.858413   -521.16483   -505.30641    9484.8898     29613.07    42394.894   -43553.294      15.2149      13.1765      28.7324    5760.2466 
  989500      989.487    384.50567    16.053507   -521.35674   -505.30324    7957.3327    32748.159    48055.173   -56931.334      15.2149      13.1765      28.7324    5760.2466 
  990000      989.987    384.84457    16.067656   -521.36459   -505.29693     10328.41     35652.88    39577.447   -44245.097      15.2149      13.1765      28.7324    5760.2466 
  990500      990.487    385.29772    16.086576   -521.37952   -505.29295    7112.0207    33943.818    47793.101   -60400.857      15.2149      13.1765      28.7324    5760.2466 
  991000      990.987    369.04413    15.407971   -520.69714   -505.28917    7398.4017     33716.46    45635.949   -57157.203      15.2149      13.1765      28.7324    5760.2466 
  991500      991.487    388.88533    16.236362   -521.52092   -505.28455    6528.9463    29318.844    46017.334   -55749.339      15.2149      13.1765      28.7324    5760.2466 
  992000      991.987    367.72043    15.352706   -520.63321    -505.2805    8937.7806    34982.973    45547.382   -53717.013      15.2149      13.1765      28.7324    5760.2466 
  992500      992.487    375.22974    15.666227   -520.94249   -505.27626    6486.6391    31703.093    43920.162   -56163.337      15.2149      13.1765      28.7324    5760.2466 
  993000      992.987    377.20552    15.748718   -521.02003   -505.27131    8678.6108    30285.602     46518.69    -50768.46      15.2149      13.1765      28.7324    5760.2466 
  993500      993.487    368.12433    15.369569   -520.63615   -505.26658    8733.4267    30756.423     42926.38   -47482.523      15.2149      13.1765      28.7324    5760.2466 
  994000      993.987    390.02846    16.284089   -521.54678   -505.26269    7878.3951    35054.224    43531.738   -54950.777      15.2149      13.1765      28.7324    5760.2466 
  994500      994.487    371.73467    15.520304   -520.77928   -505.25897    7941.5204    33587.162    49524.632   -59287.233      15.2149      13.1765      28.7324    5760.2466 
  995000      994.987    372.32591    15.544989   -520.79899     -505.254    8927.8943    32785.871    44527.454   -50529.642      15.2149      13.1765      28.7324    5760.2466 
  995500      995.487     355.7284    14.852026   -520.10057   -505.24854    9131.1784    32989.308    44100.829   -49696.602      15.2149      13.1765      28.7324    5760.2466 
  996000      995.987    337.65233    14.097331   -519.33968   -505.24234    8943.8413     33988.81    49733.733   -56891.019      15.2149      13.1765      28.7324    5760.2466 
  996500      996.487    357.27971    14.916795   -520.15592   -505.23913     10482.02    34744.846    48521.999   -51820.783      15.2149      13.1765      28.7324    5760.2466 
  997000      996.987    387.29489    16.169959   -521.40548   -505.23552     9579.952    37491.548    43413.438    -52165.13      15.2149      13.1765      28.7324    5760.2466 
  997500      997.487    369.04581    15.408041   -520.63842   -505.23038    8002.3238    34301.979    45943.929   -56238.937      15.2149      13.1765      28.7324    5760.2466 
  998000      997.987    373.52513    15.595058   -520.82089   -505.22584    7544.6373    33190.018     43572.34   -54128.446      15.2149      13.1765      28.7324    5760.2466 
  998500      998.487    371.01604    15.490301   -520.71205   -505.22175    7411.9843    29947.065    49190.048   -56901.159      15.2149      13.1765      28.7324    5760.2466 
  999000      998.987    346.58845    14.470424   -519.68385   -505.21343     7941.151    37798.904    41507.813   -55483.264      15.2149      13.1765      28.7324    5760.2466 
  999500      999.487    360.14905    15.036593   -520.24643   -505.20984     7824.368    35194.022    45257.714   -56978.633      15.2149      13.1765      28.7324    5760.2466 
 1000000      999.987    365.85442    15.274798   -520.48073   -505.20594    8781.7091    33837.774    43709.929   -51202.576      15.2149      13.1765      28.7324    5760.2466 
 1000013         1000    367.88301    15.359494     -520.565   -505.20551    8758.1249    38353.716    45757.041   -57836.383      15.2149      13.1765      28.7324    5760.2466 
Loop time of 899.51 on 28 procs for 1000000 steps with 324 atoms

Performance: 96.052 ns/day, 0.250 hours/ns, 1111.717 timesteps/s
88.2% CPU use with 28 MPI tasks x no OpenMP threads

MPI task timing breakdown:
Section |  min time  |  avg time  |  max time  |%varavg| %total
---------------------------------------------------------------
Pair    | 734.89     | 781.07     | 829.58     |  80.7 | 86.83
Neigh   | 0          | 0          | 0          |   0.0 |  0.00
Comm    | 54.701     | 105.03     | 151.56     | 215.1 | 11.68
Output  | 0.099592   | 0.10221    | 0.12423    |   1.4 |  0.01
Modify  | 4.9463     | 8.1409     | 15.001     | 106.2 |  0.91
Other   |            | 5.167      |            |       |  0.57

Nlocal:    11.5714 ave 15 max 8 min
Histogram: 2 3 6 0 2 7 0 2 1 5
Nghost:    657.893 ave 708 max 622 min
Histogram: 9 3 0 2 6 0 0 0 2 6
Neighs:    724.821 ave 1003 max 505 min
Histogram: 3 3 6 1 6 1 2 2 1 3
FullNghs:  1449.64 ave 1899 max 995 min
Histogram: 2 3 3 3 2 7 1 1 1 5

Total # of neighbors = 40590
Ave neighs/atom = 125.278
Neighbor list builds = 0
Dangerous builds = 0

write_restart   POSCAR_1x1x1.rest

#unfix    1
#undump   1
Total wall time: 0:14:59
