LAMMPS (7 Dec 2015)
#----------- Initialize Simulation ------------ restart01
#processors	2 2 2
units		metal
boundary	p p p     ## periodic boundary condition  on x y z axis ##
atom_style atomic
#atom_modify map array sort 0 0.0

read_data	POSCAR_1x1x1.lammps
  triclinic box = (0 0 0) to (15.2149 13.1765 28.7324) with tilt (-7.60743 0 0)
  2 by 2 by 7 MPI processor grid
  reading atoms ...
  324 atoms

#----------- Define Potential -----------------
pair_style meam
pair_coeff * * MgAlZn.library.meam Mg Al Zn MgAlZn.parameter.meam Mg Al Zn 	#1=Mg 2=Al 3=Zn	#atoms/mass

#----------- Neighbor List --------------------
neighbor 2.0 bin
neigh_modify delay 10 check yes

#--------------  Run a simulation (minimization) ---------------------------------------
minimize       1.0e-4   1.0e-6   100   1000          #結構優化的條件
WARNING: Resetting reneighboring criteria during minimization (../min.cpp:168)
Neighbor list info ...
  2 neighbor list requests
  update every 1 steps, delay 0 steps, check yes
  max neighbors/atom: 2000, page size: 100000
  master list distance cutoff = 8
  ghost atom cutoff = 8
  binsize = 4 -> bins = 6 4 8
Memory usage per processor = 8.65336 Mbytes
Step Temp E_pair E_mol TotEng Press 
       0            0   -614.78467            0   -614.78467    17249.759 
      13            0   -630.61557            0   -630.61557    14549.066 
Loop time of 0.0237577 on 28 procs for 13 steps with 324 atoms

89.2% CPU use with 28 MPI tasks x no OpenMP threads

Minimization stats:
  Stopping criterion = energy tolerance
  Energy initial, next-to-last, final = 
        -614.784671523     -630.557726856     -630.615572314
  Force two-norm initial, final = 23.8737 1.29371
  Force max component initial, final = 3.56273 0.37159
  Final line search alpha, max atom move = 0.255902 0.0950906
  Iterations, force evaluations = 13 25

MPI task timing breakdown:
Section |  min time  |  avg time  |  max time  |%varavg| %total
---------------------------------------------------------------
Pair    | 0.018774   | 0.020083   | 0.021641   |   0.5 | 84.53
Neigh   | 0          | 0          | 0          |   0.0 |  0.00
Comm    | 0.0012722  | 0.0027683  | 0.0040991  |   1.4 | 11.65
Output  | 0          | 0          | 0          |   0.0 |  0.00
Modify  | 0          | 0          | 0          |   0.0 |  0.00
Other   |            | 0.0009064  |            |       |  3.82

Nlocal:    11.5714 ave 15 max 7 min
Histogram: 3 0 5 2 0 2 5 4 1 6
Nghost:    655.036 ave 710 max 615 min
Histogram: 7 5 0 2 4 2 0 2 4 2
Neighs:    722.5 ave 988 max 424 min
Histogram: 3 0 5 2 2 2 7 0 4 3
FullNghs:  1445 ave 1900 max 878 min
Histogram: 3 0 5 2 2 3 2 4 1 6

Total # of neighbors = 40460
Ave neighs/atom = 124.877
Neighbor list builds = 0
Dangerous builds = 0
velocity all  create 393.0 4928459 #rot yes dist gaussian

#--------------  Run a simulation (Relaxation)  ----------------------------------------
fix  1  all  nvt   temp  393.0  393.0  100				#damping constant
#fix  2  all  npt   temp  393.0  393.0  50 iso 0.0 0.0 1000.0
#fix  2  all deform 1 x final 0 15.6906 y final 0 13.5884 z final 0 25.2339 xy final -7.8452 units lattice
#fix  3  all  npt   temp  393.0  393.0  50 z 0.0 0.0 1000.0

#variable b equal 1
#fix 2 all efield  0.0  0.0  v_b
#compute pot all pe/atom


#----------- Output --------------------------
thermo	 500
timestep  0.001		#1.0 fs
thermo_style	custom step time temp ke pe etotal press pxx pyy pzz lx ly lz vol

dump 1 all custom 10000 dump.eq id type x y z
dump_modify 1 sort  id

run        1000000	#10000	 ps
Neighbor list info ...
  2 neighbor list requests
  update every 1 steps, delay 10 steps, check yes
  max neighbors/atom: 2000, page size: 100000
  master list distance cutoff = 8
  ghost atom cutoff = 8
  binsize = 4 -> bins = 6 4 8
Memory usage per processor = 7.54383 Mbytes
Step Time Temp KinEng PotEng TotEng Press Pxx Pyy Pzz Lx Ly Lz Volume 
      13            0          393    16.408154   -630.61557   -614.20742    17591.616    35730.016    43942.861   -26898.028      15.2149      13.1765      28.7324    5760.2466 
     500        0.487    221.36023    9.2420169   -623.44312   -614.20111    18410.384    37489.218    50399.114   -32657.179      15.2149      13.1765      28.7324    5760.2466 
    1000        0.987    215.22147    8.9857173   -623.18619   -614.20048    18870.371    39622.285    50336.269   -33347.441      15.2149      13.1765      28.7324    5760.2466 
    1500        1.487    220.48209    9.2053538   -623.40613   -614.20078    17653.861    39551.007    48248.302   -34837.727      15.2149      13.1765      28.7324    5760.2466 
    2000        1.987    216.71172     9.047937   -623.24788   -614.19994    18332.181    36382.379    50648.503   -32034.339      15.2149      13.1765      28.7324    5760.2466 
    2500        2.487     216.3687    9.0336154   -623.23215   -614.19853    18513.316    35930.365    53867.162   -34257.579      15.2149      13.1765      28.7324    5760.2466 
    3000        2.987    224.26095    9.3631249   -623.56077   -614.19765    18670.327    35180.235    52182.102   -31351.357      15.2149      13.1765      28.7324    5760.2466 
    3500        3.487    209.83935    8.7610082   -622.95675   -614.19574    17870.642    39352.287    50942.692   -36683.053      15.2149      13.1765      28.7324    5760.2466 
    4000        3.987    222.74435    9.2998055   -623.49376   -614.19395    18535.239    37841.866    51817.939   -34054.089      15.2149      13.1765      28.7324    5760.2466 
    4500        4.487    223.02411    9.3114858   -623.50497   -614.19349    16919.784    36682.246    50070.562   -35993.458      15.2149      13.1765      28.7324    5760.2466 
    5000        4.987    218.78212    9.1343781   -623.32485   -614.19047     18263.79    39089.871    50706.841   -35005.341      15.2149      13.1765      28.7324    5760.2466 
    5500        5.487    212.88225    8.8880524   -623.07703   -614.18898    16866.318    34364.387    50141.578   -33907.011      15.2149      13.1765      28.7324    5760.2466 
    6000        5.987    216.86311    9.0542575   -623.24041   -614.18616    19547.317    39963.483    51617.141   -32938.672      15.2149      13.1765      28.7324    5760.2466 
    6500        6.487    208.64535    8.7111578   -622.89457   -614.18341    17508.017    36152.529     50917.56   -34546.038      15.2149      13.1765      28.7324    5760.2466 
    7000        6.987    214.20452    8.9432587   -623.12385   -614.18059    18404.975     40425.18    52450.134   -37660.389      15.2149      13.1765      28.7324    5760.2466 
    7500        7.487    217.01178    9.0604647   -623.23847     -614.178    19895.377    39827.573    52878.819    -33020.26      15.2149      13.1765      28.7324    5760.2466 
    8000        7.987    236.74832    9.8844853   -624.06041   -614.17593    20036.382    41437.328     47859.66   -29187.841      15.2149      13.1765      28.7324    5760.2466 
    8500        8.487    210.94192    8.8070417   -622.97783   -614.17079    16915.998    39598.144    50583.274   -39433.423      15.2149      13.1765      28.7324    5760.2466 
    9000        8.987    208.49177    8.7047454   -622.87153   -614.16679    19605.916    36956.808    53359.297   -31498.355      15.2149      13.1765      28.7324    5760.2466 
    9500        9.487    217.50741    9.0811578   -623.24541   -614.16425    16677.386    37524.293    49267.401   -36759.536      15.2149      13.1765      28.7324    5760.2466 
   10000        9.987    218.69148    9.1305939   -623.29095   -614.16036    18266.724    37427.072    47929.613   -30556.512      15.2149      13.1765      28.7324    5760.2466 
   10500       10.487    212.54747    8.8740752   -623.02999   -614.15592    17831.641    35951.527    48927.982   -31384.588      15.2149      13.1765      28.7324    5760.2466 
   11000       10.987    208.84062    8.7193101   -622.87053   -614.15122     19457.04    40419.352    47925.653   -29973.885      15.2149      13.1765      28.7324    5760.2466 
   11500       11.487     219.1437    9.1494747   -623.29586   -614.14638    19886.126    37781.871    48417.169   -26540.662      15.2149      13.1765      28.7324    5760.2466 
   12000       11.987    226.93248    9.4746642   -623.61699   -614.14232    18607.223    41268.892    48733.466    -34180.69      15.2149      13.1765      28.7324    5760.2466 
   12500       12.487    222.43008    9.2866841   -623.42427   -614.13758    17564.534    37150.345    48024.415   -32481.157      15.2149      13.1765      28.7324    5760.2466 
   13000       12.987    222.58007    9.2929463   -623.42523   -614.13228    18012.619    38773.902    50113.368   -34849.412      15.2149      13.1765      28.7324    5760.2466 
   13500       13.487    225.88445    9.4309077   -623.55744   -614.12653    20261.994    37300.475    48273.089   -24787.581      15.2149      13.1765      28.7324    5760.2466 
   14000       13.987    221.28512    9.2388811   -623.35969   -614.12081    20277.099    39969.165    48837.918   -27975.786      15.2149      13.1765      28.7324    5760.2466 
   14500       14.487    221.41418    9.2442695   -623.35926   -614.11499    20020.341    37291.436     49787.13   -27017.543      15.2149      13.1765      28.7324    5760.2466 
   15000       14.987    222.40081    9.2854624   -623.39399   -614.10853    16238.547    34241.566    49676.171   -35202.097      15.2149      13.1765      28.7324    5760.2466 
   15500       15.487    206.88717    8.6377516   -622.74005    -614.1023    19757.298     40977.89    49917.193   -31623.189      15.2149      13.1765      28.7324    5760.2466 
   16000       15.987    234.14469    9.7757814   -623.87225   -614.09647    17901.198     39877.12    50112.495   -36286.022      15.2149      13.1765      28.7324    5760.2466 
   16500       16.487    222.60877    9.2941448   -623.38338   -614.08923     20401.06    41499.499    49981.793   -30278.112      15.2149      13.1765      28.7324    5760.2466 
   17000       16.987    217.99332    9.1014452    -623.1841   -614.08265     16609.13    38146.805     45594.65   -33914.064      15.2149      13.1765      28.7324    5760.2466 
   17500       17.487    219.60502     9.168735   -623.24457   -614.07584    21298.927    38843.424    49066.538   -24013.182      15.2149      13.1765      28.7324    5760.2466 
   18000       17.987    227.59944    9.5025104   -623.57164   -614.06913    20429.338    39857.369    47337.923   -25907.277      15.2149      13.1765      28.7324    5760.2466 
   18500       18.487    236.26334    9.8642372   -623.92613    -614.0619    18980.404    38053.826    49379.121   -30491.734      15.2149      13.1765      28.7324    5760.2466 
   19000       18.987    218.28544    9.1136414   -623.16682   -614.05318    19969.584    40935.863    50065.045   -31092.158      15.2149      13.1765      28.7324    5760.2466 
   19500       19.487    218.18602    9.1094904   -623.15526   -614.04577    18694.813    42224.151    45740.285   -31879.996      15.2149      13.1765      28.7324    5760.2466 
   20000       19.987    217.51076    9.0812977   -623.11882   -614.03752    20291.073    40596.477    49918.602   -29641.859      15.2149      13.1765      28.7324    5760.2466 
   20500       20.487    235.81645     9.845579   -623.87594   -614.03037    19320.238     40222.89    46822.723   -29084.899      15.2149      13.1765      28.7324    5760.2466 
   21000       20.987    231.20106    9.6528815   -623.67424   -614.02135    21187.734    42735.168    47680.344   -26852.309      15.2149      13.1765      28.7324    5760.2466 
   21500       21.487    236.37623    9.8689503   -623.88112   -614.01217    17076.679    38593.773    50837.189   -38200.925      15.2149      13.1765      28.7324    5760.2466 
   22000       21.987    233.16865    9.7350306   -623.73819   -614.00316    18204.458    38025.871    49646.981   -33059.479      15.2149      13.1765      28.7324    5760.2466 
   22500       22.487    218.64019    9.1284525   -623.12301   -613.99455    19952.554    40291.928     48810.53   -29244.796      15.2149      13.1765      28.7324    5760.2466 
   23000       22.987     222.5726    9.2926344   -623.27789   -613.98525    18597.482    39018.406    50081.041   -33307.001      15.2149      13.1765      28.7324    5760.2466 
   23500       23.487    219.39371    9.1599126    -623.1354   -613.97549     18831.45    38351.896    50081.819   -31939.366      15.2149      13.1765      28.7324    5760.2466 
   24000       23.987    218.92063    9.1401611   -623.10638   -613.96622     19159.45     42041.96    50177.964   -34741.572      15.2149      13.1765      28.7324    5760.2466 
   24500       24.487    212.07977    8.8545482   -622.81103   -613.95648    19086.701    39185.365    49186.367    -31111.63      15.2149      13.1765      28.7324    5760.2466 
   25000       24.987     228.9167    9.5575074    -623.5053    -613.9478    18493.366    39515.703    45753.422   -29789.027      15.2149      13.1765      28.7324    5760.2466 
   25500       25.487    236.25999    9.8640971     -623.802    -613.9379    18788.274     38960.42    48166.548   -30762.146      15.2149      13.1765      28.7324    5760.2466 
   26000       25.987    224.55203    9.3752779    -623.3024   -613.92712     19101.78    39098.735    46690.319   -28483.714      15.2149      13.1765      28.7324    5760.2466 
   26500       26.487    223.94267    9.3498366     -623.267   -613.91717    18857.387    38841.745      49156.4   -31425.983      15.2149      13.1765      28.7324    5760.2466 
   27000       26.987    213.74836    8.9242136   -622.83056   -613.90634    19921.962    39982.332    45979.376    -26195.82      15.2149      13.1765      28.7324    5760.2466 
   27500       27.487    221.64762    9.2540157   -623.15009   -613.89608    19293.934    37929.315     50639.78   -30687.294      15.2149      13.1765      28.7324    5760.2466 
   28000       27.987    216.33292    9.0321214   -622.91737   -613.88525    18934.441    41060.622    53656.568   -37913.866      15.2149      13.1765      28.7324    5760.2466 
   28500       28.487    228.97751    9.5600464   -623.43462   -613.87457     18103.25    35443.425    48107.358   -29241.033      15.2149      13.1765      28.7324    5760.2466 
   29000       28.987    230.11572    9.6075674   -623.47177    -613.8642    17574.499    39347.937    46501.507   -33125.948      15.2149      13.1765      28.7324    5760.2466 
   29500       29.487    233.02312    9.7289546   -623.58153   -613.85257    17757.788     37601.96    53384.752   -37713.346      15.2149      13.1765      28.7324    5760.2466 
   30000       29.987     214.9396    8.9739489   -622.81384   -613.83989    20522.003    40103.564    53930.428   -32467.983      15.2149      13.1765      28.7324    5760.2466 
   30500       30.487    216.79647    9.0514754   -622.87995   -613.82847    18579.698    40110.684    51004.359   -35375.949      15.2149      13.1765      28.7324    5760.2466 
   31000       30.987    230.85053    9.6382467   -623.45651   -613.81826    19173.259    38473.837    50668.693   -31622.753      15.2149      13.1765      28.7324    5760.2466 
   31500       31.487     217.7471    9.0911651   -622.89631   -613.80515    19287.414    36943.395    52189.403   -31270.554      15.2149      13.1765      28.7324    5760.2466 
   32000       31.987    220.65506    9.2125752   -623.00618   -613.79361     18786.36    37937.191    47168.717   -28746.828      15.2149      13.1765      28.7324    5760.2466 
   32500       32.487    227.25424     9.488098   -623.27032   -613.78222    19368.847    39257.555    49326.117   -30477.132      15.2149      13.1765      28.7324    5760.2466 
   33000       32.987     226.5674    9.4594215   -623.22896   -613.76954    17689.509    37142.339    48672.309    -32746.12      15.2149      13.1765      28.7324    5760.2466 
   33500       33.487    220.36551    9.2004865   -622.95732   -613.75684    18703.389    39110.579    50681.594   -33682.006      15.2149      13.1765      28.7324    5760.2466 
   34000       33.987    223.12391    9.3156525    -623.0603   -613.74465    17870.406    36783.977    45600.156   -28772.914      15.2149      13.1765      28.7324    5760.2466 
   34500       34.487    243.03881     10.14712   -623.88138   -613.73426    19057.753    39049.519    50207.259    -32083.52      15.2149      13.1765      28.7324    5760.2466 
   35000       34.987    226.65405    9.4630394   -623.18339   -613.72035    19890.792    40592.814    54171.229   -35091.668      15.2149      13.1765      28.7324    5760.2466 
   35500       35.487       232.63    9.7125412    -623.4202   -613.70766    17338.864    36312.794    51249.031   -35545.233      15.2149      13.1765      28.7324    5760.2466 
   36000       35.987    232.43267    9.7043028   -623.40027   -613.69596    18881.171    39934.321    52514.667   -35805.476      15.2149      13.1765      28.7324    5760.2466 
   36500       36.487    215.76682    9.0084861   -622.69079   -613.68231    17244.487    38153.257    49909.654   -36329.449      15.2149      13.1765      28.7324    5760.2466 
   37000       36.987    223.08665    9.3140966   -622.98388   -613.66978    19044.484    42629.958    54284.841   -39781.347      15.2149      13.1765      28.7324    5760.2466 
   37500       37.487    233.82428    9.7624039   -623.41948   -613.65708     17663.62    37901.106    47495.255     -32405.5      15.2149      13.1765      28.7324    5760.2466 
   38000       37.987     219.1955    9.1516373   -622.79615   -613.64452      19764.7     39801.44    51440.793   -31948.133      15.2149      13.1765      28.7324    5760.2466 
   38500       38.487    225.41325    9.4112349   -623.04331   -613.63207    17903.894    36897.465    52525.419   -35711.201      15.2149      13.1765      28.7324    5760.2466 
   39000       38.987    230.84579    9.6380487    -623.2566   -613.61855    19428.382    39416.873    52648.892   -33780.618      15.2149      13.1765      28.7324    5760.2466 
   39500       39.487    224.78062    9.3848217   -622.98998   -613.60516    19683.624    39223.937    53586.249   -33759.315      15.2149      13.1765      28.7324    5760.2466 
   40000       39.987    213.99577    8.9345432   -622.52686   -613.59232    19129.581    40084.751    51127.889   -33823.897      15.2149      13.1765      28.7324    5760.2466 
   40500       40.487    230.07466    9.6058534   -623.18457   -613.57872    17562.242    40369.146    49685.337   -37367.757      15.2149      13.1765      28.7324    5760.2466 
   41000       40.987    239.12619     9.983764   -623.55016   -613.56639    19326.319    39700.766    52985.276   -34707.084      15.2149      13.1765      28.7324    5760.2466 
   41500       41.487     228.4186    9.5367109   -623.09064   -613.55393    21566.288    40367.734    48090.977   -23759.848      15.2149      13.1765      28.7324    5760.2466 
   42000       41.987    221.94961    9.2666239   -622.80654   -613.53992    19872.599    39996.024    50054.891   -30433.119      15.2149      13.1765      28.7324    5760.2466 
   42500       42.487    228.66277    9.5469055   -623.07352   -613.52662    17817.741    37013.288    49663.812   -33223.876      15.2149      13.1765      28.7324    5760.2466 
   43000       42.987    233.60329    9.7531772   -623.26687   -613.51369    17897.158    36349.723     53738.43   -36396.677      15.2149      13.1765      28.7324    5760.2466 
   43500       43.487    228.94633    9.5587442   -623.05925   -613.50051    19161.953    35908.536    56512.517   -34935.194      15.2149      13.1765      28.7324    5760.2466 
   44000       43.987    228.19634    9.5274314   -623.01422   -613.48679    17764.465    39131.727    48627.682   -34466.013      15.2149      13.1765      28.7324    5760.2466 
   44500       44.487     233.5296    9.7501007   -623.22452   -613.47442    18984.229    41807.854    49592.239   -34447.407      15.2149      13.1765      28.7324    5760.2466 
   45000       44.987    231.21752    9.6535691   -623.11476   -613.46119    18381.007    36013.547    52618.537   -33489.061      15.2149      13.1765      28.7324    5760.2466 
   45500       45.487     233.8416     9.763127   -623.21212   -613.44899    16703.975    39043.784    45976.554   -34908.414      15.2149      13.1765      28.7324    5760.2466 
   46000       45.987    231.77836    9.6769844    -623.1124   -613.43542    16790.808    35811.405     52565.62     -38004.6      15.2149      13.1765      28.7324    5760.2466 
   46500       46.487    232.17099    9.6933771   -623.11637   -613.42299    17641.603    39065.101    50216.457    -36356.75      15.2149      13.1765      28.7324    5760.2466 
   47000       46.987    228.54635    9.5420449   -622.95116   -613.40912    20160.721    36559.311    49382.762   -25459.909      15.2149      13.1765      28.7324    5760.2466 
   47500       47.487    247.28521    10.324412   -623.72308   -613.39867    18847.803    40274.091    48016.375   -31747.057      15.2149      13.1765      28.7324    5760.2466 
   48000       47.987    227.48228    9.4976187   -622.88264   -613.38502    19305.059    38601.411    46256.605   -26942.838      15.2149      13.1765      28.7324    5760.2466 
   48500       48.487    233.65127    9.7551805   -623.12649   -613.37131    19442.114    39076.765    49097.862   -29848.284      15.2149      13.1765      28.7324    5760.2466 
   49000       48.987    237.58033    9.9192227   -623.27828   -613.35906    19609.089    38228.494    51174.023   -30575.251      15.2149      13.1765      28.7324    5760.2466 
   49500       49.487    239.38069    9.9943896   -623.34168   -613.34729    18143.209    37998.982    50518.465   -34087.818      15.2149      13.1765      28.7324    5760.2466 
   50000       49.987    230.44301    9.6212324   -622.95507   -613.33383    18862.291    36192.786    50652.514   -30258.427      15.2149      13.1765      28.7324    5760.2466 
   50500       50.487    234.13117    9.7752166    -623.0966   -613.32138    19511.356    41064.265    48142.757   -30672.955      15.2149      13.1765      28.7324    5760.2466 
   51000       50.987    230.57011     9.626539   -622.93644    -613.3099    17384.348    36947.129    49352.756   -34146.842      15.2149      13.1765      28.7324    5760.2466 
   51500       51.487    233.68808    9.7567174    -623.0531   -613.29638        19325     40525.17    51591.421   -34141.591      15.2149      13.1765      28.7324    5760.2466 
   52000       51.987    224.95434    9.3920746   -622.67635   -613.28427    16759.299     38274.16    46796.276   -34792.538      15.2149      13.1765      28.7324    5760.2466 
   52500       52.487    233.00575    9.7282294   -623.00093    -613.2727    18643.776     40416.24    47322.334   -31807.246      15.2149      13.1765      28.7324    5760.2466 
   53000       52.987    236.34992    9.8678519   -623.12835    -613.2605     16771.38    38989.363    48225.606   -36900.828      15.2149      13.1765      28.7324    5760.2466 
   53500       53.487    234.40056    9.7864641    -623.0355   -613.24903    17130.503     39522.16    48210.309   -36340.958      15.2149      13.1765      28.7324    5760.2466 
   54000       53.987    232.24713    9.6965562   -622.93332   -613.23676    15832.776    37573.582    48268.861   -38344.114      15.2149      13.1765      28.7324    5760.2466 
   54500       54.487    230.07145    9.6057192   -622.83124   -613.22552    15859.459    35354.637    48702.938   -36479.198      15.2149      13.1765      28.7324    5760.2466 
   55000       54.987    231.15643    9.6510185    -622.8651   -613.21409    19246.761    38415.376    49282.263   -29957.355      15.2149      13.1765      28.7324    5760.2466 
   55500       55.487      244.953    10.227039   -623.42895   -613.20191    18883.886    39441.374    48998.403    -31788.12      15.2149      13.1765      28.7324    5760.2466 
   56000       55.987    249.18112    10.403568   -623.59412   -613.19056    18488.363    37669.897    51935.827   -34140.636      15.2149      13.1765      28.7324    5760.2466 
   56500       56.487     229.2033    9.5694732   -622.74799   -613.17852    17716.337    35848.914    49037.594   -31737.497      15.2149      13.1765      28.7324    5760.2466 
   57000       56.987    238.63881    9.9634153   -623.12981   -613.16639    18803.789    39529.232    48737.264   -31855.129      15.2149      13.1765      28.7324    5760.2466 
   57500       57.487    226.86273    9.4717517    -622.6269   -613.15515    15897.673    40015.384    48069.514   -40391.879      15.2149      13.1765      28.7324    5760.2466 
   58000       57.987    238.35113    9.9514045   -623.09613   -613.14473    19716.961    36721.622      51134.8    -28705.54      15.2149      13.1765      28.7324    5760.2466 
   58500       58.487    226.05322    9.4379541    -622.5699   -613.13195    18572.914    38200.024    50751.243   -33232.526      15.2149      13.1765      28.7324    5760.2466 
   59000       58.987    236.17915     9.860722   -622.98194   -613.12122    17522.167    39215.671    47341.805   -33990.974      15.2149      13.1765      28.7324    5760.2466 
   59500       59.487    216.59395    9.0430198   -622.15209   -613.10907     19066.49    40689.841    50965.096   -34455.468      15.2149      13.1765      28.7324    5760.2466 
   60000       59.987    230.87252    9.6391646   -622.73749   -613.09832    15894.203    35006.874     46101.59   -33425.855      15.2149      13.1765      28.7324    5760.2466 
   60500       60.487     243.4374    10.163761   -623.25111   -613.08735    19177.018    42667.401    49416.411   -34552.757      15.2149      13.1765      28.7324    5760.2466 
   61000       60.987    232.55546    9.7094292   -622.78558   -613.07615    17978.372    36932.242    48747.942    -31745.07      15.2149      13.1765      28.7324    5760.2466 
   61500       61.487    218.94088    9.1410065   -622.20545   -613.06444    19165.085     41085.79    51905.428   -35495.962      15.2149      13.1765      28.7324    5760.2466 
   62000       61.987    239.42538    9.9962556   -623.05051   -613.05426    17654.887    36683.606    51458.967   -35177.911      15.2149      13.1765      28.7324    5760.2466 
   62500       62.487    235.29995    9.8240146    -622.8672   -613.04318    17977.756    38450.718     55672.61   -40190.059      15.2149      13.1765      28.7324    5760.2466 
   63000       62.987    236.94164    9.8925566   -622.92446   -613.03191    19417.752    39931.214    52284.072   -33962.031      15.2149      13.1765      28.7324    5760.2466 
   63500       63.487    239.72291    10.008677   -623.03055   -613.02187    19032.218    42449.073    46782.187   -32134.606      15.2149      13.1765      28.7324    5760.2466 
   64000       63.987    225.28788    9.4060004   -622.41547   -613.00947    18853.002    40331.514    50920.494   -34693.002      15.2149      13.1765      28.7324    5760.2466 
   64500       64.487    247.05901    10.314967   -623.31469   -612.99972     18187.94    38918.634    53572.439   -37927.251      15.2149      13.1765      28.7324    5760.2466 
   65000       64.987    220.08071    9.1885955   -622.17686   -612.98827    17828.739    37029.519    49035.432   -32578.733      15.2149      13.1765      28.7324    5760.2466 
   65500       65.487    248.22188    10.363519   -623.34219   -612.97867    17530.077    38222.247    47486.909   -33118.924      15.2149      13.1765      28.7324    5760.2466 
   66000       65.987    243.33303    10.159404   -623.12698   -612.96758    17113.367    33818.184    49797.566   -32275.649      15.2149      13.1765      28.7324    5760.2466 
   66500       66.487    234.16378    9.7765781   -622.73254   -612.95596     19196.18    41842.531    49320.318   -33574.308      15.2149      13.1765      28.7324    5760.2466 
   67000       66.987    236.72568    9.8835401   -622.82907   -612.94553    17539.172    38586.148    49979.137   -35947.769      15.2149      13.1765      28.7324    5760.2466 
   67500       67.487    238.78765    9.9696295   -622.90441   -612.93478     18695.07    41323.682    47373.047   -32611.521      15.2149      13.1765      28.7324    5760.2466 
   68000       67.987    225.16461    9.4008539   -622.32401   -612.92316    16873.883    39559.445    48870.214    -37808.01      15.2149      13.1765      28.7324    5760.2466 
   68500       68.487    226.71729    9.4656796   -622.37862   -612.91295     19275.28    40406.111    48518.434   -31098.705      15.2149      13.1765      28.7324    5760.2466 
   69000       68.987    235.26899    9.8227218   -622.72525   -612.90253     16924.65    36690.348    47324.964   -33241.363      15.2149      13.1765      28.7324    5760.2466 
   69500       69.487    240.32778    10.033932   -622.92624   -612.89231    18045.416    37238.699    54284.069   -37386.519      15.2149      13.1765      28.7324    5760.2466 
   70000       69.987      243.916    10.183744   -623.06546   -612.88172     19365.67     39054.42    51101.481   -32058.892      15.2149      13.1765      28.7324    5760.2466 
   70500       70.487     236.7558    9.8847978   -622.75511   -612.87032    17406.785    38019.913    51794.387   -37593.945      15.2149      13.1765      28.7324    5760.2466 
   71000       70.987    251.55368    10.502624   -623.36294   -612.86032    18072.372     38342.53    49585.781   -33711.196      15.2149      13.1765      28.7324    5760.2466 
   71500       71.487    242.89686    10.141193   -622.99003   -612.84884    17724.597     39812.46    53957.275   -40595.945      15.2149      13.1765      28.7324    5760.2466 
   72000       71.987    225.51446    9.4154601   -622.25352   -612.83806    17209.262    40238.597    49739.765   -38350.576      15.2149      13.1765      28.7324    5760.2466 
   72500       72.487    250.90338    10.475474    -623.3033   -612.82783     18240.42    37787.815    49888.878   -32955.434      15.2149      13.1765      28.7324    5760.2466 
   73000       72.987    247.91726      10.3508   -623.16808   -612.81728    18873.963    39154.874    49650.026   -32183.011      15.2149      13.1765      28.7324    5760.2466 
   73500       73.487    232.71689    9.7161691   -622.52259   -612.80642    18918.675    40727.998    51716.165   -35688.137      15.2149      13.1765      28.7324    5760.2466 
   74000       73.987    222.33962    9.2829072   -622.07709   -612.79418    18316.623    39363.162    48316.145   -32729.439      15.2149      13.1765      28.7324    5760.2466 
   74500       74.487    236.28692    9.8652214   -622.65005   -612.78483    18475.497    37748.246    50130.089   -32451.843      15.2149      13.1765      28.7324    5760.2466 
   75000       74.987    237.04525    9.8968825   -622.67087   -612.77398    17853.445     37826.35    49036.678   -33302.693      15.2149      13.1765      28.7324    5760.2466 
   75500       75.487    226.02858    9.4369252   -622.19957   -612.76265    18914.076     36735.83    51353.477   -31347.079      15.2149      13.1765      28.7324    5760.2466 
   76000       75.987    238.51224    9.9581307   -622.71057   -612.75244    19378.853    38326.168    52432.739   -32622.348      15.2149      13.1765      28.7324    5760.2466 
   76500       76.487     234.4123    9.7869543    -622.5286   -612.74164    17844.821    38305.831    49503.707   -34275.075      15.2149      13.1765      28.7324    5760.2466 
   77000       76.987    238.88111    9.9735315   -622.70469   -612.73116    18226.686    36047.885     51729.13   -33096.956      15.2149      13.1765      28.7324    5760.2466 
   77500       77.487    239.08343    9.9819786   -622.70231   -612.72033     19015.05    36708.729    48931.983   -28595.564      15.2149      13.1765      28.7324    5760.2466 
   78000       77.987    235.49206    9.8320351   -622.54127   -612.70924    20441.834    36380.448    52159.911   -27214.859      15.2149      13.1765      28.7324    5760.2466 
   78500       78.487    233.65317    9.7552597   -622.45253   -612.69727    18400.615    37134.443    55831.553    -37764.15      15.2149      13.1765      28.7324    5760.2466 
   79000       78.987    236.56369    9.8767772   -622.56326   -612.68649    19839.789    40954.473     50975.21   -32410.317      15.2149      13.1765      28.7324    5760.2466 
   79500       79.487    241.78833    10.094911   -622.77066   -612.67575    17055.918    37879.111    49239.182   -35950.539      15.2149      13.1765      28.7324    5760.2466 
   80000       79.987     238.0566    9.9391073   -622.60348   -612.66438        19480    36630.405    54924.971   -33115.376      15.2149      13.1765      28.7324    5760.2466 
   80500       80.487    239.16189    9.9852544   -622.63855    -612.6533    21026.188    39934.752    50424.395   -27280.582      15.2149      13.1765      28.7324    5760.2466 
   81000       80.987    246.42038    10.288304   -622.93022   -612.64191    18327.564    38110.875    48350.656   -31478.838      15.2149      13.1765      28.7324    5760.2466 
   81500       81.487    234.07069    9.7726918   -622.40347   -612.63078    18713.251    36495.362    51006.163   -31361.773      15.2149      13.1765      28.7324    5760.2466 
   82000       81.987    243.04948    10.147565   -622.76758   -612.62002    20920.792    40027.584    49064.379   -26329.586      15.2149      13.1765      28.7324    5760.2466 
   82500       82.487    253.07152    10.565996   -623.17534   -612.60934    19944.002    37524.357      50680.2    -28372.55      15.2149      13.1765      28.7324    5760.2466 
   83000       82.987    226.55603     9.458947   -622.05595     -612.597    17398.772    38523.435    47885.706   -34212.826      15.2149      13.1765      28.7324    5760.2466 
   83500       83.487    253.30393    10.575699    -623.1619    -612.5862     17987.51    36106.201    54820.942   -36964.613      15.2149      13.1765      28.7324    5760.2466 
   84000       83.987    257.57658    10.754087   -623.32852   -612.57444    21205.538    38451.627    53102.882   -27937.894      15.2149      13.1765      28.7324    5760.2466 
   84500       84.487     256.7128    10.718023   -623.28152   -612.56349     18977.33    38130.838    51306.456   -32505.302      15.2149      13.1765      28.7324    5760.2466 
   85000       84.987    239.94821    10.018084   -622.56985   -612.55176    19190.086    37913.437    50083.208   -30426.386      15.2149      13.1765      28.7324    5760.2466 
   85500       85.487    249.03552    10.397489   -622.93788    -612.5404    21284.388    36250.834    50555.106   -22952.775      15.2149      13.1765      28.7324    5760.2466 
   86000       85.987    240.84291    10.055439   -622.58339   -612.52795    19576.713    38375.031    49339.892   -28984.784      15.2149      13.1765      28.7324    5760.2466 
   86500       86.487      241.703    10.091348   -622.60765    -612.5163    19356.424     36347.94    56074.446   -34353.113      15.2149      13.1765      28.7324    5760.2466 
   87000       86.987     233.8565     9.763749   -622.26791   -612.50416    19041.226    41606.811    49918.852   -34401.986      15.2149      13.1765      28.7324    5760.2466 
   87500       87.487    244.23037    10.196869   -622.69051   -612.49364    19388.954    38026.972    55294.932   -35155.041      15.2149      13.1765      28.7324    5760.2466 
   88000       87.987    248.19493    10.362393   -622.84443   -612.48203     19335.18    38467.299    50247.515   -30709.275      15.2149      13.1765      28.7324    5760.2466 
   88500       88.487    242.86227    10.139749   -622.60899   -612.46924    19190.536    35959.724    49789.062    -28177.18      15.2149      13.1765      28.7324    5760.2466 
   89000       88.987    238.65327    9.9640193   -622.42091   -612.45689    20525.331      39419.2    52489.538   -30332.745      15.2149      13.1765      28.7324    5760.2466 
   89500       89.487    244.67035    10.215238   -622.66059   -612.44535    19214.516    38708.352    51848.161   -32912.964      15.2149      13.1765      28.7324    5760.2466 
   90000       89.987    235.71465    9.8413286   -622.27406   -612.43273    19441.912    36904.958    48631.802   -27211.023      15.2149      13.1765      28.7324    5760.2466 
   90500       90.487    256.98545    10.729407   -623.15122   -612.42181    19604.767    40509.553    45658.419   -27353.672      15.2149      13.1765      28.7324    5760.2466 
   91000       90.987    243.45694    10.164577   -622.57442   -612.40984     19813.37    41342.733    47600.662   -29503.284      15.2149      13.1765      28.7324    5760.2466 
   91500       91.487    240.92325    10.058793   -622.45637   -612.39758    18516.395    37273.008    51770.869   -33494.691      15.2149      13.1765      28.7324    5760.2466 
   92000       91.987    254.39816    10.621384   -623.00648    -612.3851    18219.227    38353.872    46868.065   -30564.256      15.2149      13.1765      28.7324    5760.2466 
   92500       92.487    233.99101    9.7693649    -622.1424   -612.37304    19667.151    40470.257    47146.555   -28615.359      15.2149      13.1765      28.7324    5760.2466 
   93000       92.987    249.00149    10.396068   -622.75666   -612.36059    19012.203    39315.831     49820.82   -32100.043      15.2149      13.1765      28.7324    5760.2466 
   93500       93.487    232.91781    9.7245578   -622.07213   -612.34757     18905.72    42124.513    48444.358    -33851.71      15.2149      13.1765      28.7324    5760.2466 
   94000       93.987    245.45255    10.247896    -622.5839     -612.336        17718    39064.492    47737.514   -33648.007      15.2149      13.1765      28.7324    5760.2466 
   94500       94.487    250.09749    10.441827   -622.76479   -612.32296    19132.989    38736.962    49397.228   -30735.222      15.2149      13.1765      28.7324    5760.2466 
   95000       94.987    243.73604     10.17623   -622.48688   -612.31065    18599.406    37217.622    46407.064   -27826.469      15.2149      13.1765      28.7324    5760.2466 
   95500       95.487    244.39536    10.203757    -622.5005   -612.29674    20360.832    39980.664    54578.829   -33476.998      15.2149      13.1765      28.7324    5760.2466 
   96000       95.987    225.48203    9.4141064    -621.6982   -612.28409    19774.115    38123.575    52268.653   -31069.884      15.2149      13.1765      28.7324    5760.2466 
   96500       96.487    243.37564    10.161183   -622.43293   -612.27174    18413.181     36082.27    49753.457   -30596.185      15.2149      13.1765      28.7324    5760.2466 
   97000       96.987    253.61537    10.588702    -622.8482    -612.2595    18642.794    37553.716    50186.588    -31811.92      15.2149      13.1765      28.7324    5760.2466 
   97500       97.487     234.8943    9.8070782   -622.05227    -612.2452    18032.429    37921.181    49395.509   -33219.403      15.2149      13.1765      28.7324    5760.2466 
   98000       97.987     235.8019    9.8449715   -622.07759   -612.23262     18834.27    38897.535    48526.966   -30921.693      15.2149      13.1765      28.7324    5760.2466 
   98500       98.487    241.25963    10.072837   -622.29293   -612.22009    20969.267    39063.265    50523.733   -26679.197      15.2149      13.1765      28.7324    5760.2466 
   99000       98.987    256.72388    10.718486   -622.92537   -612.20689    20292.613    37394.062    52161.328   -28677.553      15.2149      13.1765      28.7324    5760.2466 
   99500       99.487    242.77451    10.136085   -622.33063   -612.19454    18366.548    37628.544    53068.663   -35597.562      15.2149      13.1765      28.7324    5760.2466 
  100000       99.987    235.80026    9.8449032   -622.02517   -612.18027    17720.372    39719.143    48172.328   -34730.354      15.2149      13.1765      28.7324    5760.2466 
  100500      100.487    251.73413    10.510159   -622.67834   -612.16818    18525.592    40074.257    51997.097   -36494.578      15.2149      13.1765      28.7324    5760.2466 
  101000      100.987    247.06613    10.315265   -622.46987    -612.1546    18324.412    38216.677    50296.684   -33540.127      15.2149      13.1765      28.7324    5760.2466 
  101500      101.487    239.80545    10.012124   -622.15393   -612.14181    16490.426    37668.573    47914.606   -36111.901      15.2149      13.1765      28.7324    5760.2466 
  102000      101.987    245.08316    10.232474   -622.36123   -612.12876    18011.789    34245.203     48800.84   -29010.677      15.2149      13.1765      28.7324    5760.2466 
  102500      102.487     233.7902    9.7609809   -621.87543   -612.11445    18415.831    36422.923    48803.175   -29978.606      15.2149      13.1765      28.7324    5760.2466 
  103000      102.987    229.87064    9.5973351   -621.69824    -612.1009    19294.256    36785.962     49727.02   -28630.215      15.2149      13.1765      28.7324    5760.2466 
  103500      103.487    254.82729    10.639301   -622.72743   -612.08813    19368.387    38588.163    50616.215   -31099.218      15.2149      13.1765      28.7324    5760.2466 
  104000      103.987    255.18054     10.65405   -622.72863   -612.07458    18809.276    34319.748    50250.007   -28141.926      15.2149      13.1765      28.7324    5760.2466 
  104500      104.487    255.23236    10.656213    -622.7174   -612.06119    17992.552    36999.464    47190.429   -30212.237      15.2149      13.1765      28.7324    5760.2466 
  105000      104.987    244.22612    10.196691   -622.24385   -612.04716    21259.801    39413.046    52236.582   -27870.224      15.2149      13.1765      28.7324    5760.2466 
  105500      105.487    242.70487    10.133178   -622.16704   -612.03387    21160.482    40133.761    51573.665   -28225.979      15.2149      13.1765      28.7324    5760.2466 
  106000      105.987    256.28385    10.700114   -622.71982   -612.01971    18505.251    36025.765     45756.86   -26266.873      15.2149      13.1765      28.7324    5760.2466 
  106500      106.487    246.31577    10.283936    -622.2889   -612.00496    19698.412    39375.662    49638.126   -29918.552      15.2149      13.1765      28.7324    5760.2466 
  107000      106.987    260.90628    10.893105   -622.88468   -611.99158    19520.965    36729.068    47354.991   -25521.163      15.2149      13.1765      28.7324    5760.2466 
  107500      107.487    253.89712    10.600465   -622.57801   -611.97754    16024.664    34771.827    45423.143   -32120.978      15.2149      13.1765      28.7324    5760.2466 
  108000      107.987    256.58112    10.712525   -622.67671   -611.96419    20138.259    40883.047    52460.229     -32928.5      15.2149      13.1765      28.7324    5760.2466 
  108500      108.487    255.77396    10.678825   -622.62936   -611.95054    18925.696    39011.938    50197.871   -32432.721      15.2149      13.1765      28.7324    5760.2466 
  109000      108.987    253.92419    10.601596   -622.53746   -611.93586    16901.713    38057.647    42640.675   -29993.183      15.2149      13.1765      28.7324    5760.2466 
  109500      109.487    244.43072    10.205233   -622.12693    -611.9217    19471.044    38766.632    51788.154   -32141.654      15.2149      13.1765      28.7324    5760.2466 
  110000      109.987    251.66286    10.507183   -622.41472   -611.90754    18465.539    38502.629    49178.974   -32284.985      15.2149      13.1765      28.7324    5760.2466 
  110500      110.487    248.07491    10.357382   -622.25072   -611.89334    18681.277    38617.024    54516.875   -37090.068      15.2149      13.1765      28.7324    5760.2466 
  111000      110.987    250.38576    10.453863   -622.33255   -611.87869    20038.178    40335.711    48552.758   -28773.935      15.2149      13.1765      28.7324    5760.2466 
  111500      111.487     247.2105    10.321292   -622.18592   -611.86463    19265.455    41204.063    52702.308   -36110.005      15.2149      13.1765      28.7324    5760.2466 
  112000      111.987    252.22424    10.530621    -622.3802   -611.84958    20674.665    42065.517    53716.061   -33757.582      15.2149      13.1765      28.7324    5760.2466 
  112500      112.487    243.58561    10.169949   -622.00538   -611.83543    18026.878     35683.55    48811.138   -30414.053      15.2149      13.1765      28.7324    5760.2466 
  113000      112.987    260.53395     10.87756   -622.69889   -611.82133    19805.624    40442.118     52234.16   -33259.407      15.2149      13.1765      28.7324    5760.2466 
  113500      113.487    243.60887     10.17092   -621.97748   -611.80656     19362.19    39670.222    49904.844   -31488.497      15.2149      13.1765      28.7324    5760.2466 
  114000      113.987    253.89217    10.600259   -622.39163   -611.79137    18105.326    35567.876     55252.13   -36504.027      15.2149      13.1765      28.7324    5760.2466 
  114500      114.487    252.66876     10.54918   -622.32657   -611.77739    19432.822    36235.776    50317.413   -28254.724      15.2149      13.1765      28.7324    5760.2466 
  115000      114.987     261.2875    10.909022   -622.67131   -611.76229    19181.305    41048.324    50171.501   -33675.911      15.2149      13.1765      28.7324    5760.2466 
  115500      115.487    264.71977    11.052322   -622.80084   -611.74852    17341.301     34961.52     49312.77   -32250.387      15.2149      13.1765      28.7324    5760.2466 
  116000      115.987    251.74425    10.510581   -622.24386   -611.73328    19389.109    39674.542     52292.96   -33800.173      15.2149      13.1765      28.7324    5760.2466 
  116500      116.487    242.60673     10.12908   -621.84828    -611.7192    17251.175    38120.812    45557.419   -31924.706      15.2149      13.1765      28.7324    5760.2466 
  117000      116.987    258.75657    10.803352   -622.50761   -611.70426    19720.677    39035.887    52361.645   -32235.501      15.2149      13.1765      28.7324    5760.2466 
  117500      117.487    251.64624    10.506489   -622.19578   -611.68929     18546.55    37283.788    49621.544   -31265.681      15.2149      13.1765      28.7324    5760.2466 
  118000      117.987    257.37099    10.745503   -622.42031   -611.67481    17992.158    39513.093     47990.56   -33527.178      15.2149      13.1765      28.7324    5760.2466 
  118500      118.487    250.81014    10.471581   -622.13141   -611.65983    20119.693    38940.343    52193.114   -30774.378      15.2149      13.1765      28.7324    5760.2466 
  119000      118.987    267.59757    11.172473   -622.81908    -611.6466     19626.82    39376.238     48081.09   -28576.868      15.2149      13.1765      28.7324    5760.2466 
  119500      119.487    249.54301    10.418677   -622.04898    -611.6303    17521.495    38058.792    53475.535   -38969.841      15.2149      13.1765      28.7324    5760.2466 
  120000      119.987    257.82465    10.764444   -622.38057   -611.61612    18466.272    40142.381    49595.274   -34338.838      15.2149      13.1765      28.7324    5760.2466 
  120500      120.487    257.38651    10.746151   -622.34704   -611.60089    18474.838    38528.816    53633.025   -36737.326      15.2149      13.1765      28.7324    5760.2466 
  121000      120.987    265.16371    11.070857   -622.65719   -611.58633    18390.289    37907.823     49714.53   -32451.486      15.2149      13.1765      28.7324    5760.2466 
  121500      121.487    257.85565    10.765738   -622.33593   -611.57019    18359.082     38283.48    56798.187   -40004.423      15.2149      13.1765      28.7324    5760.2466 
  122000      121.987    263.84898    11.015966   -622.57193   -611.55597    20590.147    40582.499    51328.848   -30140.905      15.2149      13.1765      28.7324    5760.2466 
  122500      122.487     251.6511    10.506692   -622.04645   -611.53976    19932.311    39635.083     53784.96    -33623.11      15.2149      13.1765      28.7324    5760.2466 
  123000      122.987    250.01105    10.438218   -621.96261   -611.52439    19563.557    39685.597     53730.48   -34725.405      15.2149      13.1765      28.7324    5760.2466 
  123500      123.487    269.32139    11.244444   -622.75429   -611.50984    18530.332    37433.511    53846.835   -35689.349      15.2149      13.1765      28.7324    5760.2466 
  124000      123.987    256.90392    10.726002   -622.22048   -611.49447    18760.199    39005.589    51817.459   -34542.451      15.2149      13.1765      28.7324    5760.2466 
  124500      124.487     248.0834    10.357736   -621.83654    -611.4788    19459.472    39496.256    52654.072   -33771.912      15.2149      13.1765      28.7324    5760.2466 
  125000      124.987    247.62874    10.338754   -621.80242   -611.46366    17700.069    38555.398    49533.099    -34988.29      15.2149      13.1765      28.7324    5760.2466 
  125500      125.487    237.99731    9.9366321   -621.38537   -611.44874    20512.593    43924.701    48824.527   -31211.449      15.2149      13.1765      28.7324    5760.2466 
  126000      125.987    250.00419    10.437932   -621.87053   -611.43259    18017.198    37062.391        53512   -36522.799      15.2149      13.1765      28.7324    5760.2466 
  126500      126.487    259.12739    10.818835   -622.23592   -611.41708    17161.254    37527.063    50761.127   -36804.428      15.2149      13.1765      28.7324    5760.2466 
  127000      126.987    257.83876    10.765033   -622.16731   -611.40227    17797.676    37360.412    53588.875   -37556.258      15.2149      13.1765      28.7324    5760.2466 
  127500      127.487    262.82208    10.973092   -622.36016   -611.38707    17101.826    35918.269    51891.862   -36504.653      15.2149      13.1765      28.7324    5760.2466 
  128000      127.987    276.55521    11.546464   -622.91875   -611.37228    20145.369    40612.637    52438.264   -32614.794      15.2149      13.1765      28.7324    5760.2466 
  128500      128.487     267.5622    11.170996    -622.5273   -611.35631    19092.388    39681.602    54570.048   -36974.487      15.2149      13.1765      28.7324    5760.2466 
  129000      128.987    261.17026    10.904127   -622.24448   -611.34035    19357.924    41316.501    51550.132   -34792.862      15.2149      13.1765      28.7324    5760.2466 
  129500      129.487    256.35331    10.703014   -622.02674   -611.32373    18709.196    38996.795    49218.909   -32088.117      15.2149      13.1765      28.7324    5760.2466 
  130000      129.987     258.2108    10.780566   -622.08961   -611.30904    20883.593    39723.393    52007.562   -29080.177      15.2149      13.1765      28.7324    5760.2466 
  130500      130.487    246.94145    10.310059   -621.60334   -611.29328    19561.442    39267.218    59310.868   -39893.762      15.2149      13.1765      28.7324    5760.2466 
  131000      130.987    264.86114    11.058225   -622.33692   -611.27869    19985.475    40460.244    52287.397   -32791.216      15.2149      13.1765      28.7324    5760.2466 
  131500      131.487    262.84025     10.97385   -622.23703   -611.26318    19006.832    39672.451    51394.146   -34046.101      15.2149      13.1765      28.7324    5760.2466 
  132000      131.987    280.54449     11.71302   -622.96074   -611.24772    19000.758    40736.962    51676.421   -35411.109      15.2149      13.1765      28.7324    5760.2466 
  132500      132.487    255.57057    10.670334   -621.90149   -611.23116    17982.758    37144.838    48440.555   -31637.118      15.2149      13.1765      28.7324    5760.2466 
  133000      132.987    265.80958    11.097823   -622.31332    -611.2155      18879.5    37961.548    54010.826   -35333.874      15.2149      13.1765      28.7324    5760.2466 
  133500      133.487    257.33575    10.744032   -621.94325   -611.19922    18241.134    39142.129    52663.372   -37082.099      15.2149      13.1765      28.7324    5760.2466 
  134000      133.987    265.14649    11.070138   -622.25432   -611.18418    18495.797    37115.672    45583.132   -27211.412      15.2149      13.1765      28.7324    5760.2466 
  134500      134.487    269.16241    11.237807   -622.40683   -611.16902     19757.55    37173.121     52380.21    -30280.68      15.2149      13.1765      28.7324    5760.2466 
  135000      134.987    255.19363    10.654596   -621.80667   -611.15208    18046.485    38559.924    49861.228   -34281.696      15.2149      13.1765      28.7324    5760.2466 
  135500      135.487    253.74924    10.594291   -621.73077   -611.13648    17789.121    40894.568    52577.859   -40105.065      15.2149      13.1765      28.7324    5760.2466 
  136000      135.987    245.92821    10.267755   -621.38821   -611.12045     17838.47    39805.672    50477.016   -36767.278      15.2149      13.1765      28.7324    5760.2466 
  136500      136.487    248.77847    10.386756   -621.49207   -611.10531     18670.45    44194.797    49146.964   -37330.412      15.2149      13.1765      28.7324    5760.2466 
  137000      136.987    251.30813    10.492372   -621.58266   -611.09029    17950.907    39449.002    52906.192   -38502.474      15.2149      13.1765      28.7324    5760.2466 
  137500      137.487     254.8931    10.642049    -621.7161   -611.07405    18487.869    39068.014    51086.036   -34690.443      15.2149      13.1765      28.7324    5760.2466 
  138000      137.987    263.99601    11.022104   -622.08078   -611.05868    17988.612     37656.39    48809.604   -32500.157      15.2149      13.1765      28.7324    5760.2466 
  138500      138.487    266.54175    11.128392   -622.17203   -611.04364    18949.256    36368.704    52334.634   -31855.571      15.2149      13.1765      28.7324    5760.2466 
  139000      138.987    261.39466    10.913495    -621.9397    -611.0262    19571.448    41396.672    49095.138   -31777.467      15.2149      13.1765      28.7324    5760.2466 
  139500      139.487    262.49511     10.95944   -621.97063   -611.01119    17178.188    37964.742    50700.563   -37130.741      15.2149      13.1765      28.7324    5760.2466 
  140000      139.987    262.77974    10.971324   -621.96663   -610.99531     17490.36    37996.671    51703.559   -37229.151      15.2149      13.1765      28.7324    5760.2466 
  140500      140.487     278.0453    11.608677   -622.58858   -610.97991     19171.31    39553.506    50869.952   -32909.528      15.2149      13.1765      28.7324    5760.2466 
  141000      140.987    273.13316     11.40359    -622.3676   -610.96401    16537.597    37980.203     48251.23   -36618.641      15.2149      13.1765      28.7324    5760.2466 
  141500      141.487    258.99902    10.813475     -621.761   -610.94752    17877.856    40098.984    50335.361   -36800.778      15.2149      13.1765      28.7324    5760.2466 
  142000      141.987    261.11475    10.901809   -621.83454   -610.93273    19415.284    43070.871    48978.424   -33803.443      15.2149      13.1765      28.7324    5760.2466 
  142500      142.487    261.80771    10.930741   -621.84691   -610.91617    19002.529    36220.057    53954.342   -33166.812      15.2149      13.1765      28.7324    5760.2466 
  143000      142.987    271.86802    11.350769   -622.25155   -610.90078    19578.761    39945.924    52417.266   -33626.906      15.2149      13.1765      28.7324    5760.2466 
  143500      143.487    264.61058    11.047763   -621.93127    -610.8835    19008.723    37445.937    50839.359   -31259.127      15.2149      13.1765      28.7324    5760.2466 
  144000      143.987    257.59884    10.755016    -621.6223   -610.86729    17598.117    38389.456    51230.608   -36825.713      15.2149      13.1765      28.7324    5760.2466 
  144500      144.487    263.31229    10.993558   -621.84527   -610.85172    20153.247    41032.949    51533.354   -32106.564      15.2149      13.1765      28.7324    5760.2466 
  145000      144.987    262.36659    10.954075    -621.7897   -610.83563    19422.757    39287.485    53111.903   -34131.118      15.2149      13.1765      28.7324    5760.2466 
  145500      145.487    265.23279    11.073741   -621.89258   -610.81884     17740.67    37441.733    51438.086   -35657.807      15.2149      13.1765      28.7324    5760.2466 
  146000      145.987    257.95811    10.770016   -621.57299   -610.80298    18225.457    41620.005    52220.876   -39164.511      15.2149      13.1765      28.7324    5760.2466 
  146500      146.487    260.81273    10.889199   -621.67662   -610.78742    17618.086    39020.123    53257.651   -39423.515      15.2149      13.1765      28.7324    5760.2466 
  147000      146.987    279.49802    11.669329   -622.44124   -610.77191    18467.907     41749.41    53073.668   -39419.358      15.2149      13.1765      28.7324    5760.2466 
  147500      147.487    272.38822    11.372488   -622.12829    -610.7558    17643.755    39715.446    51068.263   -37852.442      15.2149      13.1765      28.7324    5760.2466 
  148000      147.987    271.07961    11.317852   -622.05707   -610.73921    18003.224    42107.969    51860.076   -39958.372      15.2149      13.1765      28.7324    5760.2466 
  148500      148.487    256.75723    10.719878   -621.44201   -610.72214     19254.25    41155.699    48326.972   -31719.922      15.2149      13.1765      28.7324    5760.2466 
  149000      148.987    270.78061    11.305369   -622.01228   -610.70691    20221.942    43080.712    52332.533   -34747.418      15.2149      13.1765      28.7324    5760.2466 
  149500      149.487    271.58426    11.338922   -622.02964   -610.69072    18569.439     40799.07    49667.769   -34758.522      15.2149      13.1765      28.7324    5760.2466 
  150000      149.987    259.51368    10.834962   -621.50915   -610.67418    18248.356    42167.808    53158.217   -40580.959      15.2149      13.1765      28.7324    5760.2466 
  150500      150.487    249.16521    10.402903   -621.05989   -610.65699    19842.679    43846.926    52931.915   -37250.806      15.2149      13.1765      28.7324    5760.2466 
  151000      150.987     262.9202    10.977188   -621.61968   -610.64249    16772.641    38849.863    48738.613   -37270.553      15.2149      13.1765      28.7324    5760.2466 
  151500      151.487    253.43208     10.58105   -621.20725    -610.6262    19483.569    40189.975    51319.793   -33059.059      15.2149      13.1765      28.7324    5760.2466 
  152000      151.987    258.94452      10.8112   -621.42089   -610.60969    18392.192    40207.177    52121.724   -37152.324      15.2149      13.1765      28.7324    5760.2466 
  152500      152.487    274.27828      11.4514   -622.04616   -610.59476    19315.428    36646.278    55665.047   -34365.042      15.2149      13.1765      28.7324    5760.2466 
  153000      152.987    256.43818    10.706558   -621.28328   -610.57672    19155.272    37843.509    53089.847   -33467.538      15.2149      13.1765      28.7324    5760.2466 
  153500      153.487    276.68125    11.551726   -622.11362   -610.56189    19622.343    42277.486    53364.152    -36774.61      15.2149      13.1765      28.7324    5760.2466 
  154000      153.987    261.49079    10.917509   -621.46219   -610.54468    18598.151     39105.53    52076.832   -35387.909      15.2149      13.1765      28.7324    5760.2466 
  154500      154.487    281.79139     11.76508   -622.29504   -610.52996    18553.841    40363.339    52521.205    -37223.02      15.2149      13.1765      28.7324    5760.2466 
  155000      154.987    276.67256    11.551363   -622.06457   -610.51321    17460.345    38282.695    51533.246   -37434.907      15.2149      13.1765      28.7324    5760.2466 
  155500      155.487    255.01401    10.647097   -621.14387   -610.49678    18583.719    41601.864    53066.072   -38916.778      15.2149      13.1765      28.7324    5760.2466 
  156000      155.987    264.12823    11.027625   -621.50837   -610.48074    17819.648     39363.78    50583.827   -36488.663      15.2149      13.1765      28.7324    5760.2466 
  156500      156.487    282.10437    11.778147    -622.2429   -610.46475    18538.588    38073.156    54070.927   -36528.319      15.2149      13.1765      28.7324    5760.2466 
  157000      156.987    264.87028    11.058606   -621.50697   -610.44837    17862.169    38981.837    54006.531   -39401.862      15.2149      13.1765      28.7324    5760.2466 
  157500      157.487    275.01482    11.482151   -621.91478   -610.43263    19372.757    40427.942    50907.334   -33217.006      15.2149      13.1765      28.7324    5760.2466 
  158000      157.987    265.83335    11.098815   -621.51443   -610.41562    18158.042    38476.309     49645.15   -33647.334      15.2149      13.1765      28.7324    5760.2466 
  158500      158.487    265.42689    11.081845   -621.48074    -610.3989     18202.74    38340.492    49225.621   -32957.895      15.2149      13.1765      28.7324    5760.2466 
  159000      158.987    268.35751    11.204202   -621.58716   -610.38296    21870.149    39999.462    54319.964   -28708.978      15.2149      13.1765      28.7324    5760.2466 
  159500      159.487    270.04864    11.274808   -621.64031    -610.3655    19068.246    38742.084    49881.604    -31418.95      15.2149      13.1765      28.7324    5760.2466 
  160000      159.987    281.40221    11.748831    -622.0995   -610.35066    20135.421    40466.861    46976.155   -27036.753      15.2149      13.1765      28.7324    5760.2466 
  160500      160.487    273.29162    11.410206   -621.74353   -610.33333    18567.326    37355.638    52162.781    -33816.44      15.2149      13.1765      28.7324    5760.2466 
  161000      160.987    283.78142    11.848166   -622.16672   -610.31856    17601.371    37826.442    51779.259   -36801.587      15.2149      13.1765      28.7324    5760.2466 
  161500      161.487    260.22356    10.864601   -621.16525   -610.30065    19723.257    41753.666    52096.264   -34680.158      15.2149      13.1765      28.7324    5760.2466 
  162000      161.987    267.63728    11.174131   -621.45939   -610.28526    19014.493     41111.93    53314.892   -37383.343      15.2149      13.1765      28.7324    5760.2466 
  162500      162.487    280.81458    11.724297   -621.99261   -610.26831    18168.633    38440.004    50502.111   -34436.217      15.2149      13.1765      28.7324    5760.2466 
  163000      162.987    275.83172    11.516258   -621.76791   -610.25165    19924.143    40766.671    51600.535   -32594.777      15.2149      13.1765      28.7324    5760.2466 
  163500      163.487     270.4065    11.289749   -621.52375     -610.234    19008.284     41950.91    51120.401    -36046.46      15.2149      13.1765      28.7324    5760.2466 
  164000      163.987    275.63697    11.508127   -621.72611   -610.21798    22677.501    42815.202    52283.687   -27066.385      15.2149      13.1765      28.7324    5760.2466 
  164500      164.487    267.16892    11.154577   -621.35613   -610.20155    19410.279    40321.313    53655.835   -35746.312      15.2149      13.1765      28.7324    5760.2466 
  165000      164.987    277.01632    11.565716   -621.75075   -610.18504    18281.323    39354.223    49536.159   -34046.413      15.2149      13.1765      28.7324    5760.2466 
  165500      165.487    288.08689    12.027923   -622.19696   -610.16903    21853.979    40039.364    54268.174   -28745.601      15.2149      13.1765      28.7324    5760.2466 
  166000      165.987    283.22121    11.824776   -621.97684   -610.15207    18587.361     40583.51    49323.384   -34144.811      15.2149      13.1765      28.7324    5760.2466 
  166500      166.487    261.45365    10.915959   -621.05081   -610.13485    19117.677    39790.666    50163.031   -32600.667      15.2149      13.1765      28.7324    5760.2466 
  167000      166.987    269.31337     11.24411   -621.36207   -610.11796    19047.357    41791.166    53279.892   -37928.988      15.2149      13.1765      28.7324    5760.2466 
  167500      167.487      279.124    11.653714   -621.75577   -610.10206    18494.773    41046.967    51794.839   -37357.488      15.2149      13.1765      28.7324    5760.2466 
  168000      167.987    261.37804    10.912802   -620.99713   -610.08432    18367.963    36580.345    54560.217   -36036.673      15.2149      13.1765      28.7324    5760.2466 
  168500      168.487    282.89725    11.811251   -621.88036   -610.06911    19996.436    40905.116    51846.388   -32762.197      15.2149      13.1765      28.7324    5760.2466 
  169000      168.987    265.50418    11.085072   -621.13633   -610.05126    18471.854    41067.851     54006.21   -39658.498      15.2149      13.1765      28.7324    5760.2466 
  169500      169.487    271.84737    11.349907   -621.38455   -610.03464    18756.167    38382.657    49959.338   -32073.494      15.2149      13.1765      28.7324    5760.2466 
  170000      169.987    283.57315     11.83947   -621.85811   -610.01864    17504.425    37480.247    48005.602   -32972.575      15.2149      13.1765      28.7324    5760.2466 
  170500      170.487    262.10423    10.943121   -620.94405   -610.00093    19787.537    42916.454    48804.585   -32358.429      15.2149      13.1765      28.7324    5760.2466 
  171000      170.987     281.1634    11.738861   -621.72415   -609.98529    16519.834    38675.479    50019.958   -39135.935      15.2149      13.1765      28.7324    5760.2466 
  171500      171.487    275.89625    11.518952   -621.48751   -609.96856        18849    39825.732    51058.968   -34337.702      15.2149      13.1765      28.7324    5760.2466 
  172000      171.987    302.21092    12.617616   -622.56932   -609.95171      21846.4    40087.347    55950.015   -30498.163      15.2149      13.1765      28.7324    5760.2466 
  172500      172.487    285.01613    11.899716   -621.83529   -609.93558    21929.307        41479    50356.813   -26047.891      15.2149      13.1765      28.7324    5760.2466 
  173000      172.987    264.93005    11.061102   -620.97796   -609.91686    20112.286     40735.45    51167.115   -31565.708      15.2149      13.1765      28.7324    5760.2466 
  173500      173.487    279.36347    11.663712   -621.56395   -609.90023    20791.523    39538.462    51600.319   -28764.212      15.2149      13.1765      28.7324    5760.2466 
  174000      173.987      274.972    11.480363    -621.3644   -609.88404    21107.953     39317.65     52018.19   -28011.982      15.2149      13.1765      28.7324    5760.2466 
  174500      174.487    286.22191    11.950059   -621.81721   -609.86715    21179.615    43484.634    50431.014   -30376.803      15.2149      13.1765      28.7324    5760.2466 
  175000      174.987    281.48249    11.752183   -621.60235   -609.85016    18027.063    37783.926    46199.175   -29901.914      15.2149      13.1765      28.7324    5760.2466 
  175500      175.487    268.79866     11.22262   -621.05671   -609.83409    18961.901    38839.385    51209.115   -33162.795      15.2149      13.1765      28.7324    5760.2466 
  176000      175.987    272.90058    11.393879   -621.21044   -609.81656     21041.08    39710.463    55096.245   -31683.467      15.2149      13.1765      28.7324    5760.2466 
  176500      176.487    280.30191    11.702892   -621.50294   -609.80004     18320.53    38048.881    54064.067   -37151.357      15.2149      13.1765      28.7324    5760.2466 
  177000      176.987    294.73992    12.305694   -622.08919   -609.78349    19843.697    38092.054    51398.027   -29958.991      15.2149      13.1765      28.7324    5760.2466 
  177500      177.487    269.73792    11.261835   -621.02687   -609.76503    19545.298     36237.14    52875.066   -30476.313      15.2149      13.1765      28.7324    5760.2466 
  178000      177.987    279.90608    11.686366   -621.43523   -609.74886    20266.091    39294.655    51022.324   -29518.706      15.2149      13.1765      28.7324    5760.2466 
  178500      178.487    287.59886    12.007548   -621.74138   -609.73383    18891.479    39705.012    49981.659   -33012.233      15.2149      13.1765      28.7324    5760.2466 
  179000      178.987    277.13912    11.570843   -621.28688   -609.71604    18201.243    37099.148    52000.439   -34495.858      15.2149      13.1765      28.7324    5760.2466 
  179500      179.487    270.17042    11.279892   -620.97788   -609.69799    21128.868    42406.118    50415.826   -29435.341      15.2149      13.1765      28.7324    5760.2466 
  180000      179.987    280.49305    11.710873   -621.39182   -609.68094    19679.112    37441.225    52764.879   -31168.768      15.2149      13.1765      28.7324    5760.2466 
  180500      180.487    287.90543    12.020347   -621.68499   -609.66465    18949.431    42945.409    51349.026   -37446.141      15.2149      13.1765      28.7324    5760.2466 
  181000      180.987    274.27644    11.451323   -621.09863   -609.64731    20260.599    39545.661    52333.576    -31097.44      15.2149      13.1765      28.7324    5760.2466 
  181500      181.487    280.01178    11.690779   -621.32097   -609.63019     18843.29    40674.181    48329.622   -32473.933      15.2149      13.1765      28.7324    5760.2466 
  182000      181.987    286.36284    11.955943   -621.57008   -609.61414    20101.028    40433.587    49621.096   -29751.599      15.2149      13.1765      28.7324    5760.2466 
  182500      182.487    286.86254    11.976806   -621.57394   -609.59714    18821.927    39646.277    52884.734    -36065.23      15.2149      13.1765      28.7324    5760.2466 
  183000      182.987    273.38793    11.414227   -620.99371   -609.57949    18716.334    40698.694    54149.644   -38699.337      15.2149      13.1765      28.7324    5760.2466 
  183500      183.487    277.88015    11.601782   -621.16456   -609.56278    19348.031    40220.053    48893.078    -31069.04      15.2149      13.1765      28.7324    5760.2466 
  184000      183.987    263.46836    11.000075   -620.54537   -609.54529    18794.358    40557.121    53903.876   -38077.923      15.2149      13.1765      28.7324    5760.2466 
  184500      184.487    307.32441     12.83111   -622.36078   -609.52967    18017.943    39429.127    48623.307   -33998.604      15.2149      13.1765      28.7324    5760.2466 
  185000      184.987    274.93605    11.478863   -620.99042   -609.51156    19680.265    40507.389    51004.362   -32470.956      15.2149      13.1765      28.7324    5760.2466 
  185500      185.487    274.67531    11.467976   -620.96321   -609.49524    19349.391    41782.941    53382.479   -37117.246      15.2149      13.1765      28.7324    5760.2466 
  186000      185.987    291.37474    12.165195   -621.64327   -609.47807    17810.159    40967.891    47137.208   -34674.622      15.2149      13.1765      28.7324    5760.2466 
  186500      186.487    286.09373    11.944707   -621.40655   -609.46184    18520.395    37112.267    53517.372   -35068.454      15.2149      13.1765      28.7324    5760.2466 
  187000      186.987    278.22192    11.616051   -621.06003   -609.44398    16959.902    37933.637    50300.111   -37354.043      15.2149      13.1765      28.7324    5760.2466 
  187500      187.487     292.3946    12.207775   -621.63516   -609.42739    17690.931    39670.726    49419.422   -36017.355      15.2149      13.1765      28.7324    5760.2466 
  188000      187.987    264.53718    11.044699    -620.4541   -609.40941    20131.825    42208.646    45163.242   -26976.413      15.2149      13.1765      28.7324    5760.2466 
  188500      188.487     259.8157    10.847572   -620.24003   -609.39246    17819.035    39316.722    47757.664   -33617.281      15.2149      13.1765      28.7324    5760.2466 
  189000      188.987    277.03887    11.566657   -620.94365   -609.37699    18561.698    40287.837    47639.282   -32242.025      15.2149      13.1765      28.7324    5760.2466 
  189500      189.487    290.62083    12.133718   -621.49386   -609.36014    18300.393    40027.366     48743.08   -33869.266      15.2149      13.1765      28.7324    5760.2466 
  190000      189.987    282.18399    11.781472   -621.12445   -609.34298    19978.681    37143.862    46034.226   -23242.043      15.2149      13.1765      28.7324    5760.2466 
  190500      190.487    270.88586    11.309763   -620.63585   -609.32609    19581.468    37903.238    53398.128   -32556.962      15.2149      13.1765      28.7324    5760.2466 
  191000      190.987    283.71548    11.845412    -621.1539   -609.30849    19651.205    40858.252    50104.104   -32008.743      15.2149      13.1765      28.7324    5760.2466 
  191500      191.487    274.63874    11.466449   -620.75708   -609.29063    18168.924     43206.32    46898.335   -35597.883      15.2149      13.1765      28.7324    5760.2466 
  192000      191.987    279.38642     11.66467   -620.93903   -609.27436     19243.51     38904.24    51240.553   -32414.262      15.2149      13.1765      28.7324    5760.2466 
  192500      192.487    279.93981    11.687775   -620.94472   -609.25694    17428.853    38532.522    53011.032   -39256.995      15.2149      13.1765      28.7324    5760.2466 
  193000      192.987    283.41689    11.832946   -621.07146   -609.23851    18506.454    42095.177    49994.655   -36570.469      15.2149      13.1765      28.7324    5760.2466 
  193500      193.487    296.52092    12.380053   -621.60307   -609.22301    17858.573     37266.32    53422.448    -37113.05      15.2149      13.1765      28.7324    5760.2466 
  194000      193.987    285.80106    11.932488    -621.1378   -609.20531    18029.085    37190.328    52624.733   -35727.807      15.2149      13.1765      28.7324    5760.2466 
  194500      194.487    309.30345    12.913737   -622.10299   -609.18926    18508.731    38461.025    46364.966   -29299.798      15.2149      13.1765      28.7324    5760.2466 
  195000      194.987    278.86998    11.643108   -620.81311      -609.17     17072.78    37395.894     52314.46   -38492.013      15.2149      13.1765      28.7324    5760.2466 
  195500      195.487    285.79659    11.932301   -621.08528   -609.15298    19724.995    41188.508    47850.699   -29864.221      15.2149      13.1765      28.7324    5760.2466 
  196000      195.987    280.54233     11.71293   -620.84819   -609.13526    19110.349    40515.131    49112.398   -32296.483      15.2149      13.1765      28.7324    5760.2466 
  196500      196.487    304.61817    12.718122    -621.8364   -609.11828    20261.452    42148.816    50203.293   -31567.752      15.2149      13.1765      28.7324    5760.2466 
  197000      196.987    279.55019    11.671508   -620.77181    -609.1003    16882.977    39473.246    55335.718   -44160.033      15.2149      13.1765      28.7324    5760.2466 
  197500      197.487    276.14284    11.529247   -620.61193   -609.08269    18291.424    38007.913     53876.74   -37010.381      15.2149      13.1765      28.7324    5760.2466 
  198000      197.987     282.6751    11.801976   -620.86795   -609.06598     18774.24    40558.324    51397.736   -35633.339      15.2149      13.1765      28.7324    5760.2466 
  198500      198.487    288.95644    12.064228   -621.11285   -609.04862    18194.709     38571.12    53575.907     -37562.9      15.2149      13.1765      28.7324    5760.2466 
  199000      198.987    294.95389    12.314628   -621.34508   -609.03045     17886.42    41756.316    46910.887   -35007.943      15.2149      13.1765      28.7324    5760.2466 
  199500      199.487    285.48746    11.919394   -620.93241   -609.01302    18992.027    38572.503    53479.544   -35075.965      15.2149      13.1765      28.7324    5760.2466 
  200000      199.987    287.94545    12.022018   -621.01694   -608.99493    17714.571    40239.414    50590.732   -37686.434      15.2149      13.1765      28.7324    5760.2466 
  200500      200.487    298.57195    12.465685   -621.44368     -608.978    18615.675    39468.892    50914.591   -34536.457      15.2149      13.1765      28.7324    5760.2466 
  201000      200.987    297.68303    12.428572   -621.38876   -608.96018    19211.634    35232.955    53627.684   -31225.735      15.2149      13.1765      28.7324    5760.2466 
  201500      201.487     278.1174    11.611687   -620.55351   -608.94182    20489.936    38472.633    54417.955   -31420.782      15.2149      13.1765      28.7324    5760.2466 
  202000      201.987     290.4609    12.127041   -621.05211   -608.92506     19912.85    40032.991      54546.6   -34841.042      15.2149      13.1765      28.7324    5760.2466 
  202500      202.487    286.69384    11.969762   -620.87704   -608.90727    18016.723    36053.364    54508.498   -36511.692      15.2149      13.1765      28.7324    5760.2466 
  203000      202.987    287.48527    12.002805   -620.89165   -608.88884    19576.497    40102.905    51260.353   -32633.767      15.2149      13.1765      28.7324    5760.2466 
  203500      203.487    299.77727    12.516009   -621.38788   -608.87187    18677.644    40243.702    47512.949    -31723.72      15.2149      13.1765      28.7324    5760.2466 
  204000      203.987    306.20707     12.78446   -621.63912   -608.85466    17905.919    38758.881    52525.808   -37566.932      15.2149      13.1765      28.7324    5760.2466 
  204500      204.487     282.2445    11.783998    -620.6206   -608.83661      19757.6    40211.377    53815.817   -34754.394      15.2149      13.1765      28.7324    5760.2466 
  205000      204.987    297.74207    12.431037   -621.25095   -608.81991    19205.529    39330.534    53987.465   -35701.412      15.2149      13.1765      28.7324    5760.2466 
  205500      205.487    296.32311    12.371794   -621.17411   -608.80231    21068.458    39774.294    52885.963   -29454.885      15.2149      13.1765      28.7324    5760.2466 
  206000      205.987    291.44553     12.16815   -620.95241   -608.78426    18107.921    38229.572    52782.108   -36687.915      15.2149      13.1765      28.7324    5760.2466 
  206500      206.487     287.7373    12.013328   -620.78034   -608.76702    19614.407    40732.421    52323.494   -34212.694      15.2149      13.1765      28.7324    5760.2466 
  207000      206.987    293.59263    12.257794    -621.0061   -608.74831    20585.802    41692.281    52788.586   -32723.461      15.2149      13.1765      28.7324    5760.2466 
  207500      207.487     299.6151    12.509238   -621.23987   -608.73063    19748.006    38392.387    51524.341   -30672.709      15.2149      13.1765      28.7324    5760.2466 
  208000      207.987    279.14076    11.654413   -620.36547   -608.71106    20172.991    37281.781    51418.824    -28181.63      15.2149      13.1765      28.7324    5760.2466 
  208500      208.487    290.84836    12.143217   -620.83734   -608.69412    20283.591    37242.301    53621.917   -30013.444      15.2149      13.1765      28.7324    5760.2466 
  209000      208.987    284.69951    11.886497   -620.56379    -608.6773    17456.159    39095.664    47803.776   -34530.963      15.2149      13.1765      28.7324    5760.2466 
  209500      209.487    294.36573    12.290071   -620.94927   -608.65919    19933.304    39101.069    51906.299   -31207.456      15.2149      13.1765      28.7324    5760.2466 
  210000      209.987    293.59755    12.257999   -620.90056   -608.64256    19506.035    38481.654    49894.551   -29858.099      15.2149      13.1765      28.7324    5760.2466 
  210500      210.487    279.72785    11.678925   -620.30249   -608.62356    19180.461    38855.244    57198.675   -38512.536      15.2149      13.1765      28.7324    5760.2466 
  211000      210.987      272.652    11.383501   -619.99019   -608.60669    18976.509    38602.167    55066.534   -36739.175      15.2149      13.1765      28.7324    5760.2466 
  211500      211.487     304.0706     12.69526   -621.28412   -608.58886    18473.402    40206.195     52833.61     -37619.6      15.2149      13.1765      28.7324    5760.2466 
  212000      211.987    297.68729     12.42875   -620.99994   -608.57119    20082.065    36913.086    55348.211   -32015.102      15.2149      13.1765      28.7324    5760.2466 
[...]
  948500      948.487    370.18874     15.45576   -617.13522   -601.67946    18825.375     40311.86    51981.375   -35817.109      15.2149      13.1765      28.7324    5760.2466 
  949000      948.987    370.04444    15.449735   -617.12966   -601.67992    21529.481    43915.789    51547.351   -30874.696      15.2149      13.1765      28.7324    5760.2466 
  949500      949.487    384.59682    16.057312   -617.73561    -601.6783     20695.08    46074.324     50415.59   -34404.674      15.2149      13.1765      28.7324    5760.2466 
  950000      949.987     384.0924    16.036252   -617.71307   -601.67681    19837.604    39392.695    50556.568    -30436.45      15.2149      13.1765      28.7324    5760.2466 
  950500      950.487    386.06514    16.118616   -617.79414   -601.67552    19390.639    41074.506    55401.402    -38303.99      15.2149      13.1765      28.7324    5760.2466 
  951000      950.987    380.75001    15.896704   -617.57004   -601.67334    21041.145     43306.49    52225.897   -32408.951      15.2149      13.1765      28.7324    5760.2466 
  951500      951.487    374.20956    15.623633   -617.29567   -601.67203    20516.221    40618.293    55399.796   -34469.426      15.2149      13.1765      28.7324    5760.2466 
  952000      951.987    354.88193    14.816685   -616.48771   -601.67102    20884.534    39105.681    56958.305   -33410.383      15.2149      13.1765      28.7324    5760.2466 
  952500      952.487    374.05887    15.617342   -617.28565   -601.66831    20543.243    40372.215      55594.9   -34337.387      15.2149      13.1765      28.7324    5760.2466 
  953000      952.987    374.29425    15.627169   -617.29574   -601.66857    21272.952    43870.164    56057.138   -36108.447      15.2149      13.1765      28.7324    5760.2466 
  953500      953.487    385.63711    16.100746   -617.76742   -601.66668    21107.983    42966.686    56144.521   -35787.259      15.2149      13.1765      28.7324    5760.2466 
  954000      953.987    371.49129    15.510143   -617.17458   -601.66444    18046.153    44288.286    48503.035   -38652.861      15.2149      13.1765      28.7324    5760.2466 
  954500      954.487    380.14245    15.871338   -617.53443   -601.66309    21267.943    44505.393    53648.329   -34349.892      15.2149      13.1765      28.7324    5760.2466 
  955000      954.987    400.71517     16.73027   -618.39328   -601.66301    21057.982    42403.893     58254.05   -37483.997      15.2149      13.1765      28.7324    5760.2466 
  955500      955.487    376.23844    15.708341   -617.36885   -601.66051    21747.342    40406.787    51428.721   -26593.481      15.2149      13.1765      28.7324    5760.2466 
  956000      955.987    372.54486    15.554131   -617.21289   -601.65876    20272.142    40924.229    53075.416   -33183.221      15.2149      13.1765      28.7324    5760.2466 
  956500      956.487    399.50191    16.679615   -618.33622   -601.65661    20421.563    41622.779    54411.169   -34769.257      15.2149      13.1765      28.7324    5760.2466 
  957000      956.987    362.69769    15.143001   -616.79619   -601.65319    19766.773    41689.565    49699.374   -32088.619      15.2149      13.1765      28.7324    5760.2466 
  957500      957.487    366.15218    15.287229   -616.93989   -601.65266    19949.779    42388.268    52429.102   -34968.033      15.2149      13.1765      28.7324    5760.2466 
  958000      957.987    338.40248    14.128651   -615.77765     -601.649    19770.969    40204.438    55711.551   -36603.082      15.2149      13.1765      28.7324    5760.2466 
  958500      958.487     387.1701    16.164749   -617.81402   -601.64927    19455.692    40154.532      53110.2   -34897.656      15.2149      13.1765      28.7324    5760.2466 
  959000      958.987    352.46978    14.715975   -616.36063   -601.64465    18503.428    39077.042    52851.133   -36417.891      15.2149      13.1765      28.7324    5760.2466 
  959500      959.487    361.11294    15.076836   -616.72064    -601.6438    20595.803    39633.058    55879.913   -33725.562      15.2149      13.1765      28.7324    5760.2466 
  960000      959.987    401.41058    16.759304   -618.40276   -601.64345    20503.673    44368.292    55322.535   -38179.808      15.2149      13.1765      28.7324    5760.2466 
  960500      960.487    376.93822    15.737558   -617.37875   -601.64119    20061.859    46166.341    58282.171   -44262.935      15.2149      13.1765      28.7324    5760.2466 
  961000      960.987    371.07266    15.492665   -617.13116    -601.6385    20656.627    39681.562    57069.873   -34781.554      15.2149      13.1765      28.7324    5760.2466 
  961500      961.487    376.28981    15.710486   -617.34684   -601.63636    20693.277    41988.193     55153.05    -35061.41      15.2149      13.1765      28.7324    5760.2466 
  962000      961.987    382.18025    15.956418   -617.59117   -601.63475    20636.204    43327.894    53032.349   -34451.631      15.2149      13.1765      28.7324    5760.2466 
  962500      962.487    377.30454    15.752852   -617.38569   -601.63283    20043.994    40220.946    52073.921   -32162.885      15.2149      13.1765      28.7324    5760.2466 
  963000      962.987    376.70488    15.727816   -617.35776   -601.62994    20776.937    42993.852    55670.297   -36333.339      15.2149      13.1765      28.7324    5760.2466 
  963500      963.487    359.03904    14.990249   -616.61771   -601.62746    19278.076    37467.267    55653.167   -35286.207      15.2149      13.1765      28.7324    5760.2466 
  964000      963.987    386.38269    16.131874   -617.75631   -601.62444    22266.976    44830.465    52395.586   -30425.123      15.2149      13.1765      28.7324    5760.2466 
  964500      964.487    371.55721    15.512895   -617.13487   -601.62198    18816.395    43553.868    52202.045   -39306.727      15.2149      13.1765      28.7324    5760.2466 
  965000      964.987    372.60674    15.556714   -617.17778   -601.62106    22758.961     46198.08    58144.722   -36065.918      15.2149      13.1765      28.7324    5760.2466 
  965500      965.487    362.22505    15.123268   -616.73911   -601.61584    21141.404    40609.462    49480.192   -26665.442      15.2149      13.1765      28.7324    5760.2466 
  966000      965.987    396.91225    16.571494   -618.18628   -601.61478    19908.466    40635.491    53921.413   -34831.504      15.2149      13.1765      28.7324    5760.2466 
  966500      966.487    366.43646    15.299098   -616.90881   -601.60971    21728.052    44983.732    55972.754    -35772.33      15.2149      13.1765      28.7324    5760.2466 
  967000      966.987    385.26205    16.085086   -617.69279   -601.60771    20258.777    44451.218    53239.955   -36914.842      15.2149      13.1765      28.7324    5760.2466 
  967500      967.487    375.09469    15.660589   -617.26679    -601.6062    19300.139    39307.275     52575.61   -33982.467      15.2149      13.1765      28.7324    5760.2466 
  968000      967.987    401.43077    16.760147     -618.363   -601.60285    20555.221    41122.865    54737.305   -34194.509      15.2149      13.1765      28.7324    5760.2466 
  968500      968.487    384.22641    16.041847   -617.64121   -601.59936    20349.421     42435.76    53391.448   -34778.946      15.2149      13.1765      28.7324    5760.2466 
  969000      968.987    390.21247    16.291771   -617.88901   -601.59724    19157.135    42073.838    51547.818   -36150.251      15.2149      13.1765      28.7324    5760.2466 
  969500      969.487    372.88123    15.568174   -617.16156   -601.59338    19315.992    41682.764    47562.032    -31296.82      15.2149      13.1765      28.7324    5760.2466 
  970000      969.987    380.45865    15.884539   -617.47662   -601.59208    20166.392    40077.744    50111.052    -29689.62      15.2149      13.1765      28.7324    5760.2466 
  970500      970.487     372.3281     15.54508   -617.13305   -601.58797    20202.074     34832.36    50933.619   -25159.759      15.2149      13.1765      28.7324    5760.2466 
  971000      970.987    368.64079    15.391132   -616.97695   -601.58581    22219.404     44690.86    52299.546   -30332.193      15.2149      13.1765      28.7324    5760.2466 
  971500      971.487    373.56595    15.596762   -617.17856    -601.5818    19652.349    38926.759    52105.682   -32075.393      15.2149      13.1765      28.7324    5760.2466 
  972000      971.987    363.17499    15.162929   -616.73871   -601.57578    19959.968    36683.178    51237.128   -28040.402      15.2149      13.1765      28.7324    5760.2466 
  972500      972.487    374.33072    15.628692   -617.20511   -601.57641    20590.442    45918.136    52230.363   -36377.173      15.2149      13.1765      28.7324    5760.2466 
  973000      972.987    382.83778     15.98387   -617.55654   -601.57267    22217.801    44915.078     54640.43   -32902.103      15.2149      13.1765      28.7324    5760.2466 
  973500      973.487    370.40084    15.464615   -617.03229   -601.56768    19130.427    39685.803    53357.979     -35652.5      15.2149      13.1765      28.7324    5760.2466 
  974000      973.987    382.93561    15.987955   -617.55366    -601.5657    19769.091    41755.089    53129.241   -35577.056      15.2149      13.1765      28.7324    5760.2466 
  974500      974.487    370.22183    15.457142   -617.01938   -601.56224    20000.512    41357.529    56755.371   -38111.363      15.2149      13.1765      28.7324    5760.2466 
  975000      974.987    352.85372    14.732005   -616.29179   -601.55979    19276.929    43046.117    53365.664   -38580.993      15.2149      13.1765      28.7324    5760.2466 
  975500      975.487    381.00298    15.907266   -617.46358   -601.55631    22060.016    44266.676    50688.843   -28775.473      15.2149      13.1765      28.7324    5760.2466 
  976000      975.987    357.48234    14.925255   -616.47722   -601.55196    20403.791    43088.511    52387.062   -34264.199      15.2149      13.1765      28.7324    5760.2466 
  976500      976.487    366.36669    15.296186   -616.84521   -601.54903    18899.478     44345.81    52929.734   -40577.111      15.2149      13.1765      28.7324    5760.2466 
  977000      976.987    357.29998    14.917641   -616.46343   -601.54579    19321.154    39841.795    50374.997   -32253.332      15.2149      13.1765      28.7324    5760.2466 
  977500      977.487    361.70239    15.101446   -616.64483   -601.54339    19014.726    44585.739    48713.498    -36255.06      15.2149      13.1765      28.7324    5760.2466 
  978000      977.987    386.86513    16.152016   -617.69202   -601.54001     19977.97    36843.632    54631.167    -31540.89      15.2149      13.1765      28.7324    5760.2466 
  978500      978.487    375.89443    15.693979   -617.22928   -601.53531    20264.681     40358.96    53039.153    -32604.07      15.2149      13.1765      28.7324    5760.2466 
  979000      978.987    363.65236     15.18286   -616.71446    -601.5316    19206.318     44772.64    50207.981   -37361.667      15.2149      13.1765      28.7324    5760.2466 
  979500      979.487    383.40698    16.007635   -617.53529   -601.52766    20172.586    43453.442    54034.437   -36970.121      15.2149      13.1765      28.7324    5760.2466 
  980000      979.987    380.09765    15.869467    -617.3941   -601.52464    19576.746    45137.239    53567.418   -39974.418      15.2149      13.1765      28.7324    5760.2466 
  980500      980.487    378.25482    15.792527   -617.31272   -601.52019    20173.744    43268.233    50035.875   -32782.876      15.2149      13.1765      28.7324    5760.2466 
  981000      980.987    392.20941    16.375145   -617.89182   -601.51668    20983.856    41941.872    56537.769   -35528.073      15.2149      13.1765      28.7324    5760.2466 
  981500      981.487    386.20134    16.124303   -617.63653   -601.51222    20131.964    42058.711     50077.28   -31740.099      15.2149      13.1765      28.7324    5760.2466 
  982000      981.987    393.64807    16.435211   -617.94356   -601.50835    21143.489     40800.29    53961.064   -31330.886      15.2149      13.1765      28.7324    5760.2466 
  982500      982.487    390.55259    16.305972   -617.80981   -601.50384    20907.444    42881.979    55515.767   -35675.414      15.2149      13.1765      28.7324    5760.2466 
  983000      982.987    364.32744    15.211045   -616.70892   -601.49788     19951.64    44237.464    55807.778   -40190.321      15.2149      13.1765      28.7324    5760.2466 
  983500      983.487    368.10729    15.368857   -616.86434   -601.49548     20062.23    43733.956    51839.809   -35387.074      15.2149      13.1765      28.7324    5760.2466 
  984000      983.987    377.91369    15.778285   -617.26915   -601.49087    21276.863    40604.694    51808.711   -28582.817      15.2149      13.1765      28.7324    5760.2466 
  984500      984.487    383.98719    16.031859   -617.51915   -601.48729    21103.417    40056.785    50177.152   -26923.686      15.2149      13.1765      28.7324    5760.2466 
  985000      984.987    379.65429    15.850956   -617.33445   -601.48349    19959.226    36885.353    55514.443   -32522.118      15.2149      13.1765      28.7324    5760.2466 
  985500      985.487    376.32496    15.711953   -617.19071   -601.47876    20124.535    42644.614    49063.697   -31334.705      15.2149      13.1765      28.7324    5760.2466 
  986000      985.987    375.82429     15.69105    -617.1656   -601.47455    20204.637    36727.479    53034.702   -29148.269      15.2149      13.1765      28.7324    5760.2466 
  986500      986.487    380.88753    15.902445   -617.37233   -601.46989    21421.309    42674.892    54246.726   -32657.689      15.2149      13.1765      28.7324    5760.2466 
  987000      986.987    375.39965    15.673321   -617.13862    -601.4653    20630.609     41927.96    56532.068   -36568.202      15.2149      13.1765      28.7324    5760.2466 
  987500      987.487    382.83152    15.983609   -617.44392   -601.46031    20005.054    41397.064     54739.32   -36121.221      15.2149      13.1765      28.7324    5760.2466 
  988000      987.987    391.24725    16.334975   -617.79145   -601.45648    20642.708    41328.532    55360.866   -34761.276      15.2149      13.1765      28.7324    5760.2466 
  988500      988.487    370.30798    15.460738   -616.91188   -601.45114      20182.3    40183.553    50655.049   -30291.702      15.2149      13.1765      28.7324    5760.2466 
  989000      988.987    381.34946    15.921732   -617.36873     -601.447    21856.684     45008.45      57127.1   -36565.499      15.2149      13.1765      28.7324    5760.2466 
  989500      989.487    386.74138     16.14685   -617.58821   -601.44136    17793.773    42016.905    48285.741   -36921.327      15.2149      13.1765      28.7324    5760.2466 
  990000      989.987    403.96449    16.865932   -618.30301   -601.43708    20131.356    40625.974     53782.42   -34014.325      15.2149      13.1765      28.7324    5760.2466 
  990500      990.487     382.8808    15.985667   -617.41789   -601.43222    19421.876    40381.889    51560.086   -33676.347      15.2149      13.1765      28.7324    5760.2466 
  991000      990.987    360.24961    15.040791   -616.46785   -601.42706    22963.632    49464.254    52490.713   -33064.071      15.2149      13.1765      28.7324    5760.2466 
  991500      991.487    365.22386    15.248471    -616.6697   -601.42122    20073.608    43494.225    53515.285   -36788.686      15.2149      13.1765      28.7324    5760.2466 
  992000      991.987    365.20261    15.247584   -616.66469    -601.4171    17767.067    37912.917    49781.576   -34393.293      15.2149      13.1765      28.7324    5760.2466 
  992500      992.487    384.36118    16.047474   -617.46002   -601.41254     19832.27    41593.326    51052.024    -33148.54      15.2149      13.1765      28.7324    5760.2466 
  993000      992.987    365.06679    15.241914   -616.64928   -601.40737    20622.149    43143.647    54589.946   -35867.148      15.2149      13.1765      28.7324    5760.2466 
  993500      993.487    364.19527    15.205527   -616.60881   -601.40328    19375.564    41409.909    51506.233   -34789.448      15.2149      13.1765      28.7324    5760.2466 
  994000      993.987     377.4542      15.7591   -617.15804   -601.39894    20144.496    42702.746    53659.166   -35928.424      15.2149      13.1765      28.7324    5760.2466 
  994500      994.487    393.33055    16.421954   -617.81511   -601.39316    19648.761    43366.966    51849.912   -36270.594      15.2149      13.1765      28.7324    5760.2466 
  995000      994.987     370.3664    15.463177    -616.8524   -601.38922    20081.136    43124.441    55340.343   -38221.374      15.2149      13.1765      28.7324    5760.2466 
  995500      995.487    364.22151    15.206622    -616.5895   -601.38288    18240.743    44787.445    52772.984   -42838.199      15.2149      13.1765      28.7324    5760.2466 
  996000      995.987    372.48086    15.551458   -616.93161   -601.38015    20682.197    39870.601    51488.836   -29312.845      15.2149      13.1765      28.7324    5760.2466 
  996500      996.487    372.34538    15.545802   -616.92016   -601.37435    17842.848    40704.636    52645.377   -39821.469      15.2149      13.1765      28.7324    5760.2466 
  997000      996.987    370.19926    15.456199   -616.82427   -601.36807    20589.983    38495.965    59192.345   -35918.361      15.2149      13.1765      28.7324    5760.2466 
  997500      997.487    375.85791    15.692454   -617.05718   -601.36473    20141.194    43643.918    54911.631   -38131.967      15.2149      13.1765      28.7324    5760.2466 
  998000      997.987    344.28899    14.374419    -615.7318   -601.35738    20667.142    44786.894    52559.441   -35344.909      15.2149      13.1765      28.7324    5760.2466 
  998500      998.487    376.93812    15.737553   -617.09202   -601.35447     18766.87    36103.167     54321.12   -34123.677      15.2149      13.1765      28.7324    5760.2466 
  999000      998.987    369.31466    15.419266   -616.76834   -601.34907    22512.401    44818.175    56553.649   -33834.621      15.2149      13.1765      28.7324    5760.2466 
  999500      999.487    380.86613    15.901552   -617.24505    -601.3435    19669.948    39545.994    53463.826   -33999.977      15.2149      13.1765      28.7324    5760.2466 
 1000000      999.987    376.24486    15.708609   -617.04547   -601.33687    20299.973    41717.938    51524.314   -32342.332      15.2149      13.1765      28.7324    5760.2466 
 1000013         1000    394.07577    16.453068   -617.79275   -601.33968    20801.594    39831.445    49690.204   -27116.868      15.2149      13.1765      28.7324    5760.2466 
Loop time of 909.435 on 28 procs for 1000000 steps with 324 atoms

Performance: 95.004 ns/day, 0.253 hours/ns, 1099.583 timesteps/s
87.8% CPU use with 28 MPI tasks x no OpenMP threads

MPI task timing breakdown:
Section |  min time  |  avg time  |  max time  |%varavg| %total
---------------------------------------------------------------
Pair    | 745.01     | 790.26     | 829.31     |  85.6 | 86.90
Neigh   | 0          | 0          | 0          |   0.0 |  0.00
Comm    | 68.937     | 106.01     | 150.82     | 238.0 | 11.66
Output  | 0.099799   | 0.1025     | 0.12349    |   1.3 |  0.01
Modify  | 5.1495     | 7.919      | 12.383     |  72.7 |  0.87
Other   |            | 5.15       |            |       |  0.57

Nlocal:    11.5714 ave 15 max 7 min
Histogram: 1 2 3 5 0 1 6 3 3 4
Nghost:    657.893 ave 711 max 619 min
Histogram: 8 4 0 4 1 2 1 1 4 3
Neighs:    725.857 ave 964 max 419 min
Histogram: 1 2 3 4 1 3 3 4 4 3
FullNghs:  1451.71 ave 1875 max 886 min
Histogram: 1 2 3 5 1 0 6 3 1 6

Total # of neighbors = 40648
Ave neighs/atom = 125.457
Neighbor list builds = 0
Dangerous builds = 0

write_restart   POSCAR_1x1x1.rest

#unfix    1
#undump   1
Total wall time: 0:15:09
