LAMMPS (7 Dec 2015)
#----------- Initialize Simulation ------------ restart01
#processors	2 2 2
units		metal
boundary	p p p     ## periodic boundary condition  on x y z axis ##
atom_style atomic
#atom_modify map array sort 0 0.0

read_data	POSCAR_1x1x1.lammps
  triclinic box = (0 0 0) to (15.2149 13.1765 28.7324) with tilt (-7.60743 0 0)
  2 by 2 by 7 MPI processor grid
  reading atoms ...
  324 atoms

#----------- Define Potential -----------------
pair_style meam
pair_coeff * * MgAlZn.library.meam Mg Al Zn MgAlZn.parameter.meam Mg Al Zn 	#1=Mg 2=Al 3=Zn	#atoms/mass

#----------- Neighbor List --------------------
neighbor 2.0 bin
neigh_modify delay 10 check yes

#--------------  Run a simulation (minimization) ---------------------------------------
minimize       1.0e-4   1.0e-6   100   1000          #結構優化的條件
WARNING: Resetting reneighboring criteria during minimization (../min.cpp:168)
Neighbor list info ...
  2 neighbor list requests
  update every 1 steps, delay 0 steps, check yes
  max neighbors/atom: 2000, page size: 100000
  master list distance cutoff = 8
  ghost atom cutoff = 8
  binsize = 4 -> bins = 6 4 8
Memory usage per processor = 8.65066 Mbytes
Step Temp E_pair E_mol TotEng Press 
       0            0   -705.41117            0   -705.41117    17721.515 
      12            0   -720.25182            0   -720.25182    15914.573 
Loop time of 0.0230414 on 28 procs for 12 steps with 324 atoms

99.5% CPU use with 28 MPI tasks x no OpenMP threads

Minimization stats:
  Stopping criterion = energy tolerance
  Energy initial, next-to-last, final = 
        -705.411172293     -720.189583109     -720.251823119
  Force two-norm initial, final = 22.2082 1.06603
  Force max component initial, final = 4.04126 0.200646
  Final line search alpha, max atom move = 0.249726 0.0501064
  Iterations, force evaluations = 12 22

MPI task timing breakdown:
Section |  min time  |  avg time  |  max time  |%varavg| %total
---------------------------------------------------------------
Pair    | 0.017367   | 0.018931   | 0.020924   |   0.6 | 82.16
Neigh   | 0          | 0          | 0          |   0.0 |  0.00
Comm    | 0.001169   | 0.0030811  | 0.0046596  |   1.6 | 13.37
Output  | 0          | 0          | 0          |   0.0 |  0.00
Modify  | 0          | 0          | 0          |   0.0 |  0.00
Other   |            | 0.00103    |            |       |  4.47

Nlocal:    11.5714 ave 16 max 5 min
Histogram: 1 4 1 1 0 4 3 6 5 3
Nghost:    651.143 ave 712 max 602 min
Histogram: 5 1 5 3 2 4 1 3 1 3
Neighs:    723.857 ave 1004 max 324 min
Histogram: 1 4 1 1 0 3 5 8 3 2
FullNghs:  1447.71 ave 2050 max 635 min
Histogram: 1 4 1 1 0 5 6 6 3 1

Total # of neighbors = 40536
Ave neighs/atom = 125.111
Neighbor list builds = 0
Dangerous builds = 0
velocity all  create 393.0 4928459 #rot yes dist gaussian

#--------------  Run a simulation (Relaxation)  ----------------------------------------
fix  1  all  nvt   temp  393.0  393.0  100				#damping constant
#fix  2  all  npt   temp  393.0  393.0  50 iso 0.0 0.0 1000.0
#fix  2  all deform 1 x final 0 15.6906 y final 0 13.5884 z final 0 25.2339 xy final -7.8452 units lattice
#fix  3  all  npt   temp  393.0  393.0  50 z 0.0 0.0 1000.0

#variable b equal 1
#fix 2 all efield  0.0  0.0  v_b
#compute pot all pe/atom


#----------- Output --------------------------
thermo	 500
timestep  0.001		#1.0 fs
thermo_style	custom step time temp ke pe etotal press pxx pyy pzz lx ly lz vol

dump 1 all custom 10000 dump.eq id type x y z
dump_modify 1 sort  id

run        1000000	#10000	 ps
Neighbor list info ...
  2 neighbor list requests
  update every 1 steps, delay 10 steps, check yes
  max neighbors/atom: 2000, page size: 100000
  master list distance cutoff = 8
  ghost atom cutoff = 8
  binsize = 4 -> bins = 6 4 8
Memory usage per processor = 7.54152 Mbytes
Step Time Temp KinEng PotEng TotEng Press Pxx Pyy Pzz Lx Ly Lz Volume 
      12            0          393    16.408154   -720.25182   -703.84367    18957.123    38390.067    38016.957   -19535.655      15.2149      13.1765      28.7324    5760.2466 
     500        0.488    225.32629     9.407604    -713.2471    -703.8395    19752.993     40443.63    42145.108   -23329.758      15.2149      13.1765      28.7324    5760.2466 
    1000        0.988    225.12099    9.3990326   -713.23775   -703.83872    21489.463    44939.361    40296.841   -20767.813      15.2149      13.1765      28.7324    5760.2466 
    1500        1.488    265.69417    11.093004   -714.93276   -703.83975    33204.535    50896.787    50742.081   -2025.2634      15.2149      13.1765      28.7324    5760.2466 
    2000        1.988    259.06305    10.816149   -714.65486   -703.83871      33109.5    49404.598    49621.111    302.78899      15.2149      13.1765      28.7324    5760.2466 
    2500        2.488    247.05961    10.314992   -714.15215   -703.83716    33059.897    49840.967    50009.412   -670.68722      15.2149      13.1765      28.7324    5760.2466 
    3000        2.988    268.14811    11.195459   -715.03266    -703.8372    30523.653    51156.207    47666.724   -7251.9729      15.2149      13.1765      28.7324    5760.2466 
    3500        3.488    240.83617    10.055157   -713.88923   -703.83407    34233.465    51520.132    53004.192   -1823.9287      15.2149      13.1765      28.7324    5760.2466 
    4000        3.988    267.77178    11.179747   -715.01517   -703.83543    34527.514    49369.965    47427.313     6785.263      15.2149      13.1765      28.7324    5760.2466 
    4500        4.488    285.60836    11.924442   -715.75772   -703.83328    33357.117    50680.747    49171.172    219.43314      15.2149      13.1765      28.7324    5760.2466 
    5000        4.988    261.15613    10.903537   -714.73376   -703.83022    31456.201    49803.693    47509.935    -2945.025      15.2149      13.1765      28.7324    5760.2466 
    5500        5.488    271.67673    11.342782   -715.17065   -703.82786    31152.506    47636.582    46961.433   -1140.4975      15.2149      13.1765      28.7324    5760.2466 
    6000        5.988    260.46204    10.874558    -714.7003   -703.82575    34048.213    47352.918    49324.544     5467.177      15.2149      13.1765      28.7324    5760.2466 
    6500        6.488    277.68319    11.593558   -715.41779   -703.82423    34348.222    51659.089    47448.701    3936.8757      15.2149      13.1765      28.7324    5760.2466 
    7000        6.988     274.2727    11.451167   -715.27305   -703.82189    31440.047    47064.261    45893.612    1362.2689      15.2149      13.1765      28.7324    5760.2466 
    7500        7.488    262.48903    10.959187   -714.77767   -703.81848     29515.63    46997.112    45288.885   -3739.1087      15.2149      13.1765      28.7324    5760.2466 
    8000        7.988    269.21573    11.240033   -715.05623   -703.81619    32642.676    47822.452    50303.161   -197.58554      15.2149      13.1765      28.7324    5760.2466 
    8500        8.488    270.85429    11.308445   -715.12185    -703.8134    33353.309    51332.538    50405.168   -1677.7785      15.2149      13.1765      28.7324    5760.2466 
    9000        8.988    264.23947    11.032269   -714.84161   -703.80934    34992.477      52426.7    52265.598    285.13286      15.2149      13.1765      28.7324    5760.2466 
    9500        9.488    258.54256    10.794417   -714.60006   -703.80564    32369.793    48960.541    46867.626    1281.2118      15.2149      13.1765      28.7324    5760.2466 
   10000        9.988    261.83323    10.931806   -714.73394   -703.80213    32432.288    51099.992    49176.972   -2980.0998      15.2149      13.1765      28.7324    5760.2466 
   10500       10.488    266.41188    11.122969   -714.92176   -703.79879    34521.392    51982.375    47303.484     4278.318      15.2149      13.1765      28.7324    5760.2466 
   11000       10.988    272.11768    11.361193   -715.15551   -703.79432    34468.928    52074.887    49842.745    1489.1519      15.2149      13.1765      28.7324    5760.2466 
   11500       11.488    263.96918    11.020985   -714.81107   -703.79009    32737.945    45153.607    47792.925    5267.3027      15.2149      13.1765      28.7324    5760.2466 
   12000       11.988    266.23708    11.115671   -714.90177    -703.7861     32533.67    51034.726    48330.675   -1764.3922      15.2149      13.1765      28.7324    5760.2466 
   12500       12.488    275.22749     11.49103   -715.27293    -703.7819    34224.611     49174.69    54034.798   -535.65526      15.2149      13.1765      28.7324    5760.2466 
   13000       12.988    273.70547    11.427485   -715.20434   -703.77686      32831.8    49117.058    47983.392    1394.9507      15.2149      13.1765      28.7324    5760.2466 
   13500       13.488    272.88457    11.393211   -715.16567   -703.77246    33758.671    50049.899     49353.24     1872.875      15.2149      13.1765      28.7324    5760.2466 
   14000       13.988    256.57403    10.712229   -714.47863    -703.7664    31611.363    50667.183    46814.476   -2647.5705      15.2149      13.1765      28.7324    5760.2466 
   14500       14.488    273.10661    11.402481   -715.16559   -703.76311    34578.528     49623.68    50607.909    3503.9959      15.2149      13.1765      28.7324    5760.2466 
   15000       14.988    271.31137    11.327528   -715.08356   -703.75603    33639.942    49539.119    51211.505    169.20396      15.2149      13.1765      28.7324    5760.2466 
   15500       15.488     271.7776    11.346994    -715.0978    -703.7508    32725.098    50997.778    47527.319    -349.8026      15.2149      13.1765      28.7324    5760.2466 
   16000       15.988    267.69083    11.176367   -714.92104   -703.74468    32075.269    50092.614    49340.698    -3207.504      15.2149      13.1765      28.7324    5760.2466 
   16500       16.488    270.45806    11.291902   -715.03192   -703.74002    33555.152    49973.365    47882.913    2809.1777      15.2149      13.1765      28.7324    5760.2466 
   17000       16.988    272.14514    11.362339   -715.09575   -703.73341    33470.978    49102.837    49915.394    1394.7034      15.2149      13.1765      28.7324    5760.2466 
   17500       17.488    264.86623    11.058437   -714.78462   -703.72618    33206.493    50358.202    49516.814   -255.53537      15.2149      13.1765      28.7324    5760.2466 
   18000       17.988    267.49234     11.16808   -714.88819   -703.72011    33215.156     50710.27    50132.621   -1197.4242      15.2149      13.1765      28.7324    5760.2466 
   18500       18.488    276.63799     11.54992   -715.26343   -703.71351     32970.71    49271.377    46311.293    3329.4587      15.2149      13.1765      28.7324    5760.2466 
   19000       18.988    269.35411    11.245811   -714.95204   -703.70623    32073.373    51186.706    46269.221   -1235.8076      15.2149      13.1765      28.7324    5760.2466 
   19500       19.488    268.56517    11.212872   -714.91206   -703.69919    34902.812    50122.631    53415.543    1170.2611      15.2149      13.1765      28.7324    5760.2466 
   20000       19.988    269.33924     11.24519   -714.93727   -703.69208    34620.531    52031.076    50405.153    1425.3638      15.2149      13.1765      28.7324    5760.2466 
   20500       20.488    272.67167    11.384322   -715.06886   -703.68453    31764.887    48926.953    48748.027    -2380.319      15.2149      13.1765      28.7324    5760.2466 
   21000       20.988    275.61671    11.507281   -715.18391   -703.67663     34045.56    52565.656    51346.545   -1775.5221      15.2149      13.1765      28.7324    5760.2466 
   21500       21.488    270.06722    11.275584   -714.94453   -703.66895    32712.956    49872.732    46237.347    2028.7877      15.2149      13.1765      28.7324    5760.2466 
   22000       21.988    276.14976    11.529536   -715.19066   -703.66113    34075.233    50948.958    48123.202    3153.5394      15.2149      13.1765      28.7324    5760.2466 
   22500       22.488    275.91266    11.519637   -715.17292   -703.65329    33912.263    50807.271    52887.466   -1957.9479      15.2149      13.1765      28.7324    5760.2466 
   23000       22.988    255.58727    10.671031    -714.3158   -703.64477    34275.431    49660.173    48943.618    4222.5025      15.2149      13.1765      28.7324    5760.2466 
   23500       23.488     279.2086    11.657246   -715.29426   -703.63701    34915.355    52039.041    50345.035    2361.9902      15.2149      13.1765      28.7324    5760.2466 
   24000       23.988    269.28401    11.242884    -714.8697   -703.62681    33247.183    52051.862    50996.717   -3307.0297      15.2149      13.1765      28.7324    5760.2466 
   24500       24.488    263.22337    10.989846   -714.60797   -703.61813    32340.446    49132.609    48733.451   -844.72286      15.2149      13.1765      28.7324    5760.2466 
   25000       24.988      256.191    10.696237   -714.30531   -703.60908    32768.815    48706.072    51420.006   -1819.6332      15.2149      13.1765      28.7324    5760.2466 
   25500       25.488    263.30154     10.99311     -714.594   -703.60089    34165.605    55155.246    51560.081   -4218.5114      15.2149      13.1765      28.7324    5760.2466 
   26000       25.988    261.96132    10.937154   -714.52845    -703.5913    32271.447    51262.672    48495.984   -2944.3153      15.2149      13.1765      28.7324    5760.2466 
   26500       26.488    279.10601    11.652962   -715.23568   -703.58272    33759.481    52863.342      48331.7    83.401121      15.2149      13.1765      28.7324    5760.2466 
   27000       26.988    274.00214    11.439871   -715.01346   -703.57359    32566.938    50883.274    46230.133    587.40812      15.2149      13.1765      28.7324    5760.2466 
   27500       27.488    278.32386    11.620307   -715.18393   -703.56362    34365.987    52096.416    51731.761   -730.21617      15.2149      13.1765      28.7324    5760.2466 
   28000       27.988    275.86083    11.517473   -715.07085   -703.55338    33598.448    49533.734    53627.465   -2365.8534      15.2149      13.1765      28.7324    5760.2466 
   28500       28.488    264.70005    11.051499   -714.59521   -703.54372    32085.516    49454.984    48275.734   -1474.1702      15.2149      13.1765      28.7324    5760.2466 
   29000       28.988    251.86812    10.515753   -714.04815    -703.5324    34717.787    52691.682    50973.385     488.2938      15.2149      13.1765      28.7324    5760.2466 
   29500       29.488    262.29059    10.950901   -714.47289   -703.52198    33086.701    50263.605     50847.27   -1850.7722      15.2149      13.1765      28.7324    5760.2466 
   30000       29.988    281.59631    11.756935   -715.26992   -703.51298    33062.809    49514.083    52124.509   -2450.1649      15.2149      13.1765      28.7324    5760.2466 
   30500       30.488    290.73576    12.138517   -715.64069   -703.50218     33239.83    51788.031    49969.397   -2037.9387      15.2149      13.1765      28.7324    5760.2466 
   31000       30.988    266.17291    11.112992   -714.60325   -703.49026    34153.173    51136.108    50600.655    722.75627      15.2149      13.1765      28.7324    5760.2466 
   31500       31.488    272.26502    11.367344   -714.84694   -703.47959    34842.092    51179.853    52270.843    1075.5804      15.2149      13.1765      28.7324    5760.2466 
   32000       31.988    288.53813    12.046763   -715.51573   -703.46897    33444.978    48914.103    48081.103    3339.7265      15.2149      13.1765      28.7324    5760.2466 
   32500       32.488    269.44661    11.249673   -714.70683   -703.45715    32579.847    47994.676    49327.351    417.51457      15.2149      13.1765      28.7324    5760.2466 
   33000       32.988    280.28942    11.702371   -715.14887    -703.4465    33788.843    50839.443    50218.242    308.84584      15.2149      13.1765      28.7324    5760.2466 
   33500       33.488    271.64423    11.341426   -714.77618   -703.43476    33914.263    50396.432    50290.189    1056.1688      15.2149      13.1765      28.7324    5760.2466 
   34000       33.988    288.46152    12.043565   -715.46736    -703.4238     32289.16    48301.454    48550.909    15.115902      15.2149      13.1765      28.7324    5760.2466 
   34500       34.488    274.07763    11.443022   -714.85453    -703.4115    33109.329    51047.772    48875.176   -594.96118      15.2149      13.1765      28.7324    5760.2466 
   35000       34.988    285.18889    11.906929   -715.30668   -703.39975    32015.571    48920.169    51117.039   -3990.4954      15.2149      13.1765      28.7324    5760.2466 
   35500       35.488    270.13563     11.27844   -714.66683   -703.38839     32489.47    46436.348    50425.758    606.30392      15.2149      13.1765      28.7324    5760.2466 
   36000       35.988    272.48822    11.376663   -714.75177   -703.37511    32293.727    50668.426    47148.002   -935.24859      15.2149      13.1765      28.7324    5760.2466 
   36500       36.488    290.07692    12.111009   -715.47446   -703.36345    32703.025    48435.307    51324.679   -1650.9115      15.2149      13.1765      28.7324    5760.2466 
   37000       36.988    277.12914    11.570426   -714.92142     -703.351    33045.782    47702.736    52142.627   -708.01539      15.2149      13.1765      28.7324    5760.2466 
   37500       37.488    268.28137    11.201023   -714.53877   -703.33775    32444.786     50853.11    49160.621   -2679.3732      15.2149      13.1765      28.7324    5760.2466 
   38000       37.988     286.6828    11.969301   -715.29599   -703.32669    32783.729    50482.697    51018.584   -3150.0947      15.2149      13.1765      28.7324    5760.2466 
   38500       38.488    285.88555    11.936015   -715.25017   -703.31415    34161.871    51852.059     50112.16    521.39456      15.2149      13.1765      28.7324    5760.2466 
   39000       38.988    277.34813    11.579569    -714.8808   -703.30123    32611.935    50046.005    52103.845   -4314.0457      15.2149      13.1765      28.7324    5760.2466 
   39500       39.488    267.43554    11.165709   -714.45418   -703.28847    31636.012    52087.312    45784.138    -2963.415      15.2149      13.1765      28.7324    5760.2466 
   40000       39.988    276.44504    11.541864   -714.81794   -703.27607    32882.259    48589.588    48845.453    1211.7362      15.2149      13.1765      28.7324    5760.2466 
   40500       40.488    279.95799    11.688534   -714.95182   -703.26328    34436.489    52177.012    52038.195   -905.74061      15.2149      13.1765      28.7324    5760.2466 
   41000       40.988    277.71245     11.59478    -714.8448   -703.25002     33272.34    48189.206    49474.552    2153.2622      15.2149      13.1765      28.7324    5760.2466 
   41500       41.488    275.97222    11.522124   -714.75957   -703.23745    31631.384    46268.745    47588.174    1037.2311      15.2149      13.1765      28.7324    5760.2466 
   42000       41.988    278.18608    11.614555   -714.83857   -703.22401    33165.036    51230.311    50629.486   -2364.6875      15.2149      13.1765      28.7324    5760.2466 
   42500       42.488    273.99174    11.439436   -714.65029   -703.21086    33418.256    51111.488    47638.616    1504.6658      15.2149      13.1765      28.7324    5760.2466 
   43000       42.988    297.56296    12.423559   -715.62169   -703.19813    34190.184    52970.472    50331.177   -731.09727      15.2149      13.1765      28.7324    5760.2466 
   43500       43.488    258.32574    10.785365   -713.96796    -703.1826    33352.182     51151.34    48690.895    214.31097      15.2149      13.1765      28.7324    5760.2466 
   44000       43.988    277.18645    11.572819   -714.74338   -703.17056    32856.077    51258.092    50173.756   -2863.6156      15.2149      13.1765      28.7324    5760.2466 
   44500       44.488    270.53191    11.294985   -714.45116   -703.15617    33232.234    50630.413    50572.392   -1506.1036      15.2149      13.1765      28.7324    5760.2466 
   45000       44.988    285.70442    11.928453   -715.07252   -703.14407    34253.414    51739.574    48793.355    2227.3136      15.2149      13.1765      28.7324    5760.2466 
   45500       45.488    276.34285    11.537598   -714.66824   -703.13064    33640.183    49735.244     50017.91    1167.3964      15.2149      13.1765      28.7324    5760.2466 
   46000       45.988    275.33967    11.495714   -714.61261    -703.1169    33018.874    50705.943    50586.093   -2235.4143      15.2149      13.1765      28.7324    5760.2466 
   46500       46.488     276.7735    11.555578   -714.65907   -703.10349    32691.529    52153.418    49061.233   -3140.0642      15.2149      13.1765      28.7324    5760.2466 
   47000       46.988    271.85967     11.35042   -714.44005   -703.08963    33966.698    51274.612    51251.622   -626.13933      15.2149      13.1765      28.7324    5760.2466 
   47500       47.488    278.92515    11.645411   -714.72152   -703.07611    32256.339    49220.569    51335.961    -3787.513      15.2149      13.1765      28.7324    5760.2466 
   48000       47.988    271.31959    11.327871   -714.39024   -703.06237    34335.226    51388.784    50088.899    1527.9956      15.2149      13.1765      28.7324    5760.2466 
   48500       48.488    279.42587    11.666317   -714.71585   -703.04953    33602.971     51986.86    49901.683   -1079.6296      15.2149      13.1765      28.7324    5760.2466 
   49000       48.988    284.05854    11.859736   -714.89531   -703.03557     32960.48    50057.955    48521.982    301.50239      15.2149      13.1765      28.7324    5760.2466 
   49500       49.488    271.53642    11.336924   -714.35851   -703.02158    31652.694    48669.064    47957.801   -1668.7828      15.2149      13.1765      28.7324    5760.2466 
   50000       49.988    281.76561    11.764004   -714.77259   -703.00859     34776.08    49873.819    51384.039     3070.383      15.2149      13.1765      28.7324    5760.2466 
   50500       50.488    275.86324    11.517573   -714.51276   -702.99518    35336.536    53244.112    51484.457    1281.0388      15.2149      13.1765      28.7324    5760.2466 
   51000       50.988     270.7176    11.302738   -714.28332   -702.98059     34003.56    52213.482    51386.694   -1589.4961      15.2149      13.1765      28.7324    5760.2466 
   51500       51.488    283.36487    11.830774   -714.79778     -702.967    31791.274    49869.295    44913.558    590.96775      15.2149      13.1765      28.7324    5760.2466 
   52000       51.988    276.65042    11.550439    -714.5053   -702.95486    31513.456    50134.567    47927.054   -3521.2538      15.2149      13.1765      28.7324    5760.2466 
   52500       52.488    282.01809    11.774545    -714.7153   -702.94076     32557.97    51294.278    46909.116   -529.48434      15.2149      13.1765      28.7324    5760.2466 
   53000       52.988     271.5816    11.338811    -714.2665   -702.92769    33416.486    48772.685    50175.977    1300.7947      15.2149      13.1765      28.7324    5760.2466 
   53500       53.488    276.40256    11.540091   -714.45374   -702.91364    31939.826      49892.5    48133.623   -2206.6457      15.2149      13.1765      28.7324    5760.2466 
   54000       53.988    280.85088    11.725813   -714.62691   -702.90109    31668.903      47731.4    44634.799    2640.5115      15.2149      13.1765      28.7324    5760.2466 
   54500       54.488    283.56379    11.839079   -714.72701   -702.88793    32733.868    51368.176    48222.433   -1389.0041      15.2149      13.1765      28.7324    5760.2466 
   55000       54.988    297.72518    12.430332   -715.30622   -702.87589     32964.99     49903.38    49190.938   -199.34759      15.2149      13.1765      28.7324    5760.2466 
   55500       55.488    268.95422    11.229115   -714.09027   -702.86116     31020.17    47749.851    48121.891   -2811.2333      15.2149      13.1765      28.7324    5760.2466 
   56000       55.988    272.66238    11.383934   -714.23156   -702.84762    32160.077    52047.115    47643.624   -3210.5081      15.2149      13.1765      28.7324    5760.2466 
   56500       56.488    291.90516     12.18734   -715.02252   -702.83518     32338.89    48091.292    48369.597    555.78178      15.2149      13.1765      28.7324    5760.2466 
   57000       56.988    277.55458    11.588189   -714.40928   -702.82109    34075.821    51883.434    48797.899    1546.1306      15.2149      13.1765      28.7324    5760.2466 
   57500       57.488    273.18577    11.405787   -714.21394   -702.80815    34192.537    48608.704    53452.747    516.15964      15.2149      13.1765      28.7324    5760.2466 
   58000       57.988    276.45391    11.542235   -714.33794   -702.79571    32399.653    48816.173     50169.77   -1786.9838      15.2149      13.1765      28.7324    5760.2466 
   58500       58.488    275.01331    11.482088   -714.26548   -702.78339     32521.26    51472.902     46266.88   -176.00244      15.2149      13.1765      28.7324    5760.2466 
   59000       58.988    282.37502    11.789447   -714.55924    -702.7698      31824.7    48651.859    48684.883   -1862.6419      15.2149      13.1765      28.7324    5760.2466 
   59500       59.488    268.16218    11.196046   -713.95367   -702.75763    31033.493    47818.274    48514.206   -3231.9995      15.2149      13.1765      28.7324    5760.2466 
   60000       59.988    281.81261    11.765966   -714.51108   -702.74511    32938.198    50405.063    52351.716   -3942.1863      15.2149      13.1765      28.7324    5760.2466 
   60500       60.488    278.13487    11.612417   -714.34427   -702.73186     32845.39    48060.501    47327.822    3147.8462      15.2149      13.1765      28.7324    5760.2466 
   61000       60.988    279.24845     11.65891   -714.37843   -702.71952    31956.269    48020.687    49204.962   -1356.8426      15.2149      13.1765      28.7324    5760.2466 
   61500       61.488    279.49647    11.669264   -714.37609   -702.70683    33569.957    49968.048    50199.157    542.66637      15.2149      13.1765      28.7324    5760.2466 
   62000       61.988    285.37438    11.914673   -714.60894   -702.69427    33128.473    49942.815    50852.314   -1409.7111      15.2149      13.1765      28.7324    5760.2466 
   62500       62.488    286.19933    11.949116   -714.63122   -702.68211     33114.31      49325.3    49267.185    750.44547      15.2149      13.1765      28.7324    5760.2466 
   63000       62.988    279.72678     11.67888    -714.3477   -702.66882    30452.204    48024.561    48232.449   -4900.3986      15.2149      13.1765      28.7324    5760.2466 
   63500       63.488    305.11157    12.738721   -715.39687   -702.65814    35297.585    55363.419    49189.361    1339.9758      15.2149      13.1765      28.7324    5760.2466 
   64000       63.988    296.46256    12.377616   -715.02247   -702.64486    32606.184    50549.527    49447.044   -2178.0178      15.2149      13.1765      28.7324    5760.2466 
   64500       64.488    258.64033    10.798499   -713.42976   -702.63126    33528.654    52777.572    51942.399   -4134.0097      15.2149      13.1765      28.7324    5760.2466 
   65000       64.988    277.46666    11.584518   -714.20434   -702.61982    33218.284    49241.203    50985.614   -571.96335      15.2149      13.1765      28.7324    5760.2466 
   65500       65.488    279.72901    11.678973   -714.28699   -702.60802    33046.193    49538.784    47619.048    1980.7461      15.2149      13.1765      28.7324    5760.2466 
   66000       65.988    281.95033    11.771716   -714.36897   -702.59725    34486.949    47861.909      51780.1    3818.8378      15.2149      13.1765      28.7324    5760.2466 
   66500       66.488    287.75616    12.014115   -714.59812     -702.584    31504.319    48481.015    47927.974   -1896.0321      15.2149      13.1765      28.7324    5760.2466 
   67000       66.988     288.7377    12.055096   -714.62781   -702.57272    33350.738    51583.684    50173.359   -1704.8279      15.2149      13.1765      28.7324    5760.2466 
   67500       67.488    289.34748    12.080554   -714.64189   -702.56134    33140.277    50590.957    50368.853   -1538.9795      15.2149      13.1765      28.7324    5760.2466 
   68000       67.988    275.51446    11.503012   -714.05249   -702.54948    34002.109    50264.655    50867.853    873.82105      15.2149      13.1765      28.7324    5760.2466 
   68500       68.488    289.22217    12.075322    -714.6133   -702.53798      33012.5    51307.964    48059.357   -329.81986      15.2149      13.1765      28.7324    5760.2466 
   69000       68.988    276.88385    11.560185   -714.08488    -702.5247    32613.645    49431.592    49181.736   -772.39255      15.2149      13.1765      28.7324    5760.2466 
   69500       69.488     274.2774    11.451363   -713.96473   -702.51337    32055.704    49887.751    49447.831   -3168.4696      15.2149      13.1765      28.7324    5760.2466 
   70000       69.988    269.90474      11.2688   -713.77027   -702.50147      35012.1    52865.443     53031.09   -860.23198      15.2149      13.1765      28.7324    5760.2466 
   70500       70.488    279.15533    11.655022   -714.14584   -702.49081    31403.396    47581.966    47006.796   -378.57504      15.2149      13.1765      28.7324    5760.2466 
   71000       70.988    285.00655    11.899316   -714.37957   -702.48025    33106.669    50619.969    51174.367   -2474.3309      15.2149      13.1765      28.7324    5760.2466 
   71500       71.488    282.95923    11.813838   -714.28208   -702.46824    32658.398     46759.77    50981.826    233.59741      15.2149      13.1765      28.7324    5760.2466 
   72000       71.988     279.2622    11.659484   -714.11676   -702.45727    33734.482    49958.462    50235.552    1009.4312      15.2149      13.1765      28.7324    5760.2466 
   72500       72.488    280.20636    11.698903    -714.1454    -702.4465    34588.364    48878.369    50708.158    4178.5652      15.2149      13.1765      28.7324    5760.2466 
   73000       72.988    293.93738    12.272187   -714.70681   -702.43463    33087.448    53244.081    49684.824    -3666.559      15.2149      13.1765      28.7324    5760.2466 
   73500       73.488    296.07245    12.361329    -714.7859   -702.42457     34833.88    53286.551    49573.344    1641.7447      15.2149      13.1765      28.7324    5760.2466 
   74000       73.988    277.17741    11.572441   -713.98429   -702.41185    34154.684     51511.02    50945.685    7.3484266      15.2149      13.1765      28.7324    5760.2466 
   74500       74.488     281.7813    11.764659   -714.16628   -702.40162    29435.246    44651.659    45979.114   -2325.0359      15.2149      13.1765      28.7324    5760.2466 
   75000       74.988    294.18972    12.282723   -714.67362    -702.3909    33296.024    52179.295    49054.748    -1345.969      15.2149      13.1765      28.7324    5760.2466 
   75500       75.488    291.22992    12.159148   -714.53898   -702.37983    35057.722    51637.787    53297.556    237.82408      15.2149      13.1765      28.7324    5760.2466 
   76000       75.988    294.83966    12.309859   -714.67923   -702.36937    32538.809    49844.177    49274.143   -1501.8942      15.2149      13.1765      28.7324    5760.2466 
   76500       76.488    293.57556    12.257081   -714.61489   -702.35781    32734.043    50089.559    51517.927   -3405.3587      15.2149      13.1765      28.7324    5760.2466 
   77000       76.988     292.2461    12.201575   -714.54842   -702.34685    34160.596    51405.416    51279.321   -202.95017      15.2149      13.1765      28.7324    5760.2466 
   77500       77.488    304.62982    12.718608   -715.05589   -702.33728    35020.679    54610.106    50074.493    377.43767      15.2149      13.1765      28.7324    5760.2466 
   78000       77.988    271.60734    11.339885   -713.66479    -702.3249    32997.887    52326.624    48105.778   -1438.7413      15.2149      13.1765      28.7324    5760.2466 
   78500       78.488      297.357     12.41496   -714.73038   -702.31542    32524.759    49065.304    51226.728   -2717.7538      15.2149      13.1765      28.7324    5760.2466 
   79000       78.988    297.59705    12.424982   -714.72857   -702.30358    32756.286    52823.288    47965.372   -2519.8008      15.2149      13.1765      28.7324    5760.2466 
   79500       79.488    284.39696    11.873865   -714.16659   -702.29272    33816.365    50542.871    49756.844    1149.3786      15.2149      13.1765      28.7324    5760.2466 
   80000       79.988    289.41757    12.083481   -714.36477   -702.28129    32674.087    52885.063    47499.635   -2362.4379      15.2149      13.1765      28.7324    5760.2466 
   80500       80.488    285.38519    11.915125   -714.18646   -702.27134    33858.922    51873.247    50119.993   -416.47256      15.2149      13.1765      28.7324    5760.2466 
   81000       80.988    286.29603    11.953153    -714.2137   -702.26055    33223.881    49132.864     48015.35    2523.4277      15.2149      13.1765      28.7324    5760.2466 
   81500       81.488     311.8567    13.020338   -715.27173   -702.25139    35879.549    54201.337    49752.205     3685.105      15.2149      13.1765      28.7324    5760.2466 
   82000       81.988    286.48942    11.961227   -714.20064   -702.23941    30614.346    49531.888     44292.72   -1981.5696      15.2149      13.1765      28.7324    5760.2466 
   82500       82.488    294.45049     12.29361     -714.523   -702.22939    34879.783    53289.705    48482.342    2867.3022      15.2149      13.1765      28.7324    5760.2466 
   83000       82.988    298.56428    12.465365   -714.68483   -702.21947    34326.872    52098.861    49322.708    1559.0468      15.2149      13.1765      28.7324    5760.2466 
   83500       83.488    295.77687    12.348988   -714.55587   -702.20688    33005.103    50184.525    51125.289   -2294.5058      15.2149      13.1765      28.7324    5760.2466 
   84000       83.988    294.60721    12.300153   -714.49747   -702.19731    33698.791    52531.077    47424.851    1140.4449      15.2149      13.1765      28.7324    5760.2466 
   84500       84.488    294.48257     12.29495   -714.48095     -702.186    32042.749    52636.684    45481.454   -1989.8921      15.2149      13.1765      28.7324    5760.2466 
   85000       84.988    284.73688    11.888057   -714.06341   -702.17535    32960.328    49294.363    48974.667     611.9525      15.2149      13.1765      28.7324    5760.2466 
   85500       85.488    304.49475    12.712968   -714.87987   -702.16691    34880.528    53232.411    51061.442     347.7321      15.2149      13.1765      28.7324    5760.2466 
   86000       85.988    285.44913    11.917794   -714.07155   -702.15376    33135.402    50023.753    49864.905   -482.45063      15.2149      13.1765      28.7324    5760.2466 
   86500       86.488     289.0901    12.069808   -714.21393   -702.14412    32537.424    50919.168    47174.999   -481.89419      15.2149      13.1765      28.7324    5760.2466 
   87000       86.988    281.79538    11.765247   -713.89911   -702.13386    32498.041    51168.976    47509.111   -1183.9622      15.2149      13.1765      28.7324    5760.2466 
   87500       87.488    272.74645    11.387444   -713.51039   -702.12294    33194.978    53756.675    48529.495   -2701.2365      15.2149      13.1765      28.7324    5760.2466 
   88000       87.988     297.9233    12.438604   -714.55117   -702.11256    34182.482    52815.341    50030.107   -298.00049      15.2149      13.1765      28.7324    5760.2466 
   88500       88.488    284.67176    11.885338   -713.98751   -702.10217     32106.77    52379.791    45157.945   -1217.4272      15.2149      13.1765      28.7324    5760.2466 
   89000       88.988    271.83251    11.349286   -713.44109   -702.09181    31311.399    50057.192    45061.163   -1184.1593      15.2149      13.1765      28.7324    5760.2466 
   89500       89.488    295.74658    12.347724   -714.43023   -702.08251    34518.609    50544.825     48709.85     4301.151      15.2149      13.1765      28.7324    5760.2466 
   90000       89.988    277.62565    11.591156   -713.66085   -702.06969    33180.861    52450.898    48839.592   -1747.9058      15.2149      13.1765      28.7324    5760.2466 
   90500       90.488    282.61369    11.799412   -713.85925   -702.05983    32556.661     48882.67    49814.066   -1026.7546      15.2149      13.1765      28.7324    5760.2466 
   91000       90.988    288.25238    12.034833   -714.08405   -702.04922    31971.866    50072.115    48614.411   -2770.9283      15.2149      13.1765      28.7324    5760.2466 
   91500       91.488    303.65746    12.678011   -714.71672   -702.03871    33619.113    49810.167    50237.111    810.06009      15.2149      13.1765      28.7324    5760.2466 
   92000       91.988    296.78479     12.39107   -714.41891   -702.02784    34215.622     50480.18    48501.981    3664.7061      15.2149      13.1765      28.7324    5760.2466 
   92500       92.488    285.77499    11.931399   -713.94799   -702.01659    30953.448    47870.779    46300.738   -1311.1721      15.2149      13.1765      28.7324    5760.2466 
   93000       92.988    298.21936    12.450964    -714.4573   -702.00634    34435.658    50492.546    50216.773     2597.655      15.2149      13.1765      28.7324    5760.2466 
   93500       93.488    297.86878    12.436328   -714.43121   -701.99489    33809.923     50829.65    52133.405   -1533.2854      15.2149      13.1765      28.7324    5760.2466 
   94000       93.988    310.35948    12.957827   -714.94306   -701.98523    33488.238      48395.6    51129.245     939.8705      15.2149      13.1765      28.7324    5760.2466 
   94500       94.488    289.08656    12.069661   -714.04414   -701.97448     31998.76    50651.246    50800.525   -5455.4902      15.2149      13.1765      28.7324    5760.2466 
   95000       94.988     304.3703    12.707773    -714.6705   -701.96273     33332.45    51380.653    49181.636   -564.93853      15.2149      13.1765      28.7324    5760.2466 
   95500       95.488    308.74927    12.890599    -714.8443    -701.9537    34038.131    51811.546    50845.542   -542.69576      15.2149      13.1765      28.7324    5760.2466 
   96000       95.988    290.29434    12.120087   -714.06122   -701.94113    31783.893    49361.856     46694.91   -705.08589      15.2149      13.1765      28.7324    5760.2466 
   96500       96.488    280.71435    11.720112   -713.64961    -701.9295    31510.297     48698.43    47287.126   -1454.6662      15.2149      13.1765      28.7324    5760.2466 
   97000       96.988    295.43901    12.334882    -714.2541   -701.91922    32720.835    49330.299    50479.769   -1647.5632      15.2149      13.1765      28.7324    5760.2466 
   97500       97.488    296.31853    12.371603   -714.28059   -701.90899    32541.755    50937.286    47111.713   -423.73398      15.2149      13.1765      28.7324    5760.2466 
   98000       97.988    305.99624    12.775657   -714.67301   -701.89735    32785.182    52148.996    48004.424   -1797.8731      15.2149      13.1765      28.7324    5760.2466 
   98500       98.488    291.69112    12.178404   -714.06416   -701.88576    32428.441    50469.805     48003.87   -1188.3515      15.2149      13.1765      28.7324    5760.2466 
   99000       98.988    296.01624    12.358982   -714.23512   -701.87614    34933.657    52358.479     52632.69   -190.19805      15.2149      13.1765      28.7324    5760.2466 
   99500       99.488    283.51353    11.836981   -713.70014   -701.86316    33801.618    51618.116    49486.507    300.23034      15.2149      13.1765      28.7324    5760.2466 
  100000       99.988    300.80826    12.559054   -714.41172   -701.85266    33275.723    53491.285    48156.877   -1820.9923      15.2149      13.1765      28.7324    5760.2466 
  100500      100.488    280.31294    11.703353   -713.54409   -701.84074    30156.656    49671.586    47761.029    -6962.647      15.2149      13.1765      28.7324    5760.2466 
  101000      100.988    298.98348    12.482867   -714.31366   -701.83079    33142.708    48152.082    51718.072   -442.02913      15.2149      13.1765      28.7324    5760.2466 
  101500      101.488    300.17808    12.532743   -714.35225    -701.8195     35026.13    49321.483    54748.121    1008.7853      15.2149      13.1765      28.7324    5760.2466 
  102000      101.988    299.78061    12.516148   -714.32429   -701.80814     31280.67    50371.475     48966.79   -5496.2573      15.2149      13.1765      28.7324    5760.2466 
  102500      102.488    278.87059    11.643133   -713.43892   -701.79579    33761.109    53317.824     50920.42   -2954.9171      15.2149      13.1765      28.7324    5760.2466 
  103000      102.988     288.1129     12.02901   -713.81343   -701.78443    32827.229     49851.58    51049.722   -2419.6148      15.2149      13.1765      28.7324    5760.2466 
  103500      103.488    296.57488    12.382306   -714.15605   -701.77374    33259.349    51973.692    49035.419   -1231.0635      15.2149      13.1765      28.7324    5760.2466 
  104000      103.988    271.47587    11.334396   -713.09611   -701.76171    31258.253    50184.929     48490.59     -4900.76      15.2149      13.1765      28.7324    5760.2466 
  104500      104.488    314.58782    13.134365   -714.88629   -701.75193    32076.913    47949.536    48934.002   -652.79972      15.2149      13.1765      28.7324    5760.2466 
  105000      104.988    295.48875    12.336959   -714.07548   -701.73853    35286.992    53576.704    51144.878    1139.3928      15.2149      13.1765      28.7324    5760.2466 
  105500      105.488    280.25752    11.701039   -713.42737   -701.72633    33821.999     50308.12    51293.227   -135.34997      15.2149      13.1765      28.7324    5760.2466 
  106000      105.988    297.26602    12.411161   -714.12727   -701.71611    31725.908    46314.671    48508.871    354.18169      15.2149      13.1765      28.7324    5760.2466 
  106500      106.488    302.79746    12.642105    -714.3462    -701.7041    32564.071     49021.76    49394.552   -724.09936      15.2149      13.1765      28.7324    5760.2466 
  107000      106.988    300.09867    12.529427   -714.22157   -701.69214    33832.883    53683.919    50465.238   -2650.5082      15.2149      13.1765      28.7324    5760.2466 
  107500      107.488    289.66411    12.093774   -713.77482   -701.68104    31863.527    52048.413    48017.568   -4475.3991      15.2149      13.1765      28.7324    5760.2466 
  108000      107.988    290.76094    12.139568   -713.80867    -701.6691    33642.684    55352.282    49378.942   -3803.1724      15.2149      13.1765      28.7324    5760.2466 
  108500      108.488    299.20763    12.492226    -714.1494   -701.65717    33481.891    52203.768    50796.472   -2554.5665      15.2149      13.1765      28.7324    5760.2466 
  109000      108.988     310.7628    12.974666   -714.61995   -701.64528    33358.099    49668.466     52878.86   -2473.0285      15.2149      13.1765      28.7324    5760.2466 
  109500      109.488    290.86329    12.143841   -713.77725   -701.63341    33001.456    49664.734    47583.292    1756.3413      15.2149      13.1765      28.7324    5760.2466 
  110000      109.988    298.99328    12.483276   -714.10407    -701.6208     33608.47    49645.548    49796.974    1382.8891      15.2149      13.1765      28.7324    5760.2466 
  110500      110.488    309.08223    12.904501   -714.51504   -701.61054    35212.778    52756.002    49320.171    3562.1606      15.2149      13.1765      28.7324    5760.2466 
  111000      110.988     294.4115    12.291982   -713.88809   -701.59611    31731.842    51056.687    47981.862   -3843.0233      15.2149      13.1765      28.7324    5760.2466 
  111500      111.488    280.19278    11.698336    -713.2815   -701.58317    33703.249    54508.296     50082.99    -3481.539      15.2149      13.1765      28.7324    5760.2466 
  112000      111.988    304.66312    12.719998   -714.29319   -701.57319    33027.407    47962.826    48133.723    2985.6708      15.2149      13.1765      28.7324    5760.2466 
  112500      112.488    309.09406    12.904994   -714.46597   -701.56098    32082.069     51043.53    48364.786    -3162.109      15.2149      13.1765      28.7324    5760.2466 
  113000      112.988    281.04428    11.733887   -713.28064   -701.54675    32705.737    48030.626    49107.232    979.35368      15.2149      13.1765      28.7324    5760.2466 
  113500      113.488    315.54704    13.174413   -714.71141   -701.53699    32745.377    51950.019    48335.565   -2049.4521      15.2149      13.1765      28.7324    5760.2466 
  114000      113.988    295.13692     12.32227   -713.84617    -701.5239     35709.12    51606.621    49641.976    5878.7631      15.2149      13.1765      28.7324    5760.2466 
  114500      114.488    294.40832     12.29185   -713.80298   -701.51113    32037.609    52435.067    47869.162   -4191.4026      15.2149      13.1765      28.7324    5760.2466 
  115000      114.988    286.33411    11.954743   -713.45244    -701.4977    32436.233    49630.174     50588.96   -2910.4358      15.2149      13.1765      28.7324    5760.2466 
  115500      115.488    308.75705    12.890924   -714.37789   -701.48697    32527.657    51831.148    47634.582   -1882.7576      15.2149      13.1765      28.7324    5760.2466 
  116000      115.988    285.71459    11.928878    -713.4021   -701.47322    33278.542    48621.707    51131.973    81.946585      15.2149      13.1765      28.7324    5760.2466 
  116500      116.488    277.39613    11.581573   -713.04052   -701.45895    32151.228    54487.249    47992.465   -6026.0309      15.2149      13.1765      28.7324    5760.2466 
  117000      116.988    280.41694    11.707695   -713.15557   -701.44788    34046.181    50029.025    52112.046   -2.5259867      15.2149      13.1765      28.7324    5760.2466 
  117500      117.488    289.31656    12.079263   -713.51472   -701.43546    32365.037    48017.472    50160.221   -1082.5824      15.2149      13.1765      28.7324    5760.2466 
  118000      117.988    305.35262    12.748785   -714.17123   -701.42244    34567.921     50702.89    52094.966    905.90824      15.2149      13.1765      28.7324    5760.2466 
  118500      118.488     304.6072    12.717663   -714.12665   -701.40898    34908.023    54550.531    50688.193   -514.65617      15.2149      13.1765      28.7324    5760.2466 
  119000      118.988    291.62735    12.175741   -713.57246   -701.39672    32745.372     50046.45    50349.821   -2160.1535      15.2149      13.1765      28.7324    5760.2466 
  119500      119.488    300.44277    12.543794    -713.9281   -701.38431    33397.017    47999.534    50251.661    1939.8565      15.2149      13.1765      28.7324    5760.2466 
  120000      119.988     298.1316      12.4473   -713.81894   -701.37164    31236.451    49932.472    49391.399   -5614.5176      15.2149      13.1765      28.7324    5760.2466 
  120500      120.488    296.72204     12.38845   -713.74636   -701.35791    32403.868    49227.763    47773.602    210.23773      15.2149      13.1765      28.7324    5760.2466 
  121000      120.988    294.10786    12.279305   -713.62498   -701.34567    33706.462    49907.575    50235.179    976.63149      15.2149      13.1765      28.7324    5760.2466 
  121500      121.488    309.61844    12.926888   -714.25919   -701.33231    34569.925    52071.754    52027.545   -389.52297      15.2149      13.1765      28.7324    5760.2466 
  122000      121.988    301.44168      12.5855   -713.90507   -701.31957    33285.699    51709.897    48061.606    85.593223      15.2149      13.1765      28.7324    5760.2466 
  122500      122.488    306.29747    12.788234   -714.09477   -701.30654    32468.497    48282.735    49370.889   -248.13263      15.2149      13.1765      28.7324    5760.2466 
  123000      122.988    316.97712     13.23412   -714.52785   -701.29372    34697.892    52179.984    48157.199    3756.4923      15.2149      13.1765      28.7324    5760.2466 
  123500      123.488    285.67507    11.927228   -713.20579   -701.27856    30905.618    46470.007     49803.61   -3556.7618      15.2149      13.1765      28.7324    5760.2466 
  124000      123.988    306.70879    12.805407   -714.07241     -701.267    34008.886     50675.73    49006.493    2344.4353      15.2149      13.1765      28.7324    5760.2466 
  124500      124.488    285.66706    11.926893   -713.17984   -701.25295    32737.977    48622.104    49116.433    475.39261      15.2149      13.1765      28.7324    5760.2466 
  125000      124.988    295.09104    12.320354   -713.55972   -701.23937    31759.944    51477.964    49550.117    -5748.249      15.2149      13.1765      28.7324    5760.2466 
  125500      125.488    290.78754    12.140678    -713.3663   -701.22563    30447.814    48747.272    48229.169   -5632.9979      15.2149      13.1765      28.7324    5760.2466 
  126000      125.988    279.37824    11.664329   -712.87742   -701.21309    33248.183    48405.222    50717.122    622.20543      15.2149      13.1765      28.7324    5760.2466 
  126500      126.488    305.56282    12.757562   -713.95757   -701.20001    31837.546    48343.555    48411.167    -1242.085      15.2149      13.1765      28.7324    5760.2466 
  127000      126.988    293.09881    12.237176   -713.42293   -701.18575    34222.066    49371.731    51714.987    1579.4798      15.2149      13.1765      28.7324    5760.2466 
  127500      127.488    295.31345     12.32964   -713.50168   -701.17204    33175.919    52284.581    49838.735   -2595.5582      15.2149      13.1765      28.7324    5760.2466 
  128000      127.988    302.12469    12.614016    -713.7732   -701.15918     33272.37     50212.99    53482.206   -3878.0862      15.2149      13.1765      28.7324    5760.2466 
  128500      128.488    286.93513    11.979836   -713.12455   -701.14472    33534.935    50547.803    50003.181    53.821035      15.2149      13.1765      28.7324    5760.2466 
  129000      128.988    306.64577    12.802776   -713.93512   -701.13235     35394.68    53620.819    52139.701    423.52094      15.2149      13.1765      28.7324    5760.2466 
  129500      129.488    301.29537    12.579391   -713.69814   -701.11875    34477.788     49822.55    53009.866    600.94609      15.2149      13.1765      28.7324    5760.2466 
  130000      129.988    298.65736    12.469251   -713.57402   -701.10477     31634.84    49074.824    48876.305   -3046.6087      15.2149      13.1765      28.7324    5760.2466 
  130500      130.488    284.79882    11.890643   -712.98078   -701.09014    33724.126    48746.477    47263.821    5162.0798      15.2149      13.1765      28.7324    5760.2466 
  131000      130.988     303.4294    12.668489   -713.74519    -701.0767    33874.112    48851.306    52565.977    205.05438      15.2149      13.1765      28.7324    5760.2466 
  131500      131.488    303.85293    12.686172    -713.7494   -701.06323    32812.024    50288.174    47957.114    190.78214      15.2149      13.1765      28.7324    5760.2466 
  132000      131.988    315.14533    13.157641   -714.20725   -701.04961    32824.033    48441.826    49250.301    779.97163      15.2149      13.1765      28.7324    5760.2466 
  132500      132.488    319.72287    13.348758   -714.38478   -701.03602    35631.922    52569.579    48928.996    5397.1918      15.2149      13.1765      28.7324    5760.2466 
  133000      132.988    294.18797     12.28265    -713.3044   -701.02175    32860.369     49047.67    49800.725   -267.28748      15.2149      13.1765      28.7324    5760.2466 
  133500      133.488     303.2881     12.66259   -713.67027   -701.00769    34290.562    49246.265    51932.685    1692.7362      15.2149      13.1765      28.7324    5760.2466 
  134000      133.988    306.30637    12.788605   -713.78258   -700.99397    33231.409    48515.795    48324.946    2853.4865      15.2149      13.1765      28.7324    5760.2466 
  134500      134.488    311.69405    13.013547   -713.99288   -700.97934    32346.273    47382.715    51384.675   -1728.5698      15.2149      13.1765      28.7324    5760.2466 
  135000      134.988    305.05863    12.736511   -713.70197   -700.96546    33987.062    50531.963    51332.116     97.10633      15.2149      13.1765      28.7324    5760.2466 
  135500      135.488    303.52759    12.672589   -713.62516   -700.95258    31140.652    47886.213    50733.168   -5197.4238      15.2149      13.1765      28.7324    5760.2466 
  136000      135.988    312.72995    13.056797   -713.99561   -700.93881    32172.561     51040.09    47292.796   -1815.2017      15.2149      13.1765      28.7324    5760.2466 
  136500      136.488    312.61784    13.052116   -713.97472   -700.92261    31922.843    49770.964    48535.368   -2537.8026      15.2149      13.1765      28.7324    5760.2466 
  137000      136.988    309.43057    12.919044   -713.82774    -700.9087    33313.521    51333.241     49194.57   -587.24811      15.2149      13.1765      28.7324    5760.2466 
  137500      137.488      293.417    12.250461    -713.1448   -700.89434    32868.915    53854.133    47677.729   -2925.1169      15.2149      13.1765      28.7324    5760.2466 
  138000      137.988     302.1831    12.616455   -713.49778   -700.88132    33094.841    55142.446    47730.758   -3588.6814      15.2149      13.1765      28.7324    5760.2466 
  138500      138.488    298.30032    12.454345   -713.32012   -700.86578     33793.37    48990.158    52341.727    48.225728      15.2149      13.1765      28.7324    5760.2466 
  139000      138.988    327.24195    13.662688   -714.51678   -700.85409    34392.066    52740.288    49657.168    778.74315      15.2149      13.1765      28.7324    5760.2466 
  139500      139.488    310.67742    12.971101   -713.80872   -700.83762    33819.986    52075.982    51522.306   -2138.3302      15.2149      13.1765      28.7324    5760.2466 
  140000      139.988    290.88306    12.144666    -712.9682   -700.82353    30924.742    45103.379    51197.865   -3527.0182      15.2149      13.1765      28.7324    5760.2466 
  140500      140.488    302.15804    12.615408   -713.42466   -700.80925    34685.184    53048.615    46754.067    4252.8708      15.2149      13.1765      28.7324    5760.2466 
  141000      140.988    280.78244    11.722955   -712.51645    -700.7935     32642.37    47597.851    48873.882    1455.3767      15.2149      13.1765      28.7324    5760.2466 
  141500      141.488    315.77987    13.184134    -713.9654   -700.78127    32989.477    51352.279     48002.97   -386.81987      15.2149      13.1765      28.7324    5760.2466 
  142000      141.988    291.94845    12.189147   -712.95516   -700.76601    33374.634    49134.947    48898.338     2090.617      15.2149      13.1765      28.7324    5760.2466 
  142500      142.488    304.39055    12.708618   -713.46098   -700.75237    33080.142    51171.734    47243.567    825.12498      15.2149      13.1765      28.7324    5760.2466 
  143000      142.988    291.04389    12.151381    -712.8882   -700.73682     32976.12    52184.149     49773.94   -3029.7304      15.2149      13.1765      28.7324    5760.2466 
  143500      143.488     315.0708     13.15453   -713.87934   -700.72481    33364.558    48598.999     49839.24    1655.4355      15.2149      13.1765      28.7324    5760.2466 
  144000      143.988    285.87837    11.935716     -712.644   -700.70829    35035.417    54157.474    52044.475   -1095.6982      15.2149      13.1765      28.7324    5760.2466 
  144500      144.488    293.85719     12.26884     -712.963   -700.69416    34813.696    50126.404    51496.646    2818.0378      15.2149      13.1765      28.7324    5760.2466 
  145000      144.988    301.45392    12.586011    -713.2654   -700.67939    34153.274    55074.968    52357.253   -4972.3994      15.2149      13.1765      28.7324    5760.2466 
  145500      145.488    296.58967    12.382923   -713.04743   -700.66451    32235.428    48408.965    48108.026    189.29398      15.2149      13.1765      28.7324    5760.2466 
  146000      145.988    324.60855     13.55274   -714.20494    -700.6522    33254.183    48894.792     49757.33    1110.4286      15.2149      13.1765      28.7324    5760.2466 
  146500      146.488    329.39248    13.752474   -714.38954   -700.63706    33389.549    51304.814    50469.197   -1605.3625      15.2149      13.1765      28.7324    5760.2466 
  147000      146.988    303.79995     12.68396   -713.30561   -700.62165    30268.328    49965.078    49068.435   -8228.5287      15.2149      13.1765      28.7324    5760.2466 
  147500      147.488    318.67894    13.305173   -713.91303   -700.60786    34367.694    53720.324    48796.811    585.94845      15.2149      13.1765      28.7324    5760.2466 
  148000      147.988    308.09491    12.863279   -713.45616   -700.59288    33576.604      50911.5    47800.874    2017.4386      15.2149      13.1765      28.7324    5760.2466 
  148500      148.488    318.26573    13.287921   -713.86558   -700.57765    33990.228    53739.735    51684.899   -3453.9504      15.2149      13.1765      28.7324    5760.2466 
  149000      148.988    316.19452    13.201446     -713.764   -700.56256     32597.14    50100.728    47556.418     134.2736      15.2149      13.1765      28.7324    5760.2466 
  149500      149.488    295.89256    12.353818   -712.90116   -700.54734    34153.464    48066.766    50726.016    3667.6113      15.2149      13.1765      28.7324    5760.2466 
  150000      149.988    307.35215    12.832268   -713.36689   -700.53462    34425.568    50000.372    50692.807    2583.5251      15.2149      13.1765      28.7324    5760.2466 
  150500      150.488    299.65823    12.511039   -713.02997   -700.51893    33764.394    48962.503    50272.948     2057.729      15.2149      13.1765      28.7324    5760.2466 
  151000      150.988     313.3821    13.084025   -713.58785   -700.50383     34278.97    51310.158    52603.651   -1076.8973      15.2149      13.1765      28.7324    5760.2466 
  151500      151.488    308.95804    12.899315   -713.38938   -700.49006    33500.828    52210.758    47750.044    541.68293      15.2149      13.1765      28.7324    5760.2466 
  152000      151.988    306.78217    12.808471   -713.28321   -700.47474    34280.069    54245.208    49448.254   -853.25566      15.2149      13.1765      28.7324    5760.2466 
  152500      152.488    305.94946    12.773704   -713.23422   -700.46052    32247.922    51529.506    50416.787   -5202.5259      15.2149      13.1765      28.7324    5760.2466 
  153000      152.988    302.42909    12.626725   -713.07202    -700.4453     32124.58    49522.562     50470.63   -3619.4512      15.2149      13.1765      28.7324    5760.2466 
  153500      153.488    320.69253    13.389242   -713.82147   -700.43223     34295.48     51758.75    51391.448    -263.7578      15.2149      13.1765      28.7324    5760.2466 
  154000      153.988    290.87861    12.144481   -712.55949   -700.41501     33255.25    52951.681    47923.073   -1109.0053      15.2149      13.1765      28.7324    5760.2466 
  154500      154.488    312.00294    13.026443   -713.42728   -700.40084    32218.615    48226.762    50384.168    -1955.084      15.2149      13.1765      28.7324    5760.2466 
  155000      154.988    302.07059    12.611757   -712.99835   -700.38659     34338.24    56074.305    50828.878   -3888.4629      15.2149      13.1765      28.7324    5760.2466 
  155500      155.488    300.55807    12.548608   -712.92009   -700.37148     32357.34    51768.368    46198.209    -894.5577      15.2149      13.1765      28.7324    5760.2466 
  156000      155.988    301.07473    12.570179   -712.92669   -700.35651    33942.275    51783.198    48470.996    1572.6312      15.2149      13.1765      28.7324    5760.2466 
  156500      156.488    292.65868    12.218801   -712.56102   -700.34222    31993.958    50928.931    48373.095   -3320.1517      15.2149      13.1765      28.7324    5760.2466 
  157000      156.988    299.67914    12.511912   -712.83862   -700.32671    33063.435    50028.509    49384.548   -222.75292      15.2149      13.1765      28.7324    5760.2466 
  157500      157.488    327.24291    13.662728   -713.97502   -700.31229    31167.476    49657.192     47722.75   -3877.5136      15.2149      13.1765      28.7324    5760.2466 
  158000      157.988    302.44598     12.62743   -712.92399   -700.29656    30461.247    47904.521    48299.973   -4820.7528      15.2149      13.1765      28.7324    5760.2466 
  158500      158.488    310.72306    12.973007   -713.25448   -700.28148    30228.434     46617.36    45830.237   -1762.2939      15.2149      13.1765      28.7324    5760.2466 
  159000      158.988    320.98354    13.401393   -713.66928   -700.26789    32822.932     49927.26    47204.399    1337.1348      15.2149      13.1765      28.7324    5760.2466 
  159500      159.488      306.101    12.780031   -713.03203     -700.252    34272.125    53760.341    51624.868   -2568.8348      15.2149      13.1765      28.7324    5760.2466 
  160000      159.988    314.38666    13.125966   -713.36387    -700.2379    33134.736     51526.99    50277.568   -2400.3502      15.2149      13.1765      28.7324    5760.2466 
  160500      160.488    304.42871    12.710211   -712.93247   -700.22226    30468.692    49344.167    48895.227   -6833.3177      15.2149      13.1765      28.7324    5760.2466 
  161000      160.988    309.31026    12.914021   -713.12093   -700.20691    33588.366    54310.224    49121.669   -2666.7942      15.2149      13.1765      28.7324    5760.2466 
  161500      161.488    307.22652    12.827022   -713.01918   -700.19216    30035.614    44746.561    47672.128   -2311.8463      15.2149      13.1765      28.7324    5760.2466 
  162000      161.988    302.03836    12.610412   -712.78716   -700.17675    32300.118    51213.282    49209.255   -3522.1829      15.2149      13.1765      28.7324    5760.2466 
  162500      162.488    311.62674    13.010736   -713.17344    -700.1627    33424.014    47797.856    53877.749   -1403.5638      15.2149      13.1765      28.7324    5760.2466 
  163000      162.988    302.95448    12.648661   -712.79608   -700.14742    30361.894    49862.655    47372.588   -6149.5594      15.2149      13.1765      28.7324    5760.2466 
  163500      163.488    317.66418    13.262806   -713.39702   -700.13422    31273.581      48776.6    49997.601   -4953.4577      15.2149      13.1765      28.7324    5760.2466 
  164000      163.988    311.93946    13.023793    -713.1427   -700.11891    31501.582    45738.558     47624.31    1141.8787      15.2149      13.1765      28.7324    5760.2466 
  164500      164.488    304.20237    12.700761   -712.80425   -700.10349    31806.763    50846.605    46514.461   -1940.7767      15.2149      13.1765      28.7324    5760.2466 
  165000      164.988    300.65158    12.552512   -712.64063   -700.08812     30623.93    48675.793    47543.159    -4347.161      15.2149      13.1765      28.7324    5760.2466 
  165500      165.488    314.07527    13.112965   -713.18683   -700.07386     32354.67    50063.169    47814.965   -814.12337      15.2149      13.1765      28.7324    5760.2466 
  166000      165.988    299.47327    12.503317   -712.56158   -700.05827    31016.486    48547.479    48430.491   -3928.5113      15.2149      13.1765      28.7324    5760.2466 
  166500      166.488    302.37248    12.624361   -712.66691   -700.04254    30312.638    46842.706    49065.624   -4970.4149      15.2149      13.1765      28.7324    5760.2466 
  167000      166.988    303.98844    12.691829   -712.72047   -700.02864    33398.846    47200.041    53945.106    -948.6106      15.2149      13.1765      28.7324    5760.2466 
  167500      167.488    307.37481    12.833214   -712.84623   -700.01301     31820.76     48629.97    51184.422   -4352.1136      15.2149      13.1765      28.7324    5760.2466 
  168000      167.988    322.03798    13.445416   -713.44358   -699.99816    33897.484    52259.404    46829.274    2603.7751      15.2149      13.1765      28.7324    5760.2466 
  168500      168.488    315.13281    13.157118   -713.14062    -699.9835    32046.577    47789.064    47978.158    372.50858      15.2149      13.1765      28.7324    5760.2466 
  169000      168.988    332.74253    13.892342   -713.86178   -699.96943    32874.689    51424.958    49114.459   -1915.3503      15.2149      13.1765      28.7324    5760.2466 
  169500      169.488    307.97732    12.858369   -712.81127    -699.9529    33735.694    50918.156    51063.825   -774.89825      15.2149      13.1765      28.7324    5760.2466 
  170000      169.988    327.30042    13.665128   -713.60264   -699.93751    31937.083    50581.993    49532.969   -4303.7123      15.2149      13.1765      28.7324    5760.2466 
  170500      170.488    326.12339    13.615986   -713.54021   -699.92422    32203.728    47854.912    49066.813   -310.54232      15.2149      13.1765      28.7324    5760.2466 
  171000      170.988    302.34886    12.623375   -712.53031   -699.90694    33477.941    53095.215    49353.277   -2014.6697      15.2149      13.1765      28.7324    5760.2466 
  171500      171.488    308.04957    12.861386   -712.75332   -699.89193    31529.353    51099.879    47109.307   -3621.1267      15.2149      13.1765      28.7324    5760.2466 
  172000      171.988    322.56178    13.467286   -713.34616   -699.87887    32789.802    49187.584    51523.083   -2341.2604      15.2149      13.1765      28.7324    5760.2466 
  172500      172.488    322.50309    13.464835   -713.32733    -699.8625    33735.059    53449.746    50185.344    -2429.914      15.2149      13.1765      28.7324    5760.2466 
  173000      172.988    315.67057     13.17957   -713.02774   -699.84817     34644.36    55170.901    47690.921    1071.2575      15.2149      13.1765      28.7324    5760.2466 
  173500      173.488    302.24173    12.618902   -712.44982   -699.83091    32333.892    48977.559    51426.681   -3402.5633      15.2149      13.1765      28.7324    5760.2466 
  174000      173.988    299.19762    12.491808   -712.30802   -699.81621    31419.516    47550.002    49837.323   -3128.7759      15.2149      13.1765      28.7324    5760.2466 
  174500      174.488    326.04337    13.612646   -713.41545   -699.80281    34182.269    53009.512    51157.051   -1619.7566      15.2149      13.1765      28.7324    5760.2466 
  175000      174.988    313.36218    13.083193   -712.87044   -699.78725    31637.439    48503.724    47600.886   -1192.2928      15.2149      13.1765      28.7324    5760.2466 
  175500      175.488    297.76236    12.431884   -712.20284   -699.77096    33470.625     50809.77    49571.945    30.160133      15.2149      13.1765      28.7324    5760.2466 
  176000      175.988    296.08562    12.361879   -712.11824   -699.75636    33925.513     52061.95    49326.803     387.7872      15.2149      13.1765      28.7324    5760.2466 
  176500      176.488    312.60498    13.051579   -712.79281   -699.74123    33047.096    50320.911    49323.091   -502.71235      15.2149      13.1765      28.7324    5760.2466 
  177000      176.988    323.16794    13.492593   -713.21916   -699.72656    32121.485    49765.854     49286.38   -2687.7796      15.2149      13.1765      28.7324    5760.2466 
  177500      177.488     317.0341    13.236499   -712.94732   -699.71082    31821.893    48360.151     51416.78   -4311.2523      15.2149      13.1765      28.7324    5760.2466 
  178000      177.988    319.23486    13.328383    -713.0239   -699.69552    36020.428    55397.071    51827.352     836.8598      15.2149      13.1765      28.7324    5760.2466 
  178500      178.488    326.04001    13.612505    -713.2943    -699.6818    33186.433    51671.478     49938.47   -2050.6487      15.2149      13.1765      28.7324    5760.2466 
  179000      178.988    320.66062     13.38791   -713.05369   -699.66578    31772.103    49103.244    50994.249   -4781.1846      15.2149      13.1765      28.7324    5760.2466 
  179500      179.488    309.06525    12.903791   -712.55399    -699.6502    33273.413    49424.854    46474.642    3920.7426      15.2149      13.1765      28.7324    5760.2466 
  180000      179.988    317.65833    13.262561   -712.89797   -699.63541    34055.247     52505.53    51947.924    -2287.712      15.2149      13.1765      28.7324    5760.2466 
  180500      180.488    330.29194    13.790028   -713.41068   -699.62066    32357.012    50456.438    47674.228   -1059.6302      15.2149      13.1765      28.7324    5760.2466 
  181000      180.988    298.55777    12.465093   -712.06857   -699.60348    30783.143     49057.35     46005.82   -2713.7415      15.2149      13.1765      28.7324    5760.2466 
  181500      181.488    326.83969    13.645893   -713.23637   -699.59048    34589.476    54697.904    51477.806    -2407.283      15.2149      13.1765      28.7324    5760.2466 
  182000      181.988    337.21017    14.078871    -713.6537   -699.57483    33388.988     53430.39    50229.121    -3492.547      15.2149      13.1765      28.7324    5760.2466 
  182500      182.488     301.2765    12.578603   -712.13719   -699.55859    30364.686    49357.583    48753.446   -7016.9723      15.2149      13.1765      28.7324    5760.2466 
  183000      182.988    306.89763    12.813291   -712.35677   -699.54348    33557.663    52510.817     48921.15   -758.97837      15.2149      13.1765      28.7324    5760.2466 
  183500      183.488    322.82543    13.478293   -713.00813   -699.52983    33410.521    50622.731    50941.188   -1332.3558      15.2149      13.1765      28.7324    5760.2466 
  184000      183.988    322.90546    13.481635   -712.99495   -699.51331     32639.69    49570.373    49667.903   -1319.2071      15.2149      13.1765      28.7324    5760.2466 
  184500      184.488    329.22634    13.745538   -713.24471   -699.49917    31800.074    49911.524    49934.188    -4445.491      15.2149      13.1765      28.7324    5760.2466 
  185000      184.988    328.78842    13.727254   -713.21022   -699.48297    31933.437    49336.708    48349.326   -1885.7238      15.2149      13.1765      28.7324    5760.2466 
  185500      185.488        319.9    13.356153    -712.8235   -699.46735    33515.918    49012.007    53737.804   -2202.0559      15.2149      13.1765      28.7324    5760.2466 
  186000      185.988    310.08101    12.946201    -712.3981    -699.4519    33507.732    51500.267    50861.382   -1838.4517      15.2149      13.1765      28.7324    5760.2466 
  186500      186.488    325.07943      13.5724   -713.00973   -699.43733    32951.807    49142.763     53229.88   -3517.2211      15.2149      13.1765      28.7324    5760.2466 
  187000      186.988    314.30409    13.122518   -712.54324   -699.42072     33304.33    54935.594    50117.038   -5139.6403      15.2149      13.1765      28.7324    5760.2466 
  187500      187.488    307.87186    12.853966   -712.25935   -699.40538    32217.742    51475.481    50113.731   -4935.9874      15.2149      13.1765      28.7324    5760.2466 
  188000      187.988    328.29485    13.706647   -713.09764     -699.391    33888.437    50003.257    50902.595    759.45891      15.2149      13.1765      28.7324    5760.2466 
  188500      188.488    322.77668    13.476258   -712.85085   -699.37459    32792.885    50282.026    49065.012   -968.38235      15.2149      13.1765      28.7324    5760.2466 
  189000      188.988    303.78713    12.683424   -712.04357   -699.36015    32327.436     48490.37    47162.721    1329.2163      15.2149      13.1765      28.7324    5760.2466 
  189500      189.488    314.75806    13.141472   -712.48601   -699.34454    32324.361    47839.007    52773.264   -3639.1881      15.2149      13.1765      28.7324    5760.2466 
  190000      189.988    318.29203    13.289019   -712.61783   -699.32881    31925.155    51659.297    50170.381   -6054.2121      15.2149      13.1765      28.7324    5760.2466 
  190500      190.488    299.35684    12.498455   -711.81119   -699.31273    34792.579    51562.656    52602.122    212.95949      15.2149      13.1765      28.7324    5760.2466 
  191000      190.988    322.38096    13.459736   -712.75892   -699.29919    31579.732      47178.3    49730.952   -2170.0548      15.2149      13.1765      28.7324    5760.2466 
  191500      191.488    321.72025    13.432151   -712.71598   -699.28383    32117.972    51619.552    48338.154   -3603.7903      15.2149      13.1765      28.7324    5760.2466 
  192000      191.988     333.8874    13.940142   -713.20858   -699.26844     34118.16    52129.817     49536.97    687.69173      15.2149      13.1765      28.7324    5760.2466 
  192500      192.488    333.38182    13.919033   -713.17235   -699.25332     34223.46    47780.564    54164.868    724.94801      15.2149      13.1765      28.7324    5760.2466 
  193000      192.988    314.79323    13.142941   -712.38024    -699.2373    34133.804    49536.989    53075.438   -211.01633      15.2149      13.1765      28.7324    5760.2466 
  193500      193.488    325.34582    13.583522   -712.80699   -699.22347    34223.417    52880.992    48883.643    905.61616      15.2149      13.1765      28.7324    5760.2466 
  194000      193.988    317.81164    13.268962   -712.47568   -699.20672    32167.632    48933.337    51388.876   -3819.3162      15.2149      13.1765      28.7324    5760.2466 
  194500      194.488    322.65075       13.471   -712.66269   -699.19169    33547.116    51453.417    50685.442   -1497.5118      15.2149      13.1765      28.7324    5760.2466 
  195000      194.988    333.76987    13.935235   -713.11147   -699.17623    33675.829    54518.946    46320.208    188.33201      15.2149      13.1765      28.7324    5760.2466 
  195500      195.488    327.17033    13.659697   -712.82141   -699.16172    31939.533    49285.615    48541.419    -2008.434      15.2149      13.1765      28.7324    5760.2466 
  196000      195.988    327.21048    13.661374   -712.80716   -699.14579    32876.745    52491.579    52196.897     -6058.24      15.2149      13.1765      28.7324    5760.2466 
  196500      196.488    319.66393    13.346297   -712.47715   -699.13085    32228.547    48615.586    48747.264   -677.20836      15.2149      13.1765      28.7324    5760.2466 
  197000      196.988    334.63153     13.97121   -713.08781    -699.1166    33446.811     50286.26    48491.817    1562.3575      15.2149      13.1765      28.7324    5760.2466 
  197500      197.488    315.74728    13.182773   -712.28202   -699.09925    31871.565    47169.047    48726.536   -280.88748      15.2149      13.1765      28.7324    5760.2466 
  198000      197.988     329.8712    13.772461   -712.85769   -699.08523    33198.945    48251.024    49363.668    1982.1414      15.2149      13.1765      28.7324    5760.2466 
  198500      198.488    327.70848    13.682166    -712.7517   -699.06953    32696.267     48969.61    50409.009   -1289.8178      15.2149      13.1765      28.7324    5760.2466 
  199000      198.988    312.08801    13.029995   -712.08326   -699.05326    31071.449    51021.208    47498.629   -5305.4892      15.2149      13.1765      28.7324    5760.2466 
  199500      199.488    332.43868    13.879656   -712.92012   -699.04046    34470.161    51545.667    53359.868    -1495.052      15.2149      13.1765      28.7324    5760.2466 
  200000      199.988    321.03527    13.403552   -712.42741   -699.02386    32492.225    50896.945    50234.931    -3655.202      15.2149      13.1765      28.7324    5760.2466 
  200500      200.488     309.6816    12.929525   -711.93779   -699.00826    32185.737    50057.959    50813.058   -4313.8061      15.2149      13.1765      28.7324    5760.2466 
  201000      200.988    337.69971     14.09931    -713.0944   -698.99509    30864.834    46361.087     49031.05    -2797.636      15.2149      13.1765      28.7324    5760.2466 
  201500      201.488     320.5562    13.383551    -712.3627   -698.97915    33050.287    52752.678    48873.403    -2475.219      15.2149      13.1765      28.7324    5760.2466 
  202000      201.988    315.21307    13.160469   -712.12309   -698.96262     32268.11    51148.216    49443.677   -3787.5642      15.2149      13.1765      28.7324    5760.2466 
  202500      202.488    320.77796    13.392809   -712.34184   -698.94903    31544.534    49195.196    48838.551   -3400.1435      15.2149      13.1765      28.7324    5760.2466 
  203000      202.988    337.16479    14.076976   -713.01249   -698.93551    35078.548    52900.894    50791.127    1543.6244      15.2149      13.1765      28.7324    5760.2466 
  203500      203.488    321.40764    13.419099   -712.33697   -698.91787     31156.19    49940.566    44890.803   -1362.7995      15.2149      13.1765      28.7324    5760.2466 
  204000      203.988    336.86903    14.064628   -712.96807   -698.90344    32377.605    52549.003    49820.914   -5237.1002      15.2149      13.1765      28.7324    5760.2466 
  204500      204.488    334.67488     13.97302   -712.86015   -698.88713    33824.889    49683.405    52020.359    -229.0985      15.2149      13.1765      28.7324    5760.2466 
  205000      204.988    332.01143    13.861818    -712.7347   -698.87288    32037.571    51510.232      49137.8   -4535.3199      15.2149      13.1765      28.7324    5760.2466 
  205500      205.488    330.14718    13.783984   -712.64038    -698.8564     33587.31    50022.983    52074.477   -1335.5285      15.2149      13.1765      28.7324    5760.2466 
  206000      205.988    312.03326    13.027709   -711.86877   -698.84107    33765.717    48595.358    49452.447    3249.3463      15.2149      13.1765      28.7324    5760.2466 
  206500      206.488     333.9775    13.943903   -712.77045   -698.82654    33458.533    51978.285    53036.895   -4639.5802      15.2149      13.1765      28.7324    5760.2466 
  207000      206.988    311.22309    12.993884   -711.80375   -698.80987    32746.996     47963.18    47635.072    2642.7366      15.2149      13.1765      28.7324    5760.2466 
  207500      207.488    337.90833     14.10802   -712.90463   -698.79661    33475.303    50671.866    52766.342   -3012.2988      15.2149      13.1765      28.7324    5760.2466 
  208000      207.988    344.33587    14.376376    -713.1573   -698.78092     34052.43    51237.772    48131.843    2787.6744      15.2149      13.1765      28.7324    5760.2466 
  208500      208.488     324.2567     13.53805   -712.30222   -698.76417    32249.798     50894.93    49184.733   -3330.2694      15.2149      13.1765      28.7324    5760.2466 
  209000      208.988    345.93073    14.442963   -713.19212   -698.74916    33138.378    49209.012    52678.735    -2472.614      15.2149      13.1765      28.7324    5760.2466 
  209500      209.488    337.61721    14.095865   -712.82993   -698.73407    34115.908    53838.804    51058.074    -2549.152      15.2149      13.1765      28.7324    5760.2466 
  210000      209.988    311.71749    13.014525   -711.73229   -698.71776    34937.595    52073.818    52674.621    64.346208      15.2149      13.1765      28.7324    5760.2466 
  210500      210.488    307.83568    12.852456   -711.55471   -698.70225    32112.568    51213.801    50704.442   -5580.5378      15.2149      13.1765      28.7324    5760.2466 
  211000      210.988    367.44717    15.341297   -714.03047   -698.68917    33941.034    52499.012     53695.18   -4371.0905      15.2149      13.1765      28.7324    5760.2466 
  211500      211.488    328.18793    13.702183   -712.37403   -698.67185    31663.983    47998.357    45723.726    1269.8653      15.2149      13.1765      28.7324    5760.2466 
  212000      211.988    336.12307    14.033483   -712.69029   -698.65681    33704.585    52182.528    51742.003   -2810.7754      15.2149      13.1765      28.7324    5760.2466 
[...]
  948500      948.488    382.34312    15.963218   -708.65131    -692.6881    21857.553    43346.739    44901.135   -22675.214      15.2149      13.1765      28.7324    5760.2466 
  949000      948.988    380.55348    15.888499   -708.57536   -692.68686    22238.204     44503.61    41970.107   -19759.106      15.2149      13.1765      28.7324    5760.2466 
  949500      949.488    363.75954    15.187334   -707.87161   -692.68427    22353.908    44552.461    45713.559   -23204.296      15.2149      13.1765      28.7324    5760.2466 
  950000      949.988    356.40568    14.880303   -707.56271   -692.68241    23575.315    46566.268    43181.408    -19021.73      15.2149      13.1765      28.7324    5760.2466 
  950500      950.488    383.64571    16.017602   -708.69965   -692.68204    22681.929    46789.859    43115.669   -21859.741      15.2149      13.1765      28.7324    5760.2466 
  951000      950.988    364.62291    15.223381   -707.90331   -692.67993    22374.151     44221.19    44658.115   -21756.853      15.2149      13.1765      28.7324    5760.2466 
  951500      951.488    374.28163    15.626642   -708.30506   -692.67842    25910.799    46601.513    45364.513   -14233.627      15.2149      13.1765      28.7324    5760.2466 
  952000      951.988    358.50923    14.968128   -707.64488   -692.67676    22960.069    45846.738    45845.357   -22811.887      15.2149      13.1765      28.7324    5760.2466 
  952500      952.488    373.65215    15.600361   -708.27508   -692.67472    23367.057    46446.004    42461.733   -18806.565      15.2149      13.1765      28.7324    5760.2466 
  953000      952.988    397.55855    16.598478   -709.27196   -692.67348    24250.925    44142.648    45834.855   -17224.728      15.2149      13.1765      28.7324    5760.2466 
  953500      953.488    377.00942     15.74053   -708.41084   -692.67031    23412.624    42523.446    42773.246   -15058.822      15.2149      13.1765      28.7324    5760.2466 
  954000      953.988    382.42603    15.966679   -708.63563   -692.66895    23837.735    44036.849      44784.8   -17308.445      15.2149      13.1765      28.7324    5760.2466 
  954500      954.488    374.08142    15.618283   -708.28538   -692.66709    22620.413    48257.582    40039.398   -20435.741      15.2149      13.1765      28.7324    5760.2466 
  955000      954.988    353.20386    14.746624   -707.41006   -692.66343    23571.589    44432.503    44921.252   -18638.989      15.2149      13.1765      28.7324    5760.2466 
  955500      955.488    400.78947    16.733372   -709.39654   -692.66316    29608.806    49348.801     47240.22   -7762.6018      15.2149      13.1765      28.7324    5760.2466 
  956000      955.988    392.29127    16.378563    -709.0403   -692.66174    28808.419    52467.024    45139.371   -11181.137      15.2149      13.1765      28.7324    5760.2466 
  956500      956.488    377.89669    15.777575   -708.43569   -692.65812     21634.24    41921.788     44841.89   -21860.957      15.2149      13.1765      28.7324    5760.2466 
  957000      956.988    385.01928     16.07495   -708.73163   -692.65668    23560.244     42797.58    46804.076   -18920.924      15.2149      13.1765      28.7324    5760.2466 
  957500      957.488    382.86335    15.984938   -708.63915   -692.65421    27407.123    44823.164    47043.661   -9645.4546      15.2149      13.1765      28.7324    5760.2466 
  958000      957.988    362.78328    15.146575   -707.79802   -692.65145    23048.845    42530.331    46409.891   -19793.685      15.2149      13.1765      28.7324    5760.2466 
  958500      958.488    351.55364    14.677725   -707.32565   -692.64793     24592.65    44986.101     44359.85   -15567.999      15.2149      13.1765      28.7324    5760.2466 
  959000      958.988    382.66906    15.976826   -708.62372   -692.64689    23841.781    43191.517    45076.587   -16742.759      15.2149      13.1765      28.7324    5760.2466 
  959500      959.488    362.49124    15.134382   -707.77908    -692.6447    24899.379    45636.271     49215.79   -20153.924      15.2149      13.1765      28.7324    5760.2466 
  960000      959.988    385.54075    16.096722   -708.73969   -692.64297    25156.452    46398.176    44300.144   -15228.964      15.2149      13.1765      28.7324    5760.2466 
  960500      960.488    348.39164    14.545709   -707.18493   -692.63922    22819.253    46531.248    43689.509   -21762.998      15.2149      13.1765      28.7324    5760.2466 
  961000      960.988    386.25351    16.126481   -708.76444   -692.63796    22466.852    43607.058    44655.605   -20862.107      15.2149      13.1765      28.7324    5760.2466 
  961500      961.488    401.52309    16.764001   -709.40088   -692.63688    22776.254    45654.199    43372.021   -20697.458      15.2149      13.1765      28.7324    5760.2466 
  962000      961.988    368.48467    15.384613   -708.01753   -692.63292     23182.69    44138.181     44384.26   -18974.372      15.2149      13.1765      28.7324    5760.2466 
  962500      962.488    379.50378    15.844672   -708.47513   -692.63046     24371.81    45206.515     50192.46   -22283.545      15.2149      13.1765      28.7324    5760.2466 
  963000      962.988    370.46036      15.4671   -708.09455   -692.62745    22960.167    45172.629    44483.906   -20776.034      15.2149      13.1765      28.7324    5760.2466 
  963500      963.488    378.82811    15.816463   -708.44113   -692.62466    22431.438     46123.59    45486.972   -24316.248      15.2149      13.1765      28.7324    5760.2466 
  964000      963.988    361.18811    15.079974   -707.70161   -692.62164    24897.431    47106.316    47269.183   -19683.207      15.2149      13.1765      28.7324    5760.2466 
  964500      964.488    365.57235    15.263021   -707.88226   -692.61923    23061.481    44627.691    44636.895   -20080.143      15.2149      13.1765      28.7324    5760.2466 
  965000      964.988    389.39387    16.257594   -708.87453   -692.61693    23418.362    41958.386    43568.594   -15271.893      15.2149      13.1765      28.7324    5760.2466 
  965500      965.488    372.79705    15.564659   -708.17959   -692.61493    24264.773    46898.052    47818.483   -21922.215      15.2149      13.1765      28.7324    5760.2466 
  966000      965.988    389.14019    16.247002   -708.85909   -692.61209    26756.946    43421.145    48589.199   -11739.505      15.2149      13.1765      28.7324    5760.2466 
  966500      966.488    390.68329    16.311429    -708.9196   -692.60817    22384.921    45022.301    42114.991   -19982.529      15.2149      13.1765      28.7324    5760.2466 
  967000      966.988    373.07817    15.576397   -708.18122   -692.60482    23111.917    48081.996    41452.498   -20198.743      15.2149      13.1765      28.7324    5760.2466 
  967500      967.488    377.73842    15.770967   -708.37262   -692.60165     23897.87    46524.739    44522.787   -19353.916      15.2149      13.1765      28.7324    5760.2466 
  968000      967.988    385.13182    16.079649   -708.67973   -692.60008    22720.293    46237.304    43522.667   -21599.093      15.2149      13.1765      28.7324    5760.2466 
  968500      968.488    377.20582     15.74873   -708.34479   -692.59606    22579.783    43434.512    47611.792   -23306.955      15.2149      13.1765      28.7324    5760.2466 
  969000      968.988    375.18672    15.664431   -708.25685   -692.59242    24694.577    44308.561    47163.881    -17388.71      15.2149      13.1765      28.7324    5760.2466 
  969500      969.488    380.70148    15.894678   -708.48509   -692.59041    24177.884    44817.089    46193.596   -18477.034      15.2149      13.1765      28.7324    5760.2466 
  970000      969.988    396.65578    16.560786   -709.14777   -692.58698    22127.299    41227.048    44108.556   -18953.708      15.2149      13.1765      28.7324    5760.2466 
  970500      970.488    381.21814    15.916249   -708.49971   -692.58346     20799.81    43794.907    43003.921   -24399.397      15.2149      13.1765      28.7324    5760.2466 
  971000      970.988    375.25103    15.667116    -708.2476   -692.58049    25195.226    46389.502    44835.363   -15639.187      15.2149      13.1765      28.7324    5760.2466 
  971500      971.488     351.6321    14.681001   -707.25681   -692.57581     23980.73    47025.306    40893.549   -15976.666      15.2149      13.1765      28.7324    5760.2466 
  972000      971.988    376.72999    15.728864   -708.30235   -692.57349    23081.418    42803.648    45335.328   -18894.722      15.2149      13.1765      28.7324    5760.2466 
  972500      972.488    360.19875    15.038668   -707.60774   -692.56907    23947.856    47987.749     44141.83    -20286.01      15.2149      13.1765      28.7324    5760.2466 
  973000      972.988    388.69266    16.228318   -708.79566   -692.56734    25004.783    45294.481    46656.174   -16936.304      15.2149      13.1765      28.7324    5760.2466 
  973500      973.488    374.13758    15.620628   -708.18322   -692.56259    25174.681    44052.525    45850.828    -14379.31      15.2149      13.1765      28.7324    5760.2466 
  974000      973.988    358.23637    14.956736   -707.51501   -692.55827    22043.714    43422.118    40653.008   -17943.985      15.2149      13.1765      28.7324    5760.2466 
  974500      974.488    366.74583    15.312015   -707.86775   -692.55573    24086.703    43565.393    46063.436   -17368.719      15.2149      13.1765      28.7324    5760.2466 
  975000      974.988    384.97852    16.073249   -708.62498   -692.55173    25541.654    47392.061    47441.948   -18209.048      15.2149      13.1765      28.7324    5760.2466 
  975500      975.488    377.97113    15.780683   -708.32909   -692.54841    26662.164    47087.087    47673.706   -14774.301      15.2149      13.1765      28.7324    5760.2466 
  976000      975.988    377.58288    15.764473   -708.30919   -692.54472    28438.788     47563.37    47105.268   -9352.2741      15.2149      13.1765      28.7324    5760.2466 
  976500      976.488    384.46398    16.051766   -708.59263   -692.54086    25060.302     45808.86    49008.305   -19636.261      15.2149      13.1765      28.7324    5760.2466 
  977000      976.988    394.66064    16.477487    -709.0146   -692.53712     21881.87     43236.41     44928.43    -22519.23      15.2149      13.1765      28.7324    5760.2466 
  977500      977.488    365.39635    15.255673   -707.78848   -692.53281    23032.015    44576.235    45259.035   -20739.223      15.2149      13.1765      28.7324    5760.2466 
  978000      977.988    363.02032    15.156471   -707.68589   -692.52942    25389.418    42892.269    47604.711   -14328.726      15.2149      13.1765      28.7324    5760.2466 
  978500      978.488    378.17795    15.789318     -708.315   -692.52569     23140.32     47618.89    46255.557   -24453.487      15.2149      13.1765      28.7324    5760.2466 
  979000      978.988    360.35501    15.045192   -707.56586   -692.52066     24103.22    46889.093    46833.071   -21412.503      15.2149      13.1765      28.7324    5760.2466 
  979500      979.488    373.67654    15.601379   -708.11828    -692.5169    26796.299    48254.182    45678.438   -13543.722      15.2149      13.1765      28.7324    5760.2466 
  980000      979.988    372.38905    15.547625   -708.06157   -692.51395    26736.557    48050.214    45570.509   -13411.051      15.2149      13.1765      28.7324    5760.2466 
  980500      980.488    374.47784    15.634834   -708.14595   -692.51112    21249.497    42175.756    43248.813   -21676.077      15.2149      13.1765      28.7324    5760.2466 
  981000      980.988    385.07316      16.0772   -708.58468   -692.50748    22387.265    43343.273    45192.588   -21374.067      15.2149      13.1765      28.7324    5760.2466 
  981500      981.488    395.50709    16.512827   -709.01502   -692.50219    25337.213    44159.777    46014.767   -14162.905      15.2149      13.1765      28.7324    5760.2466 
  982000      981.988    363.47366    15.175399   -707.67257   -692.49717    29859.535     51323.34    44893.668   -6638.4026      15.2149      13.1765      28.7324    5760.2466 
  982500      982.488    387.18441    16.165347   -708.65926   -692.49391    24504.302    45611.158    46335.709   -18433.961      15.2149      13.1765      28.7324    5760.2466 
  983000      982.988    366.16196    15.287638   -707.77685   -692.48921    25233.421    45339.077    45238.202   -14877.015      15.2149      13.1765      28.7324    5760.2466 
  983500      983.488    380.23347    15.875138   -708.36078   -692.48565    23386.486    46127.262    45296.526   -21264.331      15.2149      13.1765      28.7324    5760.2466 
  984000      983.988    369.47982    15.426162   -707.90703   -692.48087    25215.879    45790.764    44750.507   -14893.636      15.2149      13.1765      28.7324    5760.2466 
  984500      984.488    360.22299     15.03968   -707.51655   -692.47687    24102.225    43438.231     46637.86   -17769.416      15.2149      13.1765      28.7324    5760.2466 
  985000      984.988    383.40393    16.007508   -708.48072   -692.47321    23457.318    48143.925    44090.196   -21862.168      15.2149      13.1765      28.7324    5760.2466 
  985500      985.488    376.18692     15.70619   -708.17542   -692.46923    22791.055    43274.865    47108.383   -22010.083      15.2149      13.1765      28.7324    5760.2466 
  986000      985.988    366.64955    15.307995   -707.77193   -692.46393    21506.959    45955.545    42222.079   -23656.746      15.2149      13.1765      28.7324    5760.2466 
  986500      986.488    368.03229    15.365726   -707.82473     -692.459     25652.92    43589.084    45538.236    -12168.56      15.2149      13.1765      28.7324    5760.2466 
  987000      986.988    365.42359     15.25681   -707.71117   -692.45436    22227.387    45366.659    41279.701     -19964.2      15.2149      13.1765      28.7324    5760.2466 
  987500      987.488    384.57133    16.056248   -708.50855    -692.4523    22916.792    43981.724    44333.209   -19564.557      15.2149      13.1765      28.7324    5760.2466 
  988000      987.988    370.58477    15.472295   -707.91849    -692.4462    24247.238    51312.958    40091.356   -18662.599      15.2149      13.1765      28.7324    5760.2466 
  988500      988.488    360.91886    15.068733   -707.51045   -692.44172    22390.535    44047.917    45544.821   -22421.134      15.2149      13.1765      28.7324    5760.2466 
  989000      988.988    364.92029    15.235797   -707.67231   -692.43652    20315.431    42346.477     41950.95   -23351.135      15.2149      13.1765      28.7324    5760.2466 
  989500      989.488    375.20742    15.665295   -708.09767   -692.43238    23312.928    46233.346    41438.921   -17733.484      15.2149      13.1765      28.7324    5760.2466 
  990000      989.988    389.51493    16.262648   -708.69198   -692.42933    23568.937    43922.885    45913.118   -19129.191      15.2149      13.1765      28.7324    5760.2466 
  990500      990.488    360.63088     15.05671   -707.48004   -692.42333    24388.996    45185.174      48090.5   -20108.687      15.2149      13.1765      28.7324    5760.2466 
  991000      990.988    381.06602    15.909898   -708.32915   -692.41926    22815.556     44120.51    45259.517   -20933.359      15.2149      13.1765      28.7324    5760.2466 
  991500      991.488    385.35389    16.088921   -708.50376   -692.41484    22586.395    42010.239    43942.106   -18193.158      15.2149      13.1765      28.7324    5760.2466 
  992000      991.988    371.58385    15.514007   -707.92429   -692.41029    24372.638     44059.77    46961.737   -17903.591      15.2149      13.1765      28.7324    5760.2466 
  992500      992.488    394.38257    16.465877   -708.87203   -692.40615    25233.337    44863.779    45516.622    -14680.39      15.2149      13.1765      28.7324    5760.2466 
  993000      992.988    375.57029    15.680445   -708.08026   -692.39982    26380.993    46043.836    45447.422   -12348.279      15.2149      13.1765      28.7324    5760.2466 
  993500      993.488    377.20882    15.748856   -708.14412   -692.39526    21961.192    42666.597    46370.058   -23153.078      15.2149      13.1765      28.7324    5760.2466 
  994000      993.988    387.66844    16.185556   -708.57743   -692.39187    23318.799    46105.028    40779.961   -16928.591      15.2149      13.1765      28.7324    5760.2466 
  994500      994.488     373.6597    15.600676   -707.98539   -692.38471    22391.594    45464.321    43991.304   -22280.844      15.2149      13.1765      28.7324    5760.2466 
  995000      994.988    387.74092    16.188581   -708.56949   -692.38091    23591.098    45772.918    44908.918    -19908.54      15.2149      13.1765      28.7324    5760.2466 
  995500      995.488    395.74397    16.522717   -708.89973   -692.37701    25821.767    46787.577    48962.362   -18284.637      15.2149      13.1765      28.7324    5760.2466 
  996000      995.988    388.30239    16.212024   -708.58274   -692.37071    27561.844    46877.987    45960.799   -10153.254      15.2149      13.1765      28.7324    5760.2466 
  996500      996.488    361.96321    15.112336   -707.47691   -692.36457    25295.898    44517.216    46942.226   -15571.749      15.2149      13.1765      28.7324    5760.2466 
  997000      996.988    350.43465    14.631006   -706.99084   -692.35984    25287.855    47713.769    45038.641   -16888.846      15.2149      13.1765      28.7324    5760.2466 
  997500      997.488    380.89671    15.902829   -708.25911   -692.35628    24716.261    46087.578    44965.437   -16904.232      15.2149      13.1765      28.7324    5760.2466 
  998000      997.988    394.16891    16.456957   -708.80856    -692.3516    27411.341    45369.423    46908.885   -10044.284      15.2149      13.1765      28.7324    5760.2466 
  998500      998.488    386.25272    16.126448   -708.47229   -692.34585    27931.612    47728.545    46704.516   -10638.224      15.2149      13.1765      28.7324    5760.2466 
  999000      998.988    390.86365    16.318959    -708.6591   -692.34014    24176.997    45178.716    48381.087   -21028.812      15.2149      13.1765      28.7324    5760.2466 
  999500      999.488    369.62497    15.432222   -707.76698   -692.33476    22052.401    46600.384     44203.72   -24646.901      15.2149      13.1765      28.7324    5760.2466 
 1000000      999.988     386.6532    16.143168   -708.47319   -692.33002    23656.351    45349.814    47036.275   -21417.036      15.2149      13.1765      28.7324    5760.2466 
 1000012         1000    362.54273    15.136531   -707.46558   -692.32905    23950.683    45642.666    48163.926   -21954.543      15.2149      13.1765      28.7324    5760.2466 
Loop time of 987.062 on 28 procs for 1000000 steps with 324 atoms

Performance: 87.532 ns/day, 0.274 hours/ns, 1013.107 timesteps/s
89.3% CPU use with 28 MPI tasks x no OpenMP threads

MPI task timing breakdown:
Section |  min time  |  avg time  |  max time  |%varavg| %total
---------------------------------------------------------------
Pair    | 761.22     | 838.67     | 927.07     | 125.9 | 84.97
Neigh   | 0          | 0          | 0          |   0.0 |  0.00
Comm    | 49.614     | 133.47     | 212.64     | 318.6 | 13.52
Output  | 0.097927   | 0.10037    | 0.11565    |   1.0 |  0.01
Modify  | 4.3405     | 9.7624     | 32.817     | 299.0 |  0.99
Other   |            | 5.056      |            |       |  0.51

Nlocal:    11.5714 ave 16 max 6 min
Histogram: 2 1 3 2 1 1 5 5 4 4
Nghost:    644.929 ave 709 max 600 min
Histogram: 5 1 7 3 2 2 2 2 2 2
Neighs:    728.607 ave 1060 max 391 min
Histogram: 3 3 2 1 1 7 3 5 2 1
FullNghs:  1457.21 ave 2055 max 758 min
Histogram: 2 1 5 1 0 4 7 3 4 1

Total # of neighbors = 40802
Ave neighs/atom = 125.932
Neighbor list builds = 0
Dangerous builds = 0

write_restart   POSCAR_1x1x1.rest

#unfix    1
#undump   1
Total wall time: 0:16:27
