LAMMPS (7 Dec 2015)
#----------- Initialize Simulation ------------ restart01
#processors	2 2 2
units		metal
boundary	p p p     ## periodic boundary condition  on x y z axis ##
atom_style atomic
#atom_modify map array sort 0 0.0

read_data	POSCAR_1x1x1.lammps
  triclinic box = (0 0 0) to (15.2149 13.1765 28.7324) with tilt (-7.60743 0 0)
  2 by 2 by 7 MPI processor grid
  reading atoms ...
  324 atoms

#----------- Define Potential -----------------
pair_style meam
pair_coeff * * MgAlZn.library.meam Mg Al Zn MgAlZn.parameter.meam Mg Al Zn 	#1=Mg 2=Al 3=Zn	#atoms/mass

#----------- Neighbor List --------------------
neighbor 2.0 bin
neigh_modify delay 10 check yes

#--------------  Run a simulation (minimization) ---------------------------------------
minimize       1.0e-4   1.0e-6   100   1000          #結構優化的條件
WARNING: Resetting reneighboring criteria during minimization (../min.cpp:168)
Neighbor list info ...
  2 neighbor list requests
  update every 1 steps, delay 0 steps, check yes
  max neighbors/atom: 2000, page size: 100000
  master list distance cutoff = 8
  ghost atom cutoff = 8
  binsize = 4 -> bins = 6 4 8
Memory usage per processor = 8.6505 Mbytes
Step Temp E_pair E_mol TotEng Press 
       0            0   -721.99305            0   -721.99305    20978.685 
      12            0   -737.39592            0   -737.39592    15870.441 
Loop time of 0.0215502 on 28 procs for 12 steps with 324 atoms

93.5% CPU use with 28 MPI tasks x no OpenMP threads

Minimization stats:
  Stopping criterion = energy tolerance
  Energy initial, next-to-last, final = 
        -721.993052251     -737.332517544     -737.395918046
  Force two-norm initial, final = 21.9047 1.32255
  Force max component initial, final = 2.66832 0.533554
  Final line search alpha, max atom move = 0.405314 0.216257
  Iterations, force evaluations = 12 21

MPI task timing breakdown:
Section |  min time  |  avg time  |  max time  |%varavg| %total
---------------------------------------------------------------
Pair    | 0.016683   | 0.018082   | 0.019613   |   0.5 | 83.91
Neigh   | 0          | 0          | 0          |   0.0 |  0.00
Comm    | 0.0011588  | 0.0026376  | 0.0040605  |   1.3 | 12.24
Output  | 0          | 0          | 0          |   0.0 |  0.00
Modify  | 0          | 0          | 0          |   0.0 |  0.00
Other   |            | 0.0008302  |            |       |  3.85

Nlocal:    11.5714 ave 15 max 6 min
Histogram: 1 2 2 1 1 6 3 5 3 4
Nghost:    647.107 ave 706 max 602 min
Histogram: 5 1 7 2 3 2 0 4 0 4
Neighs:    723.25 ave 967 max 376 min
Histogram: 2 1 2 1 4 4 2 6 2 4
FullNghs:  1446.5 ave 1898 max 755 min
Histogram: 1 2 2 1 1 6 3 5 3 4

Total # of neighbors = 40502
Ave neighs/atom = 125.006
Neighbor list builds = 0
Dangerous builds = 0
velocity all  create 393.0 4928459 #rot yes dist gaussian

#--------------  Run a simulation (Relaxation)  ----------------------------------------
fix  1  all  nvt   temp  393.0  393.0  100				#damping constant
#fix  2  all  npt   temp  393.0  393.0  50 iso 0.0 0.0 1000.0
#fix  2  all deform 1 x final 0 15.6906 y final 0 13.5884 z final 0 25.2339 xy final -7.8452 units lattice
#fix  3  all  npt   temp  393.0  393.0  50 z 0.0 0.0 1000.0

#variable b equal 1
#fix 2 all efield  0.0  0.0  v_b
#compute pot all pe/atom


#----------- Output --------------------------
thermo	 500
timestep  0.001		#1.0 fs
thermo_style	custom step time temp ke pe etotal press pxx pyy pzz lx ly lz vol

dump 1 all custom 10000 dump.eq id type x y z
dump_modify 1 sort  id

run        1000000	#10000	 ps
Neighbor list info ...
  2 neighbor list requests
  update every 1 steps, delay 10 steps, check yes
  max neighbors/atom: 2000, page size: 100000
  master list distance cutoff = 8
  ghost atom cutoff = 8
  binsize = 4 -> bins = 6 4 8
Memory usage per processor = 7.54097 Mbytes
Step Time Temp KinEng PotEng TotEng Press Pxx Pyy Pzz Lx Ly Lz Volume 
      12            0          393    16.408154   -737.39592   -720.98776    18912.991    39214.076    37477.775   -19952.879      15.2149      13.1765      28.7324    5760.2466 
     500        0.488    217.29693    9.0723701   -730.05644   -720.98407    21642.665    43086.043    40285.426   -18443.474      15.2149      13.1765      28.7324    5760.2466 
    1000        0.988      259.019    10.814309   -731.79944   -720.98513    29505.757    46841.733      46100.3   -4424.7613      15.2149      13.1765      28.7324    5760.2466 
    1500        1.488    244.83466    10.222098    -731.2061     -720.984    31044.272    47006.182     47875.83   -1749.1962      15.2149      13.1765      28.7324    5760.2466 
    2000        1.988    261.37534    10.912689   -731.89658   -720.98389    33960.767    49641.171    51477.446    763.68588      15.2149      13.1765      28.7324    5760.2466 
    2500        2.488    268.79088    11.222295   -732.20569   -720.98339    32472.531    48652.496    46844.888    1920.2081      15.2149      13.1765      28.7324    5760.2466 
    3000        2.988    257.10888     10.73456   -731.71679   -720.98223    32263.073    48172.953    49345.991   -729.72316      15.2149      13.1765      28.7324    5760.2466 
    3500        3.488    251.51702    10.501094    -731.4812   -720.98011    33045.722    49617.308    46135.814    3384.0441      15.2149      13.1765      28.7324    5760.2466 
    4000        3.988    262.69978    10.967986   -731.94769   -720.97971    35222.602    51824.755    50522.123    3320.9269      15.2149      13.1765      28.7324    5760.2466 
    4500        4.488    255.19303    10.654571   -731.63094   -720.97637    34668.379     49537.82    48950.547    5516.7694      15.2149      13.1765      28.7324    5760.2466 
    5000        4.988    266.47151    11.125459   -732.10151   -720.97605    33020.189     47576.48     49056.42    2427.6685      15.2149      13.1765      28.7324    5760.2466 
    5500        5.488    251.51194    10.500882   -731.47381   -720.97293    31953.068    48825.635    49035.828   -2002.2573      15.2149      13.1765      28.7324    5760.2466 
    6000        5.988    247.56741    10.336194   -731.30668   -720.97048    32814.448    51918.645    48235.997   -1711.2986      15.2149      13.1765      28.7324    5760.2466 
    6500        6.488     281.7157     11.76192   -732.73166   -720.96974    33659.014    52248.385    46897.734    1830.9219      15.2149      13.1765      28.7324    5760.2466 
    7000        6.988    266.50125    11.126701   -732.09289   -720.96619    33555.067    47482.376    48434.774     4748.052      15.2149      13.1765      28.7324    5760.2466 
    7500        7.488    257.84571    10.765323   -731.72879   -720.96346    34210.835     50422.59    50368.427    1841.4886      15.2149      13.1765      28.7324    5760.2466 
    8000        7.988    264.04277    11.024057   -731.98509   -720.96103    34490.307     48730.48    50753.607    3986.8357      15.2149      13.1765      28.7324    5760.2466 
    8500        8.488    253.50134    10.583941   -731.54106   -720.95712    34457.076    51519.764    49479.629    2371.8362      15.2149      13.1765      28.7324    5760.2466 
    9000        8.988    252.32884    10.534988   -731.48782   -720.95283    32718.097     50358.45    47371.224    424.61663      15.2149      13.1765      28.7324    5760.2466 
    9500        9.488    265.01184    11.064516   -732.01471    -720.9502    32979.837    49758.548    46820.853    2360.1106      15.2149      13.1765      28.7324    5760.2466 
   10000        9.988    252.52161    10.543036   -731.48893    -720.9459    33403.544    48141.281    50130.632    1938.7193      15.2149      13.1765      28.7324    5760.2466 
   10500       10.488    261.51251    10.918416   -731.86187   -720.94345    34309.695    51378.925    48996.511    2553.6481      15.2149      13.1765      28.7324    5760.2466 
   11000       10.988    273.87773    11.434676   -732.37441   -720.93973    33544.237    49272.335    47580.534    3779.8413      15.2149      13.1765      28.7324    5760.2466 
   11500       11.488    252.68021    10.549658   -731.48395   -720.93429    33849.084    51313.511    48504.279     1729.462      15.2149      13.1765      28.7324    5760.2466 
   12000       11.988    260.62871    10.881516   -731.81098   -720.92946    33123.815    49845.938    48491.895    1033.6111      15.2149      13.1765      28.7324    5760.2466 
   12500       12.488     260.2916    10.867441   -731.79238   -720.92494    33171.596    51930.642    44685.163    2898.9825      15.2149      13.1765      28.7324    5760.2466 
   13000       12.988     256.3075    10.701101    -731.6213    -720.9202    33496.779    50107.932    46638.294     3744.111      15.2149      13.1765      28.7324    5760.2466 
   13500       13.488    265.67013    11.092001    -732.0075    -720.9155    33705.614    51544.903    47607.494    1964.4458      15.2149      13.1765      28.7324    5760.2466 
   14000       13.988    256.20233     10.69671   -731.60657   -720.90986    33557.662    52153.463    45632.276    2887.2461      15.2149      13.1765      28.7324    5760.2466 
   14500       14.488     261.1068    10.901477   -731.80656   -720.90508    32981.032    49070.464    47909.024    1963.6092      15.2149      13.1765      28.7324    5760.2466 
   15000       14.988    261.90049    10.934614   -731.83386   -720.89924    33262.348    51350.122    49787.395   -1350.4732      15.2149      13.1765      28.7324    5760.2466 
   15500       15.488    256.66686    10.716105   -731.60914   -720.89303    31893.592    48031.187    48079.249   -429.66084      15.2149      13.1765      28.7324    5760.2466 
   16000       15.988    255.23406    10.656284   -731.54411   -720.88782    32709.774    48596.911    46726.931    2805.4819      15.2149      13.1765      28.7324    5760.2466 
   16500       16.488    254.58529    10.629197   -731.51054   -720.88134    33164.136    49794.876     49222.31    475.22112      15.2149      13.1765      28.7324    5760.2466 
   17000       16.988    263.54379    11.003224   -731.87852   -720.87529    33263.199    49177.461    48000.149    2611.9868      15.2149      13.1765      28.7324    5760.2466 
   17500       17.488    262.93228    10.977693   -731.84679    -720.8691    34141.269    49514.822    47951.432    4957.5545      15.2149      13.1765      28.7324    5760.2466 
   18000       17.988    260.55854    10.878586   -731.74141   -720.86282      32122.6    48461.038    45929.696    1977.0677      15.2149      13.1765      28.7324    5760.2466 
   18500       18.488    254.33142    10.618598   -731.47353   -720.85493    31767.145     49542.42    47047.018   -1288.0014      15.2149      13.1765      28.7324    5760.2466 
   19000       18.988    263.09366     10.98443   -731.83241   -720.84798     34722.65    50858.646    52007.555    1301.7495      15.2149      13.1765      28.7324    5760.2466 
   19500       19.488    270.14385    11.278783   -732.12033   -720.84155    34112.742    50999.459    51216.717    122.05067      15.2149      13.1765      28.7324    5760.2466 
   20000       19.988    251.13994     10.48535   -731.31882   -720.83347    32790.938    47879.351    47225.956     3267.507      15.2149      13.1765      28.7324    5760.2466 
   20500       20.488    261.22715    10.906502   -731.73346   -720.82696    34651.022    48774.821    52502.055    2676.1908      15.2149      13.1765      28.7324    5760.2466 
   21000       20.988    256.23395     10.69803    -731.5171   -720.81907    33723.279    50752.816    49418.167    998.85283      15.2149      13.1765      28.7324    5760.2466 
   21500       21.488    261.98839    10.938284   -731.74909    -720.8108    32825.144    49894.347    46978.176    1602.9084      15.2149      13.1765      28.7324    5760.2466 
   22000       21.988    268.70702    11.218794   -732.02129    -720.8025     33010.99    49797.274    50792.226   -1556.5307      15.2149      13.1765      28.7324    5760.2466 
   22500       22.488    258.38878    10.787997   -731.58282   -720.79483    34791.815    51909.977    50605.297    1860.1706      15.2149      13.1765      28.7324    5760.2466 
   23000       22.988    262.02493     10.93981   -731.72698   -720.78717    35104.744    51907.372    46748.543    6658.3156      15.2149      13.1765      28.7324    5760.2466 
   23500       23.488    269.03527    11.232499   -732.00989   -720.77739    33622.585    49305.356    48849.964    2712.4348      15.2149      13.1765      28.7324    5760.2466 
   24000       23.988    267.98271    11.188553   -731.95699   -720.76844    32772.528    50556.751    48819.372   -1058.5393      15.2149      13.1765      28.7324    5760.2466 
   24500       24.488    265.42262    11.081667   -731.84107    -720.7594    32982.555    48233.563    49072.742    1641.3611      15.2149      13.1765      28.7324    5760.2466 
   25000       24.988    261.72358    10.927228    -731.6775   -720.75027    34023.869    49124.739    49380.974     3565.893      15.2149      13.1765      28.7324    5760.2466 
   25500       25.488    265.47254    11.083751   -731.82507   -720.74132    33710.428    48520.818    53224.242   -613.77519      15.2149      13.1765      28.7324    5760.2466 
   26000       25.988    264.39055    11.038577   -731.76961   -720.73103    32218.354     46953.15    46730.704    2971.2075      15.2149      13.1765      28.7324    5760.2466 
   26500       26.488    268.08242    11.192716    -731.9144   -720.72168    34304.139    50462.783    51207.805      1241.83      15.2149      13.1765      28.7324    5760.2466 
   27000       26.988    249.69306    10.424942   -731.13587   -720.71093    32502.808     49297.51    50055.636   -1844.7235      15.2149      13.1765      28.7324    5760.2466 
   27500       27.488    248.65955    10.381792   -731.08334   -720.70155    33705.863    48684.281     50808.77    1624.5376      15.2149      13.1765      28.7324    5760.2466 
   28000       27.988    263.66914    11.008457   -731.70036   -720.69191    32463.903     47603.49    47184.016    2604.2035      15.2149      13.1765      28.7324    5760.2466 
   28500       28.488    266.22922    11.115343   -731.79698   -720.68164    33403.672     50593.19    47450.833    2166.9927      15.2149      13.1765      28.7324    5760.2466 
   29000       28.988    268.22002    11.198461    -731.8695   -720.67104    33045.748    49783.024    48502.199    852.02196      15.2149      13.1765      28.7324    5760.2466 
   29500       29.488    260.42666     10.87308     -731.533   -720.65992    35399.145    52191.425    50229.469    3776.5397      15.2149      13.1765      28.7324    5760.2466 
   30000       29.988    272.52623     11.37825   -732.02823   -720.64998    35050.267    51802.482    51912.973    1435.3455      15.2149      13.1765      28.7324    5760.2466 
   30500       30.488    263.31682    10.993747   -731.63224   -720.63849    32860.838    50214.758    49541.011    -1173.256      15.2149      13.1765      28.7324    5760.2466 
   31000       30.988    251.66469    10.507259   -731.13502   -720.62776     33192.27    51654.113    47264.637    658.05938      15.2149      13.1765      28.7324    5760.2466 
   31500       31.488    255.89963    10.684072    -731.3003   -720.61623     34432.25    51964.268    47934.193    3398.2893      15.2149      13.1765      28.7324    5760.2466 
   32000       31.988    268.53321    11.211537   -731.81657   -720.60504    32378.625    47239.322     48760.78    1135.7729      15.2149      13.1765      28.7324    5760.2466 
   32500       32.488    267.57398    11.171489   -731.76518   -720.59369    34000.148    50649.048    50271.552    1079.8435      15.2149      13.1765      28.7324    5760.2466 
   33000       32.988    256.04427    10.690111   -731.27184   -720.58172    34097.765    49827.283    48599.231    3866.7811      15.2149      13.1765      28.7324    5760.2466 
   33500       33.488    270.55251    11.295845   -731.86624   -720.57039    34265.737    49432.436    50693.758    2671.0175      15.2149      13.1765      28.7324    5760.2466 
   34000       33.988    259.31176    10.826532   -731.38449   -720.55796    34282.248    48775.559    51260.494    2810.6918      15.2149      13.1765      28.7324    5760.2466 
   34500       34.488    267.30683    11.160335   -731.70683   -720.54649    35512.405    53166.709    48347.101    5023.4056      15.2149      13.1765      28.7324    5760.2466 
   35000       34.988    266.62042    11.131676   -731.66548    -720.5338    33511.449    50951.887    49645.904   -63.445302      15.2149      13.1765      28.7324    5760.2466 
   35500       35.488    272.89168    11.393508   -731.91517   -720.52166    34285.722    53383.228    47788.128    1685.8117      15.2149      13.1765      28.7324    5760.2466 
   36000       35.988    251.11813     10.48444   -730.99317   -720.50873    33523.035    52378.882    48690.278   -500.05519      15.2149      13.1765      28.7324    5760.2466 
   36500       36.488    252.67536    10.549456   -731.04602   -720.49656    30590.807    49517.651    44502.987   -2248.2174      15.2149      13.1765      28.7324    5760.2466 
   37000       36.988    277.41033    11.582166   -732.06727   -720.48511    33989.139    50018.662    48696.802    3251.9529      15.2149      13.1765      28.7324    5760.2466 
   37500       37.488    271.02771    11.315685   -731.78864   -720.47296    34698.345    51542.825    49787.301     2764.909      15.2149      13.1765      28.7324    5760.2466 
   38000       37.988    266.31318    11.118849   -731.57855    -720.4597    33269.626     47799.52    49757.106    2252.2529      15.2149      13.1765      28.7324    5760.2466 
   38500       38.488    260.86124    10.891225   -731.33782   -720.44659    32877.086    49893.414     49955.04   -1217.1944      15.2149      13.1765      28.7324    5760.2466 
   39000       38.988    275.45477    11.500519    -731.9342   -720.43368    33775.901    49588.252    50456.851    1282.5994      15.2149      13.1765      28.7324    5760.2466 
   39500       39.488    268.47212    11.208987   -731.63005   -720.42107    33699.417    48557.546    45874.088    6666.6187      15.2149      13.1765      28.7324    5760.2466 
   40000       39.988     273.0906    11.401813   -731.80967   -720.40785    34547.181    52692.181     47737.49    3211.8713      15.2149      13.1765      28.7324    5760.2466 
   40500       40.488    266.02223    11.106701   -731.50155   -720.39484    32002.322    46993.083    48043.333    970.54948      15.2149      13.1765      28.7324    5760.2466 
   41000       40.988    264.84701    11.057635   -731.43852   -720.38088    33875.151    48065.937    50177.538    3381.9798      15.2149      13.1765      28.7324    5760.2466 
   41500       41.488    263.48449    11.000748   -731.36768   -720.36693    33901.863    51429.051    49624.765    651.77214      15.2149      13.1765      28.7324    5760.2466 
   42000       41.988    256.39876    10.704911   -731.05887   -720.35396    34123.799    49702.135    49126.726    3542.5353      15.2149      13.1765      28.7324    5760.2466 
   42500       42.488    265.02232    11.064954   -731.40615    -720.3412    31658.914    48339.686     46455.04    182.01698      15.2149      13.1765      28.7324    5760.2466 
   43000       42.988    290.14315    12.113775   -732.44221   -720.32843    33723.336    50049.909    47391.123    3728.9744      15.2149      13.1765      28.7324    5760.2466 
   43500       43.488     254.4217    10.622367   -730.93659   -720.31423    32447.574    47799.081    47880.699    1662.9421      15.2149      13.1765      28.7324    5760.2466 
   44000       43.988    265.12259     11.06914   -731.37017   -720.30103    32852.454    48134.358    48991.646    1431.3571      15.2149      13.1765      28.7324    5760.2466 
   44500       44.488    294.69241    12.303711   -732.59219   -720.28848    35086.922    51430.011    50112.546    3718.2074      15.2149      13.1765      28.7324    5760.2466 
   45000       44.988    257.87764    10.766656   -731.03994   -720.27329     32628.91     47058.34    49206.201    1622.1888      15.2149      13.1765      28.7324    5760.2466 
   45500       45.488    266.10265    11.110059   -731.37078   -720.26072    34050.896    50525.304    48220.155    3407.2296      15.2149      13.1765      28.7324    5760.2466 
   46000       45.988     284.3909    11.873612   -732.12146   -720.24784    34264.039    48714.632    51660.169     2417.315      15.2149      13.1765      28.7324    5760.2466 
   46500       46.488    260.15039    10.861546   -731.09463   -720.23309     33418.83    49837.477    51665.787    -1246.774      15.2149      13.1765      28.7324    5760.2466 
   47000       46.988    255.94249    10.685862   -730.90583   -720.21996    32947.055    49500.471     50827.18   -1486.4846      15.2149      13.1765      28.7324    5760.2466 
   47500       47.488    266.91086    11.143803   -731.35006   -720.20626     33336.55    48977.727    49070.491    1961.4317      15.2149      13.1765      28.7324    5760.2466 
   48000       47.988    255.73074    10.677021   -730.86961   -720.19259    34196.052    49670.573     48981.75    3935.8342      15.2149      13.1765      28.7324    5760.2466 
   48500       48.488    271.26459    11.325575   -731.50472   -720.17915    33524.905    51267.318    47554.559    1752.8371      15.2149      13.1765      28.7324    5760.2466 
   49000       48.988    277.24421     11.57523   -731.74202   -720.16679     33004.66    49467.119    46702.215     2844.646      15.2149      13.1765      28.7324    5760.2466 
   49500       49.488    256.14207    10.694195   -730.84636   -720.15216    33002.438    49749.612    46978.063    2279.6405      15.2149      13.1765      28.7324    5760.2466 
   50000       49.988    270.21173    11.281617   -731.42029   -720.13867    34748.532    52844.469    48820.631    2580.4969      15.2149      13.1765      28.7324    5760.2466 
   50500       50.488    281.61141    11.757566    -731.8833   -720.12573    32659.436    50952.737    44909.455    2116.1163      15.2149      13.1765      28.7324    5760.2466 
   51000       50.988    260.06445    10.857958   -730.96945   -720.11149    32683.544     52150.56    47759.693   -1859.6201      15.2149      13.1765      28.7324    5760.2466 
   51500       51.488    278.38758    11.622967     -731.722   -720.09903     35285.54    51459.716    50435.929    3960.9746      15.2149      13.1765      28.7324    5760.2466 
   52000       51.988    255.76261    10.678352   -730.76383   -720.08548    30099.804    47602.883    47089.325   -4392.7973      15.2149      13.1765      28.7324    5760.2466 
   52500       52.488    267.98904    11.188818   -731.26034   -720.07152    34427.822    51658.244    48942.342    2682.8804      15.2149      13.1765      28.7324    5760.2466 
   53000       52.988    265.03484    11.065477   -731.12451   -720.05904    34872.744    52549.079    47631.579    4437.5745      15.2149      13.1765      28.7324    5760.2466 
   53500       53.488    258.90023     10.80935   -730.85438   -720.04503    31891.556    49807.597    47896.127   -2029.0569      15.2149      13.1765      28.7324    5760.2466 
   54000       53.988    280.56138    11.713726    -731.7469   -720.03318    34636.598     51909.24      49868.8    2131.7547      15.2149      13.1765      28.7324    5760.2466 
   54500       54.488    273.21654    11.407071   -731.42576   -720.01869    34374.475    51109.838    48341.929    3671.6578      15.2149      13.1765      28.7324    5760.2466 
   55000       54.988      276.244    11.533471    -731.5394   -720.00593    34813.189    51249.912    51040.319    2149.3361      15.2149      13.1765      28.7324    5760.2466 
   55500       55.488    260.31041    10.868227    -730.8606   -719.99237    33416.028    48567.363    50333.646    1347.0761      15.2149      13.1765      28.7324    5760.2466 
   56000       55.988    284.33355    11.871218   -731.85079   -719.97958    32460.266    48157.377    47158.111     2065.311      15.2149      13.1765      28.7324    5760.2466 
   56500       56.488    268.03973    11.190934   -731.15664    -719.9657    34704.729    51389.841    52367.808    356.53721      15.2149      13.1765      28.7324    5760.2466 
   57000       56.988    270.39972    11.289466   -731.24359   -719.95412    34393.268    51000.783    50327.291     1851.729      15.2149      13.1765      28.7324    5760.2466 
   57500       57.488    284.10462    11.861659   -731.80241   -719.94075    32303.069    48561.302    48196.292    151.61271      15.2149      13.1765      28.7324    5760.2466 
   58000       57.988    264.06041    11.024793   -730.95295   -719.92815    31896.676    49067.095    48688.787   -2065.8547      15.2149      13.1765      28.7324    5760.2466 
   58500       58.488    277.38397    11.581066   -731.49643   -719.91537    33767.792    47907.488    48753.202    4642.6852      15.2149      13.1765      28.7324    5760.2466 
   59000       58.988    279.43935     11.66688   -731.56992   -719.90304    33511.142    50052.982    48496.133    1984.3118      15.2149      13.1765      28.7324    5760.2466 
   59500       59.488    273.61964    11.423901   -731.31418   -719.89028     33828.88    51913.747    49407.541    165.35233      15.2149      13.1765      28.7324    5760.2466 
   60000       59.988    279.22816    11.658062   -731.53652   -719.87846    32069.684    50552.965      46945.7   -1289.6134      15.2149      13.1765      28.7324    5760.2466 
   60500       60.488    262.32107    10.952174   -730.81747   -719.86529    34115.797    50371.813    49511.871    2463.7054      15.2149      13.1765      28.7324    5760.2466 
   61000       60.988    269.49053    11.251507   -731.10453   -719.85302    33413.654    47821.334    48736.543     3683.085      15.2149      13.1765      28.7324    5760.2466 
   61500       61.488    269.63637    11.257595   -731.09768   -719.84008    31480.957    48813.633    45577.387    51.851414      15.2149      13.1765      28.7324    5760.2466 
   62000       61.988    272.39802    11.372897    -731.2013    -719.8284    32924.342    48454.515    49497.304    821.20509      15.2149      13.1765      28.7324    5760.2466 
   62500       62.488    265.63707    11.090621   -730.90702    -719.8164    32214.122     47755.03    45988.755    2898.5821      15.2149      13.1765      28.7324    5760.2466 
   63000       62.988    264.10549    11.026675    -730.8306   -719.80392     33413.28    49224.634    49873.765    1141.4418      15.2149      13.1765      28.7324    5760.2466 
   63500       63.488    276.73094    11.553801   -731.34524   -719.79144    33131.571    52453.674    48680.124   -1739.0865      15.2149      13.1765      28.7324    5760.2466 
   64000       63.988    266.86682    11.141964   -730.92198   -719.78001    34957.969    49082.133    48491.343    7300.4309      15.2149      13.1765      28.7324    5760.2466 
   64500       64.488    286.81251    11.974717   -731.74351   -719.76879    33786.112    49308.431    48578.595    3471.3093      15.2149      13.1765      28.7324    5760.2466 
   65000       64.988    273.42128    11.415619   -731.17155   -719.75593    33420.221    49691.718    48580.746    1988.1991      15.2149      13.1765      28.7324    5760.2466 
   65500       65.488    267.86855    11.183787   -730.92735   -719.74356    32951.921    48682.549    51397.717   -1224.5041      15.2149      13.1765      28.7324    5760.2466 
   66000       65.988     272.1269    11.361578   -731.09384   -719.73226    32232.032    47201.973    49265.554    228.56782      15.2149      13.1765      28.7324    5760.2466 
   66500       66.488     265.6045    11.089261   -730.81004   -719.72078    34500.798    48738.211    48031.177    6733.0055      15.2149      13.1765      28.7324    5760.2466 
   67000       66.988    280.97222    11.730879   -731.44028    -719.7094    32124.746    49449.868     46406.66    517.70884      15.2149      13.1765      28.7324    5760.2466 
   67500       67.488    289.43354    12.084148   -731.78253   -719.69838    31927.343    49661.407    48818.594   -2697.9714      15.2149      13.1765      28.7324    5760.2466 
   68000       67.988    271.02964    11.315766   -731.00153   -719.68576    32871.906    51438.643    49103.944   -1926.8682      15.2149      13.1765      28.7324    5760.2466 
   68500       68.488    274.21093    11.448588   -731.12392   -719.67533    33450.153    49255.511    47355.893    3739.0544      15.2149      13.1765      28.7324    5760.2466 
   69000       68.988    264.79711    11.055551   -730.71904   -719.66349    33214.627    49858.459    49842.898   -57.474423      15.2149      13.1765      28.7324    5760.2466 
   69500       69.488    263.35401      10.9953   -730.64765   -719.65235    33598.648    50539.289    50788.639   -531.98414      15.2149      13.1765      28.7324    5760.2466 
   70000       69.988    252.64998    10.548396     -730.189    -719.6406    32853.046     48176.82    51854.988   -1472.6714      15.2149      13.1765      28.7324    5760.2466 
   70500       70.488    258.67992    10.800152   -730.42981   -719.62966    32809.059    49030.107    51543.663   -2146.5943      15.2149      13.1765      28.7324    5760.2466 
   71000       70.988    278.18842    11.614652   -731.23469   -719.62003    36460.685    51742.061    51768.257    5871.7378      15.2149      13.1765      28.7324    5760.2466 
   71500       71.488    269.37706    11.246769     -730.854   -719.60723    34247.938    53067.024    50065.256   -388.46603      15.2149      13.1765      28.7324    5760.2466 
   72000       71.988    272.74293    11.387297   -730.98381   -719.59651    32291.412     49088.62    47928.907   -143.28971      15.2149      13.1765      28.7324    5760.2466 
   72500       72.488    268.08522    11.192833   -730.77826   -719.58542    32057.759    49092.067    45960.538    1120.6704      15.2149      13.1765      28.7324    5760.2466 
   73000       72.988    267.47939    11.167539   -730.74169   -719.57415    34144.899    51158.212    49235.615    2040.8702      15.2149      13.1765      28.7324    5760.2466 
   73500       73.488    286.32956    11.954553   -731.51923   -719.56468    33738.872    51580.884    49531.578    104.15272      15.2149      13.1765      28.7324    5760.2466 
   74000       73.988    277.38164    11.580968   -731.13348   -719.55251     33233.82    49291.076     47894.08    2516.3046      15.2149      13.1765      28.7324    5760.2466 
   74500       74.488    270.83922    11.307815   -730.84857   -719.54076    34672.477    52458.612    48853.593    2705.2252      15.2149      13.1765      28.7324    5760.2466 
   75000       74.988    279.99761    11.690188    -731.2223   -719.53211    34385.599    51048.864    50351.647    1756.2874      15.2149      13.1765      28.7324    5760.2466 
   75500       75.488    267.94681    11.187055   -730.70597   -719.51892    32408.321     46657.65    49962.328     604.9845      15.2149      13.1765      28.7324    5760.2466 
   76000       75.988    278.79453    11.639958   -731.14916    -719.5092    32706.433    46596.994    47533.002    3989.3026      15.2149      13.1765      28.7324    5760.2466 
   76500       76.488    283.43855     11.83385   -731.33206   -719.49821    35211.963    51616.559    51228.876     2790.455      15.2149      13.1765      28.7324    5760.2466 
   77000       76.988     267.4629    11.166851   -730.65424   -719.48739    33331.373    47582.868    50158.059    2253.1921      15.2149      13.1765      28.7324    5760.2466 
   77500       77.488    286.04023    11.942473   -731.41914   -719.47667    32844.787     44955.35    50021.383    3557.6271      15.2149      13.1765      28.7324    5760.2466 
   78000       77.988    277.13928    11.570849   -731.03693   -719.46609    30731.632    47482.188    46152.746    -1440.039      15.2149      13.1765      28.7324    5760.2466 
   78500       78.488    268.49222    11.209826   -730.66386   -719.45403    31905.623    49755.097    48062.287   -2100.5134      15.2149      13.1765      28.7324    5760.2466 
   79000       78.988    293.24594    12.243319   -731.68845   -719.44513    34271.617    49976.191    50943.279    1895.3811      15.2149      13.1765      28.7324    5760.2466 
   79500       79.488     273.5625    11.421515   -730.85491   -719.43339    34879.165    51368.155    46477.265    6792.0754      15.2149      13.1765      28.7324    5760.2466 
   80000       79.988    285.07728    11.902269   -731.32557    -719.4233    33636.495    49761.965    46883.409    4264.1116      15.2149      13.1765      28.7324    5760.2466 
   80500       80.488    273.25763    11.408786   -730.82075   -719.41196     33720.57     50948.13    49242.896    970.68355      15.2149      13.1765      28.7324    5760.2466 
   81000       80.988    284.51988    11.878997    -731.2809    -719.4019    32510.577    48381.976    46677.919    2471.8348      15.2149      13.1765      28.7324    5760.2466 
   81500       81.488    273.64842    11.425102   -730.81649   -719.39139     34162.56    49375.277    49368.287    3744.1151      15.2149      13.1765      28.7324    5760.2466 
   82000       81.988    294.87643    12.311394   -731.69321   -719.38182    32987.608    51109.017    48262.949   -409.14137      15.2149      13.1765      28.7324    5760.2466 
   82500       82.488    266.47499    11.125604   -730.49494   -719.36934    31499.013    47747.634    47834.282   -1084.8773      15.2149      13.1765      28.7324    5760.2466 
   83000       82.988    276.56349     11.54681   -730.90586   -719.35905    33028.931    49521.544    49822.825   -257.57555      15.2149      13.1765      28.7324    5760.2466 
   83500       83.488    268.65772    11.216736   -730.56489   -719.34816    32808.289    49732.664    45960.097    2732.1068      15.2149      13.1765      28.7324    5760.2466 
   84000       83.988    268.20932    11.198015    -730.5355   -719.33749    32480.272    48309.975    48579.706    551.13357      15.2149      13.1765      28.7324    5760.2466 
   84500       84.488    275.38614    11.497654    -730.8242   -719.32655      33332.2    50463.887    50250.836   -718.12197      15.2149      13.1765      28.7324    5760.2466 
   85000       84.988    275.16246    11.488315   -730.80391   -719.31559    34538.305    53089.594    48843.238    1682.0821      15.2149      13.1765      28.7324    5760.2466 
   85500       85.488    269.38622    11.247151   -730.55247   -719.30532    32641.937    48896.776    47304.475    1724.5605      15.2149      13.1765      28.7324    5760.2466 
   86000       85.988    284.85115    11.892828   -731.18765   -719.29482    34811.028    53243.635    50994.894    194.55461      15.2149      13.1765      28.7324    5760.2466 
   86500       86.488    290.50042    12.128691    -731.4134   -719.28471    32852.958    48634.888    47073.757    2850.2303      15.2149      13.1765      28.7324    5760.2466 
   87000       86.988    289.23402    12.075817   -731.34805   -719.27223     33971.37    52262.433    49075.814     575.8625      15.2149      13.1765      28.7324    5760.2466 
   87500       87.488    275.05985    11.484031   -730.74594    -719.2619    33462.159    49728.858    49163.024    1494.5944      15.2149      13.1765      28.7324    5760.2466 
   88000       87.988    275.90104    11.519152   -730.76991   -719.25076    30772.989    47755.674    46107.144   -1543.8512      15.2149      13.1765      28.7324    5760.2466 
   88500       88.488     280.4278    11.708149   -730.94866   -719.24051    33115.645    50810.499    48167.607    368.82915      15.2149      13.1765      28.7324    5760.2466 
   89000       88.988    275.64636    11.508518    -730.7378   -719.22928    33240.716    49238.386    49136.492    1347.2705      15.2149      13.1765      28.7324    5760.2466 
   89500       89.488    283.92229    11.854047   -731.07314   -719.21909    33119.168     46993.46    50828.581    1535.4639      15.2149      13.1765      28.7324    5760.2466 
   90000       89.988    287.10628    11.986982   -731.19511   -719.20813    34171.457    48824.304    49846.434    3843.6317      15.2149      13.1765      28.7324    5760.2466 
   90500       90.488    274.75982    11.471505   -730.66859   -719.19709    32531.782    46984.757    46828.796    3781.7937      15.2149      13.1765      28.7324    5760.2466 
   91000       90.988    272.00933    11.356669   -730.54172   -719.18505    30908.946    48402.431    43654.375    670.03147      15.2149      13.1765      28.7324    5760.2466 
   91500       91.488    270.18233     11.28039   -730.45546   -719.17507    33916.184    52001.067    48855.243    892.24282      15.2149      13.1765      28.7324    5760.2466 
   92000       91.988    284.86638    11.893464    -731.0579   -719.16444    34286.301    50178.825    48133.388    4546.6894      15.2149      13.1765      28.7324    5760.2466 
   92500       92.488    278.00551    11.607015   -730.75972   -719.15271     33757.84    50119.202      48800.4    2353.9171      15.2149      13.1765      28.7324    5760.2466 
   93000       92.988    274.69294    11.468712   -730.60919   -719.14048    33854.139    51112.558    47773.411    2676.4467      15.2149      13.1765      28.7324    5760.2466 
   93500       93.488    287.17141    11.989701   -731.12098   -719.13128    34966.771    52618.688    48686.817    3594.8087      15.2149      13.1765      28.7324    5760.2466 
   94000       93.988    266.65671    11.133192   -730.25192   -719.11873    32668.356    50287.423     49332.46   -1614.8159      15.2149      13.1765      28.7324    5760.2466 
   94500       94.488    267.51898    11.169192   -730.27591   -719.10671    32821.913    48994.949    46107.484    3363.3056      15.2149      13.1765      28.7324    5760.2466 
   95000       94.988    289.21598    12.075064   -731.17183   -719.09676    34609.614    50865.521    51029.606    1933.7159      15.2149      13.1765      28.7324    5760.2466 
   95500       95.488    271.82623    11.349024   -730.43413   -719.08511    34099.087     48466.69    52270.989    1559.5811      15.2149      13.1765      28.7324    5760.2466 
   96000       95.988     285.6704    11.927032    -731.0015   -719.07447    34059.231    51437.252    50605.506    134.93621      15.2149      13.1765      28.7324    5760.2466 
   96500       96.488    285.26509    11.910111   -730.97224   -719.06213    32521.459    49862.423    48821.252   -1119.2986      15.2149      13.1765      28.7324    5760.2466 
   97000       96.988    281.39422    11.748498    -730.7984    -719.0499    32409.141    51255.315    46635.358   -663.24911      15.2149      13.1765      28.7324    5760.2466 
   97500       97.488    281.00207    11.732125   -730.77141   -719.03929    32045.884    47710.706    47164.623    1262.3222      15.2149      13.1765      28.7324    5760.2466 
   98000       97.988    280.79176    11.723344   -730.75058   -719.02724    34020.086    49921.646    48505.872    3632.7395      15.2149      13.1765      28.7324    5760.2466 
   98500       98.488    288.73025    12.054784   -731.07132   -719.01654     32473.95    49769.992    47947.217   -295.35788      15.2149      13.1765      28.7324    5760.2466 
   99000       98.988    305.65092     12.76124   -731.76682   -719.00558    32497.964    50281.799    49265.969   -2053.8744      15.2149      13.1765      28.7324    5760.2466 
   99500       99.488    277.33796    11.579144   -730.57194   -718.99279    32595.171    52001.092    44983.741    800.67926      15.2149      13.1765      28.7324    5760.2466 
  100000       99.988    293.37183    12.248575   -731.22992   -718.98134    30735.597    46828.593    48629.457   -3251.2584      15.2149      13.1765      28.7324    5760.2466 
  100500      100.488    272.08689    11.359907   -730.32914   -718.96923    34971.685    51710.615    51317.013    1887.4279      15.2149      13.1765      28.7324    5760.2466 
  101000      100.988    282.17491    11.781092   -730.73844   -718.95735    33771.642    52192.098    48565.118    557.70968      15.2149      13.1765      28.7324    5760.2466 
  101500      101.488    270.30749    11.285615   -730.23139   -718.94577    31080.035    47938.746     48236.17   -2934.8113      15.2149      13.1765      28.7324    5760.2466 
  102000      101.988    294.00513    12.275016   -731.20928   -718.93426    33660.259    50012.706    47553.687    3414.3848      15.2149      13.1765      28.7324    5760.2466 
  102500      102.488    290.91757    12.146107   -731.06894   -718.92283    35916.761    50840.588    52649.325    4260.3686      15.2149      13.1765      28.7324    5760.2466 
  103000      102.988    273.17493    11.405334   -730.31476   -718.90942    29843.832    47381.388    45532.609   -3382.5004      15.2149      13.1765      28.7324    5760.2466 
  103500      103.488    279.56075    11.671948   -730.56998   -718.89803    32805.126    47384.753    50279.127      751.497      15.2149      13.1765      28.7324    5760.2466 
  104000      103.988    279.68359    11.677077   -730.56363   -718.88656    34344.044    49332.895    49675.583    4023.6544      15.2149      13.1765      28.7324    5760.2466 
  104500      104.488       277.91    11.603028   -730.47656   -718.87353    31737.932    47609.467    46078.317    1526.0108      15.2149      13.1765      28.7324    5760.2466 
  105000      104.988    275.71756    11.511491     -730.373   -718.86151    33442.535    50221.242    48869.501    1236.8635      15.2149      13.1765      28.7324    5760.2466 
  105500      105.488    311.02006    12.985407   -731.83611    -718.8507    33791.299    47438.479    52842.009    1093.4082      15.2149      13.1765      28.7324    5760.2466 
  106000      105.988    276.12043    11.528311   -730.36473   -718.83642    33268.236     46961.64    50213.654    2629.4132      15.2149      13.1765      28.7324    5760.2466 
  106500      106.488    299.01776    12.484299    -731.3094    -718.8251    34727.155    52046.336    50122.094    2013.0338      15.2149      13.1765      28.7324    5760.2466 
  107000      106.988    295.87041    12.352894   -731.16577   -718.81287    34217.283     48993.95    52146.961    1510.9365      15.2149      13.1765      28.7324    5760.2466 
  107500      107.488    285.80629    11.932706   -730.73301    -718.8003    34392.316    48092.577    49436.499    5647.8723      15.2149      13.1765      28.7324    5760.2466 
  108000      107.988    273.54362    11.420727    -730.2078   -718.78707    33998.806     49574.81    50549.045    1872.5645      15.2149      13.1765      28.7324    5760.2466 
  108500      108.488    281.62119    11.757974    -730.5327   -718.77473     33370.35    50132.386    49844.102    134.56221      15.2149      13.1765      28.7324    5760.2466 
  109000      108.988     293.6873    12.261746   -731.02482   -718.76307    32267.268    46316.326    51038.779   -553.30021      15.2149      13.1765      28.7324    5760.2466 
  109500      109.488    275.87275    11.517971   -730.26731   -718.74934    33335.499    48724.961    48662.369    2619.1684      15.2149      13.1765      28.7324    5760.2466 
  110000      109.988    291.07902    12.152848   -730.89008   -718.73723    33154.771    47564.554    50929.021    970.73837      15.2149      13.1765      28.7324    5760.2466 
  110500      110.488    295.41779    12.333996   -731.05896   -718.72496    34210.402    52492.009     49082.37    1056.8267      15.2149      13.1765      28.7324    5760.2466 
  111000      110.988    272.62483    11.382367   -730.09304   -718.71067     36288.37    52023.662    49577.067    7264.3825      15.2149      13.1765      28.7324    5760.2466 
  111500      111.488    282.61901    11.799634   -730.49809   -718.69845    32797.032    48662.879    49800.089   -71.871297      15.2149      13.1765      28.7324    5760.2466 
  112000      111.988    293.55705    12.256308   -730.94302   -718.68671    33358.458    48984.311    48979.603    2111.4603      15.2149      13.1765      28.7324    5760.2466 
  112500      112.488    288.03825    12.025893   -730.69903   -718.67314    34663.221    50140.026     49261.94    4587.6957      15.2149      13.1765      28.7324    5760.2466 
  113000      112.988    271.26322    11.325518   -729.98631    -718.6608    30505.024    47649.795    45848.497   -1983.2197      15.2149      13.1765      28.7324    5760.2466 
  113500      113.488    287.80265    12.016056   -730.66411   -718.64806    32427.389    46286.284     48794.26    2201.6227      15.2149      13.1765      28.7324    5760.2466 
  114000      113.988    277.04421     11.56688    -730.2016   -718.63472    33505.297    49967.507    48859.348    1689.0358      15.2149      13.1765      28.7324    5760.2466 
  114500      114.488    275.29849    11.493994   -730.11528   -718.62128    31705.208    49030.413    48815.949   -2730.7385      15.2149      13.1765      28.7324    5760.2466 
  115000      114.988    281.02184     11.73295   -730.34179   -718.60884    32601.726    49479.375    49040.319   -714.51677      15.2149      13.1765      28.7324    5760.2466 
  115500      115.488    300.03556    12.526793   -731.12325   -718.59646    32141.648    50379.825    49240.386   -3195.2675      15.2149      13.1765      28.7324    5760.2466 
  116000      115.988    293.50727     12.25423   -730.83742   -718.58319    32462.952    48460.928    47116.318    1811.6087      15.2149      13.1765      28.7324    5760.2466 
  116500      116.488    273.77897    11.430553   -729.99912   -718.56856    32772.636    47732.977    51308.439   -723.51015      15.2149      13.1765      28.7324    5760.2466 
  117000      116.988    285.17047     11.90616   -730.46244   -718.55628    30871.951    45464.584    46256.844    894.42397      15.2149      13.1765      28.7324    5760.2466 
  117500      117.488    285.52669    11.921032   -730.46381   -718.54278    33458.642    48125.024    48658.941    3591.9624      15.2149      13.1765      28.7324    5760.2466 
  118000      117.988    287.31102     11.99553    -730.5256   -718.53007    32994.877    50876.664    50224.774   -2116.8061      15.2149      13.1765      28.7324    5760.2466 
  118500      118.488    293.13049    12.238499   -730.75563   -718.51713    32817.326    49410.425     50998.71   -1957.1559      15.2149      13.1765      28.7324    5760.2466 
  119000      118.988     286.7524    11.972207   -730.47578   -718.50358    31013.609    47590.947    45695.129   -245.25032      15.2149      13.1765      28.7324    5760.2466 
  119500      119.488       279.68    11.676927   -730.16582   -718.48889    34245.812    50524.241      53010.9   -797.70529      15.2149      13.1765      28.7324    5760.2466 
  120000      119.988    278.91072    11.644809   -730.12053   -718.47573    31478.478    46049.631    47807.892    577.91134      15.2149      13.1765      28.7324    5760.2466 
  120500      120.488    268.45375     11.20822   -729.66945   -718.46123    33670.229    49264.648    51618.445    127.59471      15.2149      13.1765      28.7324    5760.2466 
  121000      120.988    305.11986    12.739068   -731.18758   -718.44851    33762.754    49025.982    50099.097    2163.1843      15.2149      13.1765      28.7324    5760.2466 
  121500      121.488    296.21997    12.367488   -730.80251   -718.43502     33366.37    48122.837    49745.558    2230.7135      15.2149      13.1765      28.7324    5760.2466 
  122000      121.988    300.71033    12.554965    -730.9763   -718.42134    36323.502    52173.804    49633.407    7163.2931      15.2149      13.1765      28.7324    5760.2466 
  122500      122.488    274.42803    11.457652   -729.86447   -718.40682    31758.336    49743.035    48932.883   -3400.9114      15.2149      13.1765      28.7324    5760.2466 
  123000      122.988    292.67858    12.219631   -730.61354   -718.39391    32703.842    49383.145    47114.752    1613.6299      15.2149      13.1765      28.7324    5760.2466 
  123500      123.488    295.92981    12.355373    -730.7359   -718.38052     33563.48    49961.121    47609.156    3120.1632      15.2149      13.1765      28.7324    5760.2466 
  124000      123.988    285.12354      11.9042   -730.26988   -718.36568    32731.376    45854.434    50861.767    1477.9264      15.2149      13.1765      28.7324    5760.2466 
  124500      124.488    292.22004    12.200487   -730.55303   -718.35255    31878.977    47005.837    47692.683    938.41027      15.2149      13.1765      28.7324    5760.2466 
  125000      124.988      298.486    12.462097   -730.80054   -718.33844    34907.016     49996.22    52460.924    2263.9027      15.2149      13.1765      28.7324    5760.2466 
  125500      125.488    292.78133    12.223921   -730.54799   -718.32407    31656.114    48558.952    49075.412   -2666.0236      15.2149      13.1765      28.7324    5760.2466 
  126000      125.988    289.12673    12.071338   -730.38147   -718.31013    32945.178    47277.837    49505.824    2051.8743      15.2149      13.1765      28.7324    5760.2466 
  126500      126.488    296.61917    12.384155   -730.68033   -718.29618    33086.877    47383.734    49806.908    2069.9903      15.2149      13.1765      28.7324    5760.2466 
  127000      126.988    297.64822    12.427119   -730.70957   -718.28245    31762.727    48680.185    45457.516    1150.4807      15.2149      13.1765      28.7324    5760.2466 
  127500      127.488    291.70069    12.178803   -730.44692   -718.26811    32202.558    49461.871    48693.137   -1547.3345      15.2149      13.1765      28.7324    5760.2466 
  128000      127.988    293.16154    12.239795   -730.49304   -718.25324    34346.915      51655.4    49323.941    2061.4033      15.2149      13.1765      28.7324    5760.2466 
  128500      128.488    284.86854    11.893554   -730.13296   -718.23941    34832.504    51668.843    49006.226    3822.4428      15.2149      13.1765      28.7324    5760.2466 
  129000      128.988    299.59775    12.508514   -730.73419   -718.22568    31858.007    47326.475     50653.79   -2406.2436      15.2149      13.1765      28.7324    5760.2466 
  129500      129.488     300.5813    12.549578   -730.76097   -718.21139    32905.181    51160.226    47383.506    171.81019      15.2149      13.1765      28.7324    5760.2466 
  130000      129.988     292.6931    12.220238   -730.41638   -718.19614    32575.558    49596.203    47386.388    744.08334      15.2149      13.1765      28.7324    5760.2466 
  130500      130.488    285.93021     11.93788   -730.12008    -718.1822    31246.046    45672.545    48562.212   -496.61927      15.2149      13.1765      28.7324    5760.2466 
  131000      130.988    298.14414    12.447824   -730.61608   -718.16825    33610.289      49736.1    51136.458     -41.6906      15.2149      13.1765      28.7324    5760.2466 
  131500      131.488    289.57375    12.090002   -730.24306   -718.15306    32163.291    50180.978    47905.604   -1596.7089      15.2149      13.1765      28.7324    5760.2466 
  132000      131.988    289.08483    12.069588   -730.20883   -718.13924    32520.425    47542.665    50929.641   -911.03053      15.2149      13.1765      28.7324    5760.2466 
  132500      132.488    302.10234    12.613083   -730.73741   -718.12433    34158.204    51266.187    51942.134   -733.70795      15.2149      13.1765      28.7324    5760.2466 
  133000      132.988    311.39619    13.001111    -731.1114   -718.11029    31642.423     47820.23    46581.161    525.87693      15.2149      13.1765      28.7324    5760.2466 
  133500      133.488     280.1117    11.694951   -729.78997   -718.09502     32068.82     45614.63    48551.578    2040.2524      15.2149      13.1765      28.7324    5760.2466 
  134000      133.988    306.78315    12.808512   -730.89028   -718.08176    32603.226     49047.98    48274.634     487.0625      15.2149      13.1765      28.7324    5760.2466 
  134500      134.488     287.2479    11.992895   -730.05818   -718.06529    33398.898    50285.163    48136.622    1774.9086      15.2149      13.1765      28.7324    5760.2466 
  135000      134.988    292.96298    12.231505   -730.28318   -718.05167    31761.419    47885.924    47903.041   -504.70713      15.2149      13.1765      28.7324    5760.2466 
  135500      135.488    308.33395    12.873259   -730.91153   -718.03828    33494.716     48112.87    50322.526    2048.7508      15.2149      13.1765      28.7324    5760.2466 
  136000      135.988    296.07264    12.361337   -730.38413   -718.02279    33172.502    48485.339    48453.243    2578.9237      15.2149      13.1765      28.7324    5760.2466 
  136500      136.488    292.39835    12.207932   -730.21542   -718.00749    31887.658    48630.107    43412.378    3620.4889      15.2149      13.1765      28.7324    5760.2466 
  137000      136.988     308.1249    12.864531    -730.8593   -717.99477    34385.373    49060.429    51840.567    2255.1232      15.2149      13.1765      28.7324    5760.2466 
  137500      137.488    296.74268    12.389312   -730.36787   -717.97856    33920.286    49334.672    49329.256    3096.9291      15.2149      13.1765      28.7324    5760.2466 
  138000      137.988    295.71963    12.346598   -730.31065   -717.96405    34430.576    51278.968    49276.729    2736.0313      15.2149      13.1765      28.7324    5760.2466 
  138500      138.488    295.79591    12.349783   -730.29844   -717.94865    32913.829    47880.996    48989.022    1871.4683      15.2149      13.1765      28.7324    5760.2466 
  139000      138.988     293.1445    12.239084   -730.17293   -717.93385    32882.916    51843.561    45794.032    1011.1562      15.2149      13.1765      28.7324    5760.2466 
  139500      139.488    306.88493    12.812761   -730.73296    -717.9202    33150.912    50273.239    47372.834    1806.6638      15.2149      13.1765      28.7324    5760.2466 
  140000      139.988    285.92831    11.937801   -729.84198   -717.90418    33709.612    51125.214    48448.676    1554.9457      15.2149      13.1765      28.7324    5760.2466 
  140500      140.488    275.40436    11.498415   -729.38701    -717.8886    32914.644    48777.851    47311.456    2654.6255      15.2149      13.1765      28.7324    5760.2466 
  141000      140.988    309.75984    12.932791   -730.80781   -717.87502    34497.856    51504.255    49564.023    2425.2883      15.2149      13.1765      28.7324    5760.2466 
  141500      141.488    298.86051    12.477733   -730.33736   -717.85963    32389.579     49889.94    46529.906    748.89207      15.2149      13.1765      28.7324    5760.2466 
  142000      141.988    307.63947    12.844264   -730.68968   -717.84542    30928.951    46410.945     46450.59   -74.681749      15.2149      13.1765      28.7324    5760.2466 
  142500      142.488    289.16993    12.073142   -729.90318   -717.83004    33342.258    48678.554    48939.462    2408.7588      15.2149      13.1765      28.7324    5760.2466 
  143000      142.988    287.42106    12.000125   -729.81576   -717.81564    31460.403    48335.029    46692.632   -646.45249      15.2149      13.1765      28.7324    5760.2466 
  143500      143.488    304.33306    12.706218   -730.50668   -717.80046    30983.881     48686.92    46067.419   -1802.6974      15.2149      13.1765      28.7324    5760.2466 
  144000      143.988    302.91742    12.647113   -730.43291   -717.78579    32283.147    49316.013    47684.458   -151.02969      15.2149      13.1765      28.7324    5760.2466 
  144500      144.488      297.369    12.415461   -730.18643   -717.77097    32818.806     49809.68    46867.849    1778.8872      15.2149      13.1765      28.7324    5760.2466 
  145000      144.988    286.36081    11.955858   -729.71226    -717.7564    32156.674    48066.692    45999.953    2403.3781      15.2149      13.1765      28.7324    5760.2466 
  145500      145.488    297.20165    12.408474   -730.14995   -717.74147    32276.162    49988.473     46736.68    103.33417      15.2149      13.1765      28.7324    5760.2466 
  146000      145.988    304.53257    12.714547   -730.44121   -717.72666    35460.494    51272.812    49622.593    5486.0769      15.2149      13.1765      28.7324    5760.2466 
  146500      146.488    293.69917    12.262242   -729.97303   -717.71079    31743.601    48409.278    47324.843   -503.31855      15.2149      13.1765      28.7324    5760.2466 
  147000      146.988    287.78429    12.015289   -729.71124   -717.69595    32087.401    50625.583    45041.032    595.58963      15.2149      13.1765      28.7324    5760.2466 
  147500      147.488    310.58122    12.967085   -730.64987   -717.68279    34424.011    51164.844    49624.785    2482.4036      15.2149      13.1765      28.7324    5760.2466 
  148000      147.988    284.23425    11.867072    -729.5321   -717.66503    31426.146    47394.955    48278.052   -1394.5688      15.2149      13.1765      28.7324    5760.2466 
  148500      148.488    300.82339    12.559685   -730.21091   -717.65122    32133.884    49442.799    48647.811   -1688.9583      15.2149      13.1765      28.7324    5760.2466 
  149000      148.988    289.13047    12.071494   -729.70644   -717.63495    33171.238    50709.288    46746.747    2057.6803      15.2149      13.1765      28.7324    5760.2466 
  149500      149.488     295.5007    12.337458   -729.95734   -717.61988    32261.269    48605.693    48427.769   -249.65445      15.2149      13.1765      28.7324    5760.2466 
  150000      149.988    299.20721    12.492208   -730.09702   -717.60481     32908.53    50492.831    48787.197   -554.43945      15.2149      13.1765      28.7324    5760.2466 
  150500      150.488    287.76828    12.014621   -729.60469   -717.59007    31466.718    49750.831    45895.884   -1246.5616      15.2149      13.1765      28.7324    5760.2466 
  151000      150.988    302.93153    12.647702   -730.22297   -717.57527    33259.796    47920.047    49117.357    2741.9857      15.2149      13.1765      28.7324    5760.2466 
  151500      151.488    300.79125    12.558343   -730.11898   -717.56064    34360.098    50106.522    51624.783    1348.9871      15.2149      13.1765      28.7324    5760.2466 
  152000      151.988    311.42463    13.002298   -730.54743   -717.54514    32808.059    46901.132    47823.013    3700.0331      15.2149      13.1765      28.7324    5760.2466 
  152500      152.488    300.13168    12.530806   -730.05979   -717.52898    31047.677    47049.014     48189.11   -2095.0925      15.2149      13.1765      28.7324    5760.2466 
  153000      152.988    299.91728    12.521854   -730.03683   -717.51497    32942.621    50255.723    49016.435   -444.29527      15.2149      13.1765      28.7324    5760.2466 
  153500      153.488    288.99771    12.065951    -729.5647   -717.49875    31471.118    45436.516    48805.883    170.95462      15.2149      13.1765      28.7324    5760.2466 
  154000      153.988    311.43259     13.00263   -730.48731   -717.48468    34631.412    51878.987     49426.34    2588.9086      15.2149      13.1765      28.7324    5760.2466 
  154500      154.488    307.77751    12.850027   -730.31922   -717.46919    31901.084    49514.794    47174.245   -985.78825      15.2149      13.1765      28.7324    5760.2466 
  155000      154.988    293.92275    12.271577   -729.72466   -717.45308    33602.518    50020.585    47449.971    3336.9988      15.2149      13.1765      28.7324    5760.2466 
  155500      155.488    291.78517     12.18233   -729.62023    -717.4379    32357.164    46205.129    50368.989    497.37457      15.2149      13.1765      28.7324    5760.2466 
  156000      155.988    299.04973    12.485633    -729.9076   -717.42197    31174.701    48259.646    48384.045   -3119.5871      15.2149      13.1765      28.7324    5760.2466 
  156500      156.488    296.06691    12.361098   -729.76781   -717.40671     33510.57    48112.118    52598.449   -178.85621      15.2149      13.1765      28.7324    5760.2466 
  157000      156.988    312.23287    13.036043    -730.4276   -717.39156    33550.236     50678.08    50284.665   -312.03521      15.2149      13.1765      28.7324    5760.2466 
  157500      157.488    309.73844    12.931898    -730.3082    -717.3763    33838.149    49436.122    49765.817    2312.5083      15.2149      13.1765      28.7324    5760.2466 
  158000      157.988    305.97824    12.774906   -730.13611    -717.3612    33320.097     49518.31    50315.105    126.87589      15.2149      13.1765      28.7324    5760.2466 
  158500      158.488    315.38969    13.167843   -730.51394    -717.3461    32867.715    48675.766    47944.885    1982.4945      15.2149      13.1765      28.7324    5760.2466 
  159000      158.988     315.2695    13.162825    -730.4938   -717.33098    33184.666    50843.119    49805.215   -1094.3366      15.2149      13.1765      28.7324    5760.2466 
  159500      159.488    297.80949    12.433852   -729.74848   -717.31463     32880.26    51697.801    47378.358   -435.37788      15.2149      13.1765      28.7324    5760.2466 
  160000      159.988    313.97957     13.10897   -730.40903   -717.30006    34502.011    50992.118     49654.55    2859.3643      15.2149      13.1765      28.7324    5760.2466 
  160500      160.488    301.98496    12.608182   -729.89255   -717.28437    32026.972    49356.738    49150.164   -2425.9871      15.2149      13.1765      28.7324    5760.2466 
  161000      160.988    293.46351    12.252403   -729.52058   -717.26817    31665.847    47548.491    48049.458   -600.40701      15.2149      13.1765      28.7324    5760.2466 
  161500      161.488    307.51199    12.838941   -730.09263   -717.25369    35180.573    50226.182    48594.473    6721.0655      15.2149      13.1765      28.7324    5760.2466 
  162000      161.988    297.87105    12.436422   -729.67454   -717.23812    30594.311    44888.918    49059.369   -2165.3526      15.2149      13.1765      28.7324    5760.2466 
  162500      162.488    306.28484    12.787706   -730.01166   -717.22395    34803.209    52015.556    47546.439    4847.6317      15.2149      13.1765      28.7324    5760.2466 
  163000      162.988    306.31841    12.789108   -729.99606   -717.20695    31179.916    49118.736    45472.559   -1051.5476      15.2149      13.1765      28.7324    5760.2466 
  163500      163.488    323.29054    13.497712   -730.69021    -717.1925    33893.895    48073.815    47982.767    5625.1028      15.2149      13.1765      28.7324    5760.2466 
  164000      163.988    294.64529    12.301744   -729.47852   -717.17677    31452.781     48202.25    47792.043   -1635.9507      15.2149      13.1765      28.7324    5760.2466 
  164500      164.488    304.61471    12.717977   -729.87949   -717.16152    32338.509    46663.638    48564.299    1787.5909      15.2149      13.1765      28.7324    5760.2466 
  165000      164.988    312.76677    13.058334   -730.20582   -717.14749    34707.943    49277.031    50846.505    4000.2925      15.2149      13.1765      28.7324    5760.2466 
  165500      165.488    308.09906    12.863452   -729.99425   -717.13079    32548.107    46520.951      50532.1    591.27051      15.2149      13.1765      28.7324    5760.2466 
  166000      165.988    299.57562     12.50759   -729.62244   -717.11485    33277.204    49663.291    49395.143    773.17909      15.2149      13.1765      28.7324    5760.2466 
  166500      166.488    320.84667    13.395678   -730.49469   -717.09901    32791.159    49005.105    50282.873    -914.4999      15.2149      13.1765      28.7324    5760.2466 
  167000      166.988    308.99174    12.900722   -729.98465   -717.08393    33737.549    49468.947    50488.078    1255.6219      15.2149      13.1765      28.7324    5760.2466 
  167500      167.488    299.06983    12.486472   -729.55426   -717.06779     32112.54    48530.859    46940.983    865.77741      15.2149      13.1765      28.7324    5760.2466 
  168000      167.988    313.23064    13.077701   -730.12981    -717.0521    33625.318     50266.41    49871.787    737.75621      15.2149      13.1765      28.7324    5760.2466 
  168500      168.488      314.498    13.130615   -730.16768   -717.03706    34955.789    50980.576    51260.664    2626.1259      15.2149      13.1765      28.7324    5760.2466 
  169000      168.988    308.12521    12.864544   -729.88577   -717.02123    31988.679    46558.534    48680.119    727.38253      15.2149      13.1765      28.7324    5760.2466 
  169500      169.488    304.13119    12.697789   -729.70257   -717.00478    32598.415    50233.287    50624.538   -3062.5787      15.2149      13.1765      28.7324    5760.2466 
  170000      169.988    309.77896     12.93359   -729.92466   -716.99107    34326.057    52417.953    49706.708    853.51079      15.2149      13.1765      28.7324    5760.2466 
  170500      170.488    323.22371    13.494922   -730.46919   -716.97427    33050.145    49582.413    46180.349    3387.6732      15.2149      13.1765      28.7324    5760.2466 
  171000      170.988    298.59651    12.466711   -729.42515   -716.95844    29449.359    45295.799    44456.116   -1403.8382      15.2149      13.1765      28.7324    5760.2466 
  171500      171.488    310.73773    12.973619   -729.91684   -716.94322    31645.044    48253.119    46235.437    446.57503      15.2149      13.1765      28.7324    5760.2466 
  172000      171.988    306.41401      12.7931   -729.72003   -716.92693     31403.01    47724.173    45761.469    723.38926      15.2149      13.1765      28.7324    5760.2466 
  172500      172.488    303.98572    12.691716   -729.60359   -716.91188    30576.527    46252.163     46671.05   -1193.6328      15.2149      13.1765      28.7324    5760.2466 
  173000      172.988    320.42779    13.378189   -730.27549    -716.8973     34204.58     47575.16    49367.251    5671.3276      15.2149      13.1765      28.7324    5760.2466 
  173500      173.488    293.23949     12.24305   -729.12364   -716.88059    33362.382    49615.027    47850.495    2621.6249      15.2149      13.1765      28.7324    5760.2466 
  174000      173.988    287.17848    11.989997   -728.85391   -716.86391    32383.131    51408.407     46670.56   -929.57531      15.2149      13.1765      28.7324    5760.2466 
  174500      174.488    318.37035    13.292289   -730.14213   -716.84984    33907.208    50131.241    49398.994    2191.3894      15.2149      13.1765      28.7324    5760.2466 
  175000      174.988    309.41125    12.918237   -729.75212   -716.83388    29801.602    45982.527    44555.277   -1132.9973      15.2149      13.1765      28.7324    5760.2466 
  175500      175.488    312.49001    13.046779   -729.86555   -716.81878    34892.848    52807.389    49067.473    2803.6804      15.2149      13.1765      28.7324    5760.2466 
  176000      175.988    316.36554    13.208586   -730.01141   -716.80282    32766.638    49927.215    46597.603    1775.0958      15.2149      13.1765      28.7324    5760.2466 
  176500      176.488     304.7056    12.721772   -729.50804   -716.78627    31900.312    47677.426    46642.454    1381.0575      15.2149      13.1765      28.7324    5760.2466 
  177000      176.988    310.03019    12.944079   -729.71617   -716.77209    31889.466    45360.693    50365.482   -57.777658      15.2149      13.1765      28.7324    5760.2466 
  177500      177.488     302.6429    12.635652   -729.39142   -716.75577    32903.739    49778.081    47738.466     1194.668      15.2149      13.1765      28.7324    5760.2466 
  178000      177.988    296.45883    12.377461   -729.11733   -716.73987     31720.36     47177.15    50614.137   -2630.2072      15.2149      13.1765      28.7324    5760.2466 
  178500      178.488    313.57738    13.092178   -729.81673   -716.72456    30903.171    47136.256    49639.009   -4065.7532      15.2149      13.1765      28.7324    5760.2466 
  179000      178.988    317.18438    13.242773   -729.95136   -716.70859    32377.933    48216.635    50767.385   -1850.2208      15.2149      13.1765      28.7324    5760.2466 
  179500      179.488     316.6389    13.219999   -729.91389   -716.69389     32599.91    47661.424    50925.843   -787.53811      15.2149      13.1765      28.7324    5760.2466 
  180000      179.988    329.72842      13.7665   -730.44575   -716.67925    32421.536    46264.228    50053.157     947.2224      15.2149      13.1765      28.7324    5760.2466 
  180500      180.488    292.83779    12.226279   -728.88719   -716.66091    33130.105    46770.507    49426.372    3193.4365      15.2149      13.1765      28.7324    5760.2466 
  181000      180.988     297.8809    12.436833   -729.08312   -716.64629    33578.196    50813.779    51879.304   -1958.4942      15.2149      13.1765      28.7324    5760.2466 
  181500      181.488    288.80509    12.057909   -728.68764   -716.62973    33655.253    50006.144    49717.527    1242.0887      15.2149      13.1765      28.7324    5760.2466 
  182000      181.988    315.37197    13.167104   -729.78313   -716.61603     31766.78     47320.71    50397.891   -2418.2602      15.2149      13.1765      28.7324    5760.2466 
  182500      182.488    296.70146    12.387591   -728.98573   -716.59814    31820.596    48531.182    46084.934    845.67107      15.2149      13.1765      28.7324    5760.2466 
  183000      182.988     321.6642     13.42981   -730.01368   -716.58387    34720.955    52955.048      50870.4    337.41558      15.2149      13.1765      28.7324    5760.2466 
  183500      183.488    307.80296     12.85109    -729.4189   -716.56781    32243.738    48450.222    48638.658   -357.66544      15.2149      13.1765      28.7324    5760.2466 
  184000      183.988    301.64573    12.594019   -729.14551   -716.55149    35191.401    51709.854     51419.82    2444.5306      15.2149      13.1765      28.7324    5760.2466 
  184500      184.488    326.54243    13.633482   -730.17048     -716.537    33631.425    48242.559      47927.9    4723.8154      15.2149      13.1765      28.7324    5760.2466 
  185000      184.988    307.16428    12.824424   -729.34556   -716.52114     33244.71    48765.994    49397.075    1571.0613      15.2149      13.1765      28.7324    5760.2466 
  185500      185.488      322.711    13.473516   -729.97857   -716.50506      34697.5    50446.906     50642.03    3003.5624      15.2149      13.1765      28.7324    5760.2466 
  186000      185.988    308.37478    12.874964   -729.36424   -716.48927    30867.924    46604.314    47364.252   -1364.7949      15.2149      13.1765      28.7324    5760.2466 
  186500      186.488    315.65377    13.178869   -729.65286   -716.47399    35044.146    51399.459    50075.887    3657.0922      15.2149      13.1765      28.7324    5760.2466 
  187000      186.988    302.26526    12.619885   -729.07759    -716.4577    28397.485     47096.19    44392.744   -6296.4804      15.2149      13.1765      28.7324    5760.2466 
  187500      187.488    307.68513     12.84617   -729.28907    -716.4429    32292.107    48923.422    49447.527   -1494.6264      15.2149      13.1765      28.7324    5760.2466 
  188000      187.988    299.48342     12.50374   -728.93097   -716.42723    30133.314    46474.133    44012.356   -86.546442      15.2149      13.1765      28.7324    5760.2466 
  188500      188.488    336.63463    14.054841   -730.46717   -716.41233    34048.684     52340.68    47729.226    2076.1455      15.2149      13.1765      28.7324    5760.2466 
  189000      188.988    321.83914    13.437115   -729.83299   -716.39587    34543.962     50100.28    49542.114    3989.4913      15.2149      13.1765      28.7324    5760.2466 
  189500      189.488    327.72483    13.682848   -730.06284   -716.37999     32030.56     46632.41     47031.73    2427.5405      15.2149      13.1765      28.7324    5760.2466 
  190000      189.988    313.49567    13.088766   -729.45141   -716.36264    36973.227    51642.418    53516.099    5761.1654      15.2149      13.1765      28.7324    5760.2466 
  190500      190.488    298.87099    12.478171     -728.825   -716.34683    30480.663    45672.288    48357.989   -2588.2869      15.2149      13.1765      28.7324    5760.2466 
  191000      190.988    331.83095    13.854283   -730.18671   -716.33243    32221.408    48838.189     47192.03     634.0055      15.2149      13.1765      28.7324    5760.2466 
  191500      191.488    318.97514    13.317539   -729.63473   -716.31719    34183.087    50576.249    47907.859     4065.152      15.2149      13.1765      28.7324    5760.2466 
  192000      191.988    319.96008    13.358662   -729.65929   -716.30063    30922.762     48919.26    46067.981   -2218.9534      15.2149      13.1765      28.7324    5760.2466 
  192500      192.488    312.20691    13.034959   -729.31848   -716.28353    32010.476    51630.286    44959.727   -558.58542      15.2149      13.1765      28.7324    5760.2466 
  193000      192.988    334.23968     13.95485   -730.22464   -716.26979    34570.968    50097.612    51713.009    1902.2842      15.2149      13.1765      28.7324    5760.2466 
  193500      193.488    306.60917    12.801248   -729.05287   -716.25163    32940.498    48507.329    49240.597    1073.5693      15.2149      13.1765      28.7324    5760.2466 
  194000      193.988    314.92321    13.148367   -729.38477   -716.23641    32287.168    49673.855    48737.803   -1550.1547      15.2149      13.1765      28.7324    5760.2466 
  194500      194.488    311.21642    12.993605   -729.21586   -716.22225    31733.312    48021.708     49673.27   -2495.0426      15.2149      13.1765      28.7324    5760.2466 
  195000      194.988     292.1216    12.196377   -728.40097   -716.20459    30377.843    48763.263    45590.586   -3220.3199      15.2149      13.1765      28.7324    5760.2466 
  195500      195.488     318.8583    13.312662   -729.50399   -716.19133    33826.727    49260.142     49795.53    2424.5082      15.2149      13.1765      28.7324    5760.2466 
  196000      195.988    306.17529    12.783133   -728.95763    -716.1745    31317.272    46188.454    47880.314   -116.95148      15.2149      13.1765      28.7324    5760.2466 
  196500      196.488    323.91402    13.523743    -729.6831   -716.15936    32604.213    49294.067    49981.012   -1462.4392      15.2149      13.1765      28.7324    5760.2466 
  197000      196.988    306.81835    12.809981    -728.9531   -716.14312    30692.291    46371.179    49658.823   -3953.1285      15.2149      13.1765      28.7324    5760.2466 
  197500      197.488     324.2394    13.537328   -729.66531   -716.12799    32502.393    50584.484    48241.359   -1318.6637      15.2149      13.1765      28.7324    5760.2466 
  198000      197.988    300.83145    12.560022   -728.67092    -716.1109    31148.806    48204.812    48293.656   -3052.0497      15.2149      13.1765      28.7324    5760.2466 
  198500      198.488    320.41036    13.377462   -729.47364   -716.09618    34485.373    49302.658    51650.758    2502.7017      15.2149      13.1765      28.7324    5760.2466 
  199000      198.988    306.63605     12.80237    -728.8822   -716.07983      33129.2     50287.33    49828.425   -728.15411      15.2149      13.1765      28.7324    5760.2466 
  199500      199.488     325.0178    13.569827   -729.63364   -716.06382    31959.302    46818.634    48918.161    141.11148      15.2149      13.1765      28.7324    5760.2466 
  200000      199.988    302.71169    12.638524   -728.68638   -716.04786    32507.713    50886.336    46853.038   -216.23383      15.2149      13.1765      28.7324    5760.2466 
  200500      200.488    323.01816     13.48634   -729.51973   -716.03339    32076.785    46576.085    48805.096    849.17498      15.2149      13.1765      28.7324    5760.2466 
  201000      200.988    315.50315    13.172581    -729.1894   -716.01682    31499.992    49121.868    47020.844   -1642.7372      15.2149      13.1765      28.7324    5760.2466 
  201500      201.488    283.77615    11.847946   -727.84863   -716.00069    29423.999    47611.082    48424.289   -7763.3747      15.2149      13.1765      28.7324    5760.2466 
  202000      201.988    331.67245    13.847665   -729.83438   -715.98671    35620.756    50317.895    53852.921    2691.4504      15.2149      13.1765      28.7324    5760.2466 
  202500      202.488    307.90491    12.855346   -728.82422   -715.96888    32363.619    49402.709    47166.538     521.6097      15.2149      13.1765      28.7324    5760.2466 
  203000      202.988    300.38676    12.541456   -728.49328   -715.95183    31440.695    47934.698    46475.248   -87.860152      15.2149      13.1765      28.7324    5760.2466 
  203500      203.488    319.41932    13.336084   -729.27357   -715.93748    33446.346    50095.827    49790.978    452.23412      15.2149      13.1765      28.7324    5760.2466 
  204000      203.988    297.26096     12.41095   -728.33095      -715.92    30977.517    44901.577    48633.388   -602.41428      15.2149      13.1765      28.7324    5760.2466 
  204500      204.488    313.64861    13.095152   -729.00079   -715.90564    33478.545    51512.457    48080.727    842.45248      15.2149      13.1765      28.7324    5760.2466 
  205000      204.988    317.46158    13.254347   -729.14436   -715.89002    31213.483    48612.067    45021.921    6.4612108      15.2149      13.1765      28.7324    5760.2466 
  205500      205.488    318.83648    13.311751   -729.18493   -715.87318    31170.751    47077.831    47100.274   -665.85208      15.2149      13.1765      28.7324    5760.2466 
  206000      205.988    304.35161    12.706992   -728.56378   -715.85679    32330.734    46602.711    50908.936   -519.44412      15.2149      13.1765      28.7324    5760.2466 
  206500      206.488    332.78428    13.894085   -729.73706   -715.84298    31883.162    49349.657    45073.376     1226.453      15.2149      13.1765      28.7324    5760.2466 
  207000      206.988    319.30989    13.331516   -729.15717   -715.82565    32681.606    49203.937    48281.239    559.64171      15.2149      13.1765      28.7324    5760.2466 
  207500      207.488    336.22126    14.037583   -729.84893   -715.81135    32629.527    48581.611    47990.759    1316.2117      15.2149      13.1765      28.7324    5760.2466 
  208000      207.988    307.47195     12.83727   -728.63065   -715.79338    30942.529    49643.326    47011.576   -3827.3164      15.2149      13.1765      28.7324    5760.2466 
  208500      208.488    318.86811    13.313071   -729.09145   -715.77838    32945.059    49907.298    49505.696   -577.81752      15.2149      13.1765      28.7324    5760.2466 
  209000      208.988    308.49995     12.88019    -728.6427   -715.76251    31246.778    47561.349    48444.006   -2265.0227      15.2149      13.1765      28.7324    5760.2466 
  209500      209.488     319.9485    13.358178   -729.10438    -715.7462    32497.308    52880.006    44929.318   -317.40023      15.2149      13.1765      28.7324    5760.2466 
  210000      209.988    306.83777    12.810792   -728.54062   -715.72982    28422.453    44997.011    42628.869   -2358.5202      15.2149      13.1765      28.7324    5760.2466 
  210500      210.488    321.81624    13.436158   -729.15149   -715.71533    31492.519     44940.42    51557.244   -2020.1078      15.2149      13.1765      28.7324    5760.2466 
  211000      210.988    310.30187    12.955422   -728.65301   -715.69758    33313.134    48414.771    49126.492    2398.1406      15.2149      13.1765      28.7324    5760.2466 
  211500      211.488    330.63304    13.804269   -729.48774   -715.68347    33670.577     50863.24     49489.29    659.20111      15.2149      13.1765      28.7324    5760.2466 
  212000      211.988     324.9129    13.565447   -729.23211   -715.66666    32073.414    48201.205    46844.876    1174.1599      15.2149      13.1765      28.7324    5760.2466 
[...]
  948500      948.488    379.51131    15.844987   -725.03619   -709.19121    21551.918    38733.828    43974.481   -18052.556      15.2149      13.1765      28.7324    5760.2466 
  949000      948.988    383.30913     16.00355   -725.19181   -709.18826     22659.25    45769.898    42231.173   -20023.322      15.2149      13.1765      28.7324    5760.2466 
  949500      949.488    378.48453    15.802118   -724.98796   -709.18584    23628.259     45646.49    42730.037   -17491.751      15.2149      13.1765      28.7324    5760.2466 
  950000      949.988    393.57819    16.432294   -725.61589    -709.1836     24763.67     44436.42     43348.99   -13494.399      15.2149      13.1765      28.7324    5760.2466 
  950500      950.488    354.84054    14.814957   -723.99466    -709.1797    24166.831    46378.273    43788.972   -17666.753      15.2149      13.1765      28.7324    5760.2466 
  951000      950.988    393.63106    16.434501   -725.61326   -709.17876    22466.358    45439.897    41159.221   -19200.045      15.2149      13.1765      28.7324    5760.2466 
  951500      951.488    383.78419    16.023384   -725.19903   -709.17565    22866.149    39949.174    45501.327   -16852.054      15.2149      13.1765      28.7324    5760.2466 
  952000      951.988    373.31411    15.586247   -724.75825     -709.172      21724.3    45657.462    41408.649    -21893.21      15.2149      13.1765      28.7324    5760.2466 
  952500      952.488    380.63501    15.891902    -725.0612    -709.1693    24879.704    47184.184     44354.81   -16899.883      15.2149      13.1765      28.7324    5760.2466 
  953000      952.988    384.89723    16.069855   -725.23696    -709.1671    23974.391    45130.994    42453.072   -15660.893      15.2149      13.1765      28.7324    5760.2466 
  953500      953.488    373.18021    15.580657   -724.74425    -709.1636    21200.371    45493.486    39914.668    -21807.04      15.2149      13.1765      28.7324    5760.2466 
  954000      953.988    360.58412    15.054757   -724.21446    -709.1597    20746.422      40467.1    40494.643   -18722.478      15.2149      13.1765      28.7324    5760.2466 
  954500      954.488     368.0316    15.365697   -724.52282   -709.15712     23790.54    42302.829    40280.258   -11211.467      15.2149      13.1765      28.7324    5760.2466 
  955000      954.988    368.73117    15.394905   -724.54966   -709.15476     22961.63    41170.157    44814.953   -17100.218      15.2149      13.1765      28.7324    5760.2466 
  955500      955.488      362.591    15.138547   -724.29001   -709.15147    22873.216    44628.542    41237.843   -17246.738      15.2149      13.1765      28.7324    5760.2466 
  956000      955.988    392.93849    16.405586   -725.55483   -709.14924    22374.814    41956.074    42578.918   -17410.549      15.2149      13.1765      28.7324    5760.2466 
  956500      956.488    377.69388    15.769107   -724.91496   -709.14586    22216.778    39208.867    43406.254   -15964.787      15.2149      13.1765      28.7324    5760.2466 
  957000      956.988    387.44068    16.176046   -725.31981   -709.14376    22617.272    44486.458     39584.38   -16219.024      15.2149      13.1765      28.7324    5760.2466 
  957500      957.488    405.41405    16.926453     -726.067   -709.14054    21994.811    43361.186    41286.421   -18663.173      15.2149      13.1765      28.7324    5760.2466 
  958000      957.988    400.87883    16.737103   -725.87352   -709.13641    23323.743    43854.442    40012.368    -13895.58      15.2149      13.1765      28.7324    5760.2466 
  958500      958.488    383.36557    16.005906   -725.13856   -709.13266    23148.215    44827.511    41212.808   -16595.673      15.2149      13.1765      28.7324    5760.2466 
  959000      958.988     379.6254     15.84975    -724.9796   -709.12985    23182.915    42293.486    43750.965   -16495.707      15.2149      13.1765      28.7324    5760.2466 
  959500      959.488    361.68376    15.100668   -724.22452   -709.12385     22221.06    43197.463    45031.983   -21566.268      15.2149      13.1765      28.7324    5760.2466 
  960000      959.988    373.88641    15.610141   -724.73095   -709.12081    22495.149    45186.924     40179.86   -17881.337      15.2149      13.1765      28.7324    5760.2466 
  960500      960.488    383.83372    16.025452   -725.14415    -709.1187    22010.864     41078.18    44518.054   -19563.642      15.2149      13.1765      28.7324    5760.2466 
  961000      960.988    384.08576    16.035975   -725.15049   -709.11452     22069.19    41928.663    43669.953   -19391.046      15.2149      13.1765      28.7324    5760.2466 
  961500      961.488    394.49427    16.470541     -725.582   -709.11146    22956.578    44559.599    41273.969   -16963.835      15.2149      13.1765      28.7324    5760.2466 
  962000      961.988    385.02117    16.075029    -725.1836   -709.10857    23758.038    43358.735    43710.401   -15795.021      15.2149      13.1765      28.7324    5760.2466 
  962500      962.488    381.98834    15.948405   -725.05253   -709.10413    20887.571    44235.902    43454.739   -25027.927      15.2149      13.1765      28.7324    5760.2466 
  963000      962.988    391.30472    16.337374   -725.43764   -709.10027    24074.159    43525.542    42947.693   -14250.758      15.2149      13.1765      28.7324    5760.2466 
  963500      963.488    383.43149    16.008658   -725.10587   -709.09721    24824.179    43199.642     44601.75   -13328.856      15.2149      13.1765      28.7324    5760.2466 
  964000      963.988    356.61845    14.889186   -723.98079    -709.0916    23208.649    43695.185    43624.734   -17693.971      15.2149      13.1765      28.7324    5760.2466 
  964500      964.488    367.58291    15.346964   -724.43574   -709.08878    23593.504     41984.37    45056.246   -16260.103      15.2149      13.1765      28.7324    5760.2466 
  965000      964.988    385.85776    16.109958   -725.19536    -709.0854    22184.627    42836.087    39667.944   -15950.152      15.2149      13.1765      28.7324    5760.2466 
  965500      965.488    375.44049    15.675026   -724.75623    -709.0812    24273.319    43026.899    46114.901   -16321.843      15.2149      13.1765      28.7324    5760.2466 
  966000      965.988    379.18518    15.831371   -724.90977    -709.0784     26061.51    45379.777    46359.496   -13554.744      15.2149      13.1765      28.7324    5760.2466 
  966500      966.488    390.71096    16.312584    -725.3868   -709.07422    20489.338    44118.322    40561.185   -23211.492      15.2149      13.1765      28.7324    5760.2466 
  967000      966.988     381.0581    15.909567   -724.97981   -709.07024    21120.325    42142.922    41853.059   -20635.004      15.2149      13.1765      28.7324    5760.2466 
  967500      967.488    373.78335    15.605839   -724.67137   -709.06553    22519.469    39690.604    46107.553    -18239.75      15.2149      13.1765      28.7324    5760.2466 
  968000      967.988    364.31697    15.210608   -724.27226   -709.06165    22919.122     44897.96    42855.593   -18996.188      15.2149      13.1765      28.7324    5760.2466 
  968500      968.488    379.64475    15.850558    -724.9081   -709.05754    21964.607    43402.075    40578.166   -18086.421      15.2149      13.1765      28.7324    5760.2466 
  969000      968.988    382.86438    15.984981   -725.03818    -709.0532    24221.635    44043.887    44411.979    -15790.96      15.2149      13.1765      28.7324    5760.2466 
  969500      969.488    382.99839    15.990576    -725.0401   -709.04952    23768.378    43120.408    44237.383   -16052.656      15.2149      13.1765      28.7324    5760.2466 
  970000      969.988    380.13014    15.870823   -724.91779   -709.04696    23767.475    45041.223    44008.457   -17747.255      15.2149      13.1765      28.7324    5760.2466 
  970500      970.488    376.69545    15.727422   -724.76916   -709.04174    20846.749    39752.655    39295.674   -16508.082      15.2149      13.1765      28.7324    5760.2466 
  971000      970.988    357.28952    14.917204    -723.9536    -709.0364    21094.458    43075.133    40493.431    -20285.19      15.2149      13.1765      28.7324    5760.2466 
  971500      971.488     380.6693    15.893334   -724.92705   -709.03372    22530.456    44755.199    41628.666   -18792.497      15.2149      13.1765      28.7324    5760.2466 
  972000      971.988    367.60525    15.347897   -724.37678   -709.02889    22612.021    44158.796     42479.89   -18802.624      15.2149      13.1765      28.7324    5760.2466 
  972500      972.488    366.14282    15.286839   -724.31236   -709.02553     21431.77    42105.228    39769.403    -17579.32      15.2149      13.1765      28.7324    5760.2466 
  973000      972.988    373.66877    15.601055   -724.62092   -709.01986    23115.081    45140.145    43724.335   -19519.236      15.2149      13.1765      28.7324    5760.2466 
  973500      973.488    382.38125     15.96481   -724.98052   -709.01571    22275.083    45561.196    40938.585   -19674.531      15.2149      13.1765      28.7324    5760.2466 
  974000      973.988    376.82047    15.732642   -724.74416   -709.01152    21889.689    41798.306    43003.799   -19133.039      15.2149      13.1765      28.7324    5760.2466 
  974500      974.488    366.07987     15.28421   -724.29093   -709.00672    22630.133    45957.776    42134.678   -20202.054      15.2149      13.1765      28.7324    5760.2466 
  975000      974.988    374.62226    15.640864    -724.6437   -709.00284    22210.632    39009.699    40758.961   -13136.764      15.2149      13.1765      28.7324    5760.2466 
  975500      975.488    387.06671    16.160433   -725.15859   -708.99815    23349.576     43818.67    42637.912   -16407.853      15.2149      13.1765      28.7324    5760.2466 
  976000      975.988    380.23197    15.875075   -724.86933   -708.99425    20603.663    40709.341    40269.582   -19167.934      15.2149      13.1765      28.7324    5760.2466 
  976500      976.488    364.58549    15.221819   -724.21043   -708.98861    22193.174    42981.545     41153.93   -17555.953      15.2149      13.1765      28.7324    5760.2466 
  977000      976.988    391.48657    16.344966    -725.3297   -708.98473    21978.375    43793.805     39635.46   -17494.141      15.2149      13.1765      28.7324    5760.2466 
  977500      977.488    361.50211    15.093084   -724.07282   -708.97973    22969.792    40548.516    43203.642   -14842.782      15.2149      13.1765      28.7324    5760.2466 
  978000      977.988     391.4257    16.342425   -725.31832    -708.9759    23275.532    42769.798    43132.004   -16075.208      15.2149      13.1765      28.7324    5760.2466 
  978500      978.488    390.05028       16.285   -725.25655   -708.97155    23402.323    43613.191    43594.232   -17000.455      15.2149      13.1765      28.7324    5760.2466 
  979000      978.988    389.67028    16.269134   -725.23612   -708.96699     24788.55    42589.159    45377.875   -13601.383      15.2149      13.1765      28.7324    5760.2466 
  979500      979.488    374.47252    15.634612   -724.59637   -708.96175    22882.823    41506.609    46072.913   -18931.052      15.2149      13.1765      28.7324    5760.2466 
  980000      979.988     391.6736    16.352775   -725.31019   -708.95742    22321.069    44321.025    40138.232   -17496.049      15.2149      13.1765      28.7324    5760.2466 
  980500      980.488    383.98001     16.03156    -724.9837   -708.95214    22575.193    43031.994    41447.762   -16754.177      15.2149      13.1765      28.7324    5760.2466 
  981000      980.988    385.23299    16.083873    -725.0309   -708.94703    22790.312    44649.158     38235.25   -14513.472      15.2149      13.1765      28.7324    5760.2466 
  981500      981.488    375.70937    15.686252    -724.6283   -708.94205    21860.084    43279.038    40583.265   -18282.053      15.2149      13.1765      28.7324    5760.2466 
  982000      981.988    375.63114    15.682986   -724.62109   -708.93811    22556.743    42076.039    40329.754   -14735.563      15.2149      13.1765      28.7324    5760.2466 
  982500      982.488    380.70031    15.894629   -724.82716   -708.93254    21953.317    42297.518    42837.461   -19275.029      15.2149      13.1765      28.7324    5760.2466 
  983000      982.988    361.65706    15.099554   -724.02583   -708.92628    21753.719    42826.598    40865.343   -18430.784      15.2149      13.1765      28.7324    5760.2466 
  983500      983.488    384.60641    16.057712   -724.97967   -708.92196    22669.676    43350.306    43509.594   -18850.871      15.2149      13.1765      28.7324    5760.2466 
  984000      983.988    384.84645    16.067735   -724.98416   -708.91642    22227.291    42425.003    42803.898   -18547.028      15.2149      13.1765      28.7324    5760.2466 
  984500      984.488    373.54472    15.595876   -724.50868   -708.91281    24469.075    45231.177    42711.221   -14535.174      15.2149      13.1765      28.7324    5760.2466 
  985000      984.988    380.02219    15.866317   -724.77307   -708.90676    24413.908    44178.904    44428.847   -15366.026      15.2149      13.1765      28.7324    5760.2466 
  985500      985.488    389.98388    16.282227   -725.18387   -708.90164    21779.137    45082.984    40817.346   -20562.919      15.2149      13.1765      28.7324    5760.2466 
  986000      985.988    372.29912    15.543871    -724.4397   -708.89583    24627.911    42956.212    43284.914   -12357.394      15.2149      13.1765      28.7324    5760.2466 
  986500      986.488    379.51707    15.845227   -724.73679   -708.89157    22479.665    43209.443    42283.331   -18053.778      15.2149      13.1765      28.7324    5760.2466 
  987000      986.988    394.28027    16.461606    -725.3479   -708.88629    24137.418      44453.5    43022.708   -15063.953      15.2149      13.1765      28.7324    5760.2466 
  987500      987.488    377.28111    15.751874   -724.63172   -708.87985    21901.578    41713.946    42078.355   -18087.568      15.2149      13.1765      28.7324    5760.2466 
  988000      987.988    383.83616    16.025554   -724.90096   -708.87541    23081.865    44110.491    43353.011   -18217.906      15.2149      13.1765      28.7324    5760.2466 
  988500      988.488    370.90781    15.485782   -724.35571   -708.86993    23467.438    45314.982    42151.236   -17063.905      15.2149      13.1765      28.7324    5760.2466 
  989000      988.988    365.26104    15.250024   -724.11482   -708.86479    21071.277    42602.971    37455.639   -16844.778      15.2149      13.1765      28.7324    5760.2466 
  989500      989.488    367.64822    15.349691   -724.21011   -708.86042    23115.776    44360.042    43498.259   -18510.972      15.2149      13.1765      28.7324    5760.2466 
  990000      989.988    378.60052     15.80696   -724.66197   -708.85501    23821.873    42833.118    43156.138   -14523.637      15.2149      13.1765      28.7324    5760.2466 
  990500      990.488    373.81979     15.60736   -724.45668   -708.84932    22283.575    42905.168    41940.385   -17994.827      15.2149      13.1765      28.7324    5760.2466 
  991000      990.988    362.21279    15.122756   -723.96614   -708.84338    21384.507     40462.32    37670.001   -13978.799      15.2149      13.1765      28.7324    5760.2466 
  991500      991.488    377.03605    15.741642   -724.58014    -708.8385    22010.708    42842.043    43639.855   -20449.773      15.2149      13.1765      28.7324    5760.2466 
  992000      991.988    383.56125    16.014076   -724.84736   -708.83328    22416.992    43669.607    43751.809   -20170.439      15.2149      13.1765      28.7324    5760.2466 
  992500      992.488     366.5215    15.302649   -724.12957   -708.82692    23629.663    42542.391    43565.528    -15218.93      15.2149      13.1765      28.7324    5760.2466 
  993000      992.988    385.54095    16.096731   -724.91904   -708.82231    21571.434    40982.468    39270.032   -15538.199      15.2149      13.1765      28.7324    5760.2466 
  993500      993.488    369.39568    15.422649   -724.23816   -708.81551    22800.509    41746.887     37396.95   -10742.311      15.2149      13.1765      28.7324    5760.2466 
  994000      993.988    397.76104    16.606932   -725.41696   -708.81003    21974.723    44743.608    40380.334   -19199.773      15.2149      13.1765      28.7324    5760.2466 
  994500      994.488    379.06673    15.826425   -724.63074   -708.80431    21723.548    42241.871    40162.205   -17233.433      15.2149      13.1765      28.7324    5760.2466 
  995000      994.988    375.00024    15.656645   -724.45576   -708.79911    21639.993    41660.322    40852.046    -17592.39      15.2149      13.1765      28.7324    5760.2466 
  995500      995.488    367.71015    15.352276   -724.14524   -708.79296    23792.754    43604.658     41810.06   -14036.457      15.2149      13.1765      28.7324    5760.2466 
  996000      995.988    383.66582    16.018442   -724.80561   -708.78717     24190.12    42050.269    43541.868   -13021.776      15.2149      13.1765      28.7324    5760.2466 
  996500      996.488    372.56418    15.554937   -724.33631   -708.78137    21724.007    44684.961    40178.177   -19691.116      15.2149      13.1765      28.7324    5760.2466 
  997000      996.988    394.80319    16.483439   -725.26013   -708.77669     20992.14    39929.211    40720.356   -17673.148      15.2149      13.1765      28.7324    5760.2466 
  997500      997.488    356.91171     14.90143   -723.67142   -708.76999    21637.351    43071.004    42211.616   -20370.568      15.2149      13.1765      28.7324    5760.2466 
  998000      997.988    396.07594    16.536577   -725.30158     -708.765    21605.391    46148.205     40409.55   -21741.584      15.2149      13.1765      28.7324    5760.2466 
  998500      998.488    386.12228    16.121002   -724.87953   -708.75853    21529.249    41739.809    44176.837     -21328.9      15.2149      13.1765      28.7324    5760.2466 
  999000      998.988    378.71359    15.811681   -724.56428    -708.7526    21498.038    44633.485    40440.894   -20580.264      15.2149      13.1765      28.7324    5760.2466 
  999500      999.488    359.25104      14.9991   -723.74584   -708.74674    23005.976    43912.236    44240.149   -19134.457      15.2149      13.1765      28.7324    5760.2466 
 1000000      999.988    391.11103    16.329287   -725.06947   -708.74018    26739.581    47713.889    44605.685    -12100.83      15.2149      13.1765      28.7324    5760.2466 
 1000012         1000    409.55377     17.09929   -725.84183   -708.74254     27334.28    43990.042    47311.934   -9299.1349      15.2149      13.1765      28.7324    5760.2466 
Loop time of 958.494 on 28 procs for 1000000 steps with 324 atoms

Performance: 90.141 ns/day, 0.266 hours/ns, 1043.303 timesteps/s
89.1% CPU use with 28 MPI tasks x no OpenMP threads

MPI task timing breakdown:
Section |  min time  |  avg time  |  max time  |%varavg| %total
---------------------------------------------------------------
Pair    | 774.06     | 824.63     | 897.26     | 106.8 | 86.03
Neigh   | 0          | 0          | 0          |   0.0 |  0.00
Comm    | 50.218     | 120.42     | 172.4      | 277.7 | 12.56
Output  | 0.098779   | 0.1019     | 0.11994    |   1.2 |  0.01
Modify  | 4.707      | 8.2216     | 22.508     | 201.3 |  0.86
Other   |            | 5.122      |            |       |  0.53

Nlocal:    11.5714 ave 15 max 6 min
Histogram: 2 1 2 1 2 3 5 5 3 4
Nghost:    645.5 ave 710 max 597 min
Histogram: 5 1 7 3 2 2 1 3 0 4
Neighs:    729.464 ave 981 max 363 min
Histogram: 2 1 2 1 4 3 3 6 3 3
FullNghs:  1458.93 ave 1930 max 766 min
Histogram: 2 1 2 1 2 3 5 5 3 4

Total # of neighbors = 40850
Ave neighs/atom = 126.08
Neighbor list builds = 0
Dangerous builds = 0

write_restart   POSCAR_1x1x1.rest

#unfix    1
#undump   1
Total wall time: 0:15:58
