LAMMPS (7 Dec 2015)
#----------- Initialize Simulation ------------ restart01
#processors	2 2 2
units		metal
boundary	p p p     ## periodic boundary condition  on x y z axis ##
atom_style atomic
#atom_modify map array sort 0 0.0

read_data	POSCAR_1x1x1.lammps
  triclinic box = (0 0 0) to (15.2149 13.1765 28.7324) with tilt (-7.60743 0 0)
  2 by 2 by 7 MPI processor grid
  reading atoms ...
  324 atoms

#----------- Define Potential -----------------
pair_style meam
pair_coeff * * MgAlZn.library.meam Mg Al Zn MgAlZn.parameter.meam Mg Al Zn 	#1=Mg 2=Al 3=Zn	#atoms/mass

#----------- Neighbor List --------------------
neighbor 2.0 bin
neigh_modify delay 10 check yes

#--------------  Run a simulation (minimization) ---------------------------------------
minimize       1.0e-4   1.0e-6   100   1000          #結構優化的條件
WARNING: Resetting reneighboring criteria during minimization (../min.cpp:168)
Neighbor list info ...
  2 neighbor list requests
  update every 1 steps, delay 0 steps, check yes
  max neighbors/atom: 2000, page size: 100000
  master list distance cutoff = 8
  ghost atom cutoff = 8
  binsize = 4 -> bins = 6 4 8
Memory usage per processor = 8.6532 Mbytes
Step Temp E_pair E_mol TotEng Press 
       0            0   -551.14464            0   -551.14464    9857.5812 
      15            0   -566.71233            0   -566.71233    5717.8472 
Loop time of 0.0280128 on 28 procs for 15 steps with 324 atoms

81.0% CPU use with 28 MPI tasks x no OpenMP threads

Minimization stats:
  Stopping criterion = energy tolerance
  Energy initial, next-to-last, final = 
        -551.144640113      -566.67112554     -566.712330586
  Force two-norm initial, final = 23.5857 1.3365
  Force max component initial, final = 3.01334 0.351283
  Final line search alpha, max atom move = 0.181247 0.0636692
  Iterations, force evaluations = 15 30

MPI task timing breakdown:
Section |  min time  |  avg time  |  max time  |%varavg| %total
---------------------------------------------------------------
Pair    | 0.021819   | 0.023538   | 0.025603   |   0.5 | 84.02
Neigh   | 0          | 0          | 0          |   0.0 |  0.00
Comm    | 0.00153    | 0.0034245  | 0.0052237  |   1.5 | 12.22
Output  | 0          | 0          | 0          |   0.0 |  0.00
Modify  | 0          | 0          | 0          |   0.0 |  0.00
Other   |            | 0.001051   |            |       |  3.75

Nlocal:    11.5714 ave 16 max 6 min
Histogram: 1 0 2 4 2 5 4 3 2 5
Nghost:    661.5 ave 721 max 620 min
Histogram: 7 4 1 3 5 0 0 2 4 2
Neighs:    721.393 ave 1041 max 379 min
Histogram: 1 2 3 2 7 3 3 4 2 1
FullNghs:  1442.79 ave 2020 max 758 min
Histogram: 1 2 3 3 4 5 2 3 4 1

Total # of neighbors = 40398
Ave neighs/atom = 124.685
Neighbor list builds = 0
Dangerous builds = 0
velocity all  create 393.0 4928459 #rot yes dist gaussian

#--------------  Run a simulation (Relaxation)  ----------------------------------------
fix  1  all  nvt   temp  393.0  393.0  100				#damping constant
#fix  2  all  npt   temp  393.0  393.0  50 iso 0.0 0.0 1000.0
#fix  2  all deform 1 x final 0 15.6906 y final 0 13.5884 z final 0 25.2339 xy final -7.8452 units lattice
#fix  3  all  npt   temp  393.0  393.0  50 z 0.0 0.0 1000.0

#variable b equal 1
#fix 2 all efield  0.0  0.0  v_b
#compute pot all pe/atom


#----------- Output --------------------------
thermo	 500
timestep  0.001		#1.0 fs
thermo_style	custom step time temp ke pe etotal press pxx pyy pzz lx ly lz vol

dump 1 all custom 10000 dump.eq id type x y z
dump_modify 1 sort  id

run        1000000	#10000	 ps
Neighbor list info ...
  2 neighbor list requests
  update every 1 steps, delay 10 steps, check yes
  max neighbors/atom: 2000, page size: 100000
  master list distance cutoff = 8
  ghost atom cutoff = 8
  binsize = 4 -> bins = 6 4 8
Memory usage per processor = 7.54367 Mbytes
Step Time Temp KinEng PotEng TotEng Press Pxx Pyy Pzz Lx Ly Lz Volume 
      15            0          393    16.408154   -566.71233   -550.30418    8760.3973    28037.745    38494.464   -40251.018      15.2149      13.1765      28.7324    5760.2466 
     500        0.485    210.02082    8.7685847   -559.06582   -550.29723    8798.9158    32667.478    40313.049    -46583.78      15.2149      13.1765      28.7324    5760.2466 
    1000        0.985    207.74861    8.6737179   -558.97116   -550.29745    10132.704     33019.93    45416.749   -48038.568      15.2149      13.1765      28.7324    5760.2466 
    1500        1.485    208.77332    8.7165007   -559.01267   -550.29617    10102.072    33011.682     43653.55   -46359.015      15.2149      13.1765      28.7324    5760.2466 
    2000        1.985    208.64599    8.7111841    -559.0067   -550.29551    9192.1692    35364.909    39340.011   -47128.413      15.2149      13.1765      28.7324    5760.2466 
    2500        2.485     216.6627    9.0458902   -559.34085   -550.29496     8195.674     30759.35     41807.69   -47980.018      15.2149      13.1765      28.7324    5760.2466 
    3000        2.985    203.98305    8.5165018   -558.81012   -550.29362    8542.2469     29124.85    43081.157   -46579.266      15.2149      13.1765      28.7324    5760.2466 
    3500        3.485    211.78632    8.8422963   -559.13425   -550.29195    9286.7984    32466.614    42035.852   -46642.071      15.2149      13.1765      28.7324    5760.2466 
    4000        3.985    216.79329    9.0513426    -559.3417   -550.29036    8992.1782    32985.102    45136.671   -51145.239      15.2149      13.1765      28.7324    5760.2466 
    4500        4.485    203.46638    8.4949305   -558.78335   -550.28842    9171.0754    33674.655    45483.536   -51644.966      15.2149      13.1765      28.7324    5760.2466 
    5000        4.985    218.18494    9.1094455   -559.39628   -550.28683    8800.9292    32255.435    44394.435   -50247.082      15.2149      13.1765      28.7324    5760.2466 
    5500        5.485    222.29618    9.2810936   -559.56625   -550.28515    8826.0447    29556.625    47396.127   -50474.617      15.2149      13.1765      28.7324    5760.2466 
    6000        5.985    215.74416    9.0075404   -559.28978   -550.28224     8481.878    30851.205    43680.162   -49085.733      15.2149      13.1765      28.7324    5760.2466 
    6500        6.485    218.41047    9.1188612   -559.39905   -550.28019    8624.0747    34244.894    43854.679    -52227.35      15.2149      13.1765      28.7324    5760.2466 
    7000        6.985    220.74233    9.2162191   -559.49394   -550.27772    8640.5091     32834.59    46372.881   -53285.943      15.2149      13.1765      28.7324    5760.2466 
    7500        7.485    214.87691    8.9713317   -559.24563    -550.2743    7456.7976    32520.663    45905.709   -56055.979      15.2149      13.1765      28.7324    5760.2466 
    8000        7.985     217.9021    9.0976366   -559.36882   -550.27119    7666.0178    30573.899     42327.04   -49902.885      15.2149      13.1765      28.7324    5760.2466 
    8500        8.485    215.03665    8.9780009   -559.24515   -550.26715     9223.422    32406.426    44359.818   -49095.978      15.2149      13.1765      28.7324    5760.2466 
    9000        8.985    220.06278    9.1878471   -559.45301   -550.26516    8370.8782     32420.02    41967.401   -49274.787      15.2149      13.1765      28.7324    5760.2466 
    9500        9.485    214.47804    8.9546786   -559.21468      -550.26     8529.884    31877.865    44483.252   -50771.465      15.2149      13.1765      28.7324    5760.2466 
   10000        9.985    210.94102    8.8070042   -559.06318   -550.25617    9333.4602    32236.321        42894    -47129.94      15.2149      13.1765      28.7324    5760.2466 
   10500       10.485    210.82017    8.8019585   -559.05435   -550.25239     8635.141    31831.875    41477.092   -47403.544      15.2149      13.1765      28.7324    5760.2466 
   11000       10.985    226.06523    9.4384556   -559.68634   -550.24788    7559.2858     28801.56    44757.197   -50880.899      15.2149      13.1765      28.7324    5760.2466 
   11500       11.485      215.812    9.0103726   -559.25303   -550.24266    8637.8172    32989.855    41634.788   -48711.191      15.2149      13.1765      28.7324    5760.2466 
   12000       11.985    233.25106    9.7384713   -559.97748   -550.23901    8682.8336    28347.862    44974.886   -47274.247      15.2149      13.1765      28.7324    5760.2466 
   12500       12.485    224.93996    9.3914743    -559.6244   -550.23293    8674.9389    33806.751    46129.448   -53911.382      15.2149      13.1765      28.7324    5760.2466 
   13000       12.985    226.88321    9.4726068   -559.70045   -550.22784    8833.6183    33372.756    43907.794   -50779.695      15.2149      13.1765      28.7324    5760.2466 
   13500       13.485    208.92333    8.7227638   -558.94532   -550.22255    8301.1152     29641.08    45457.157   -50194.891      15.2149      13.1765      28.7324    5760.2466 
   14000       13.985    218.22138    9.1109668   -559.32737    -550.2164    9281.0977    31920.206    43468.811   -47545.723      15.2149      13.1765      28.7324    5760.2466 
   14500       14.485    210.17488    8.7750169   -558.98502      -550.21    9137.4662    33167.983     45004.79   -50760.374      15.2149      13.1765      28.7324    5760.2466 
   15000       14.985    219.48046    9.1635345   -559.36826   -550.20472    9207.4613    35785.931    45953.136   -54116.683      15.2149      13.1765      28.7324    5760.2466 
   15500       15.485    217.62964    9.0862611   -559.28527   -550.19901    9229.1116    33127.255    48210.802   -53650.721      15.2149      13.1765      28.7324    5760.2466 
   16000       15.985    211.58624    8.8339427   -559.02509   -550.19115    7876.8985    31655.486    41598.153   -49622.943      15.2149      13.1765      28.7324    5760.2466 
   16500       16.485    209.20363    8.7344663   -558.91908   -550.18462    9127.3381    31610.329    48037.582   -52265.898      15.2149      13.1765      28.7324    5760.2466 
   17000       16.985    216.49482    9.0388812    -559.2173   -550.17842    9246.7413    28590.621    43517.546   -44367.944      15.2149      13.1765      28.7324    5760.2466 
   17500       17.485    214.54981    8.9576749   -559.12851   -550.17084    9290.8325    34029.623    44944.208   -51101.333      15.2149      13.1765      28.7324    5760.2466 
   18000       17.985    203.98234    8.5164723    -558.6806   -550.16413    9267.7033     30257.31    46802.873   -49257.073      15.2149      13.1765      28.7324    5760.2466 
   18500       18.485    226.74193    9.4667085   -559.62373   -550.15702    8679.6819    31830.402    47063.041   -52854.396      15.2149      13.1765      28.7324    5760.2466 
   19000       18.985    206.41105    8.6178732   -558.76609   -550.14822    7447.5054    31758.118    44343.327   -53758.928      15.2149      13.1765      28.7324    5760.2466 
   19500       19.485    228.92181    9.5577206    -559.6991   -550.14138    9372.5772    30922.988      46667.7   -49472.956      15.2149      13.1765      28.7324    5760.2466 
   20000       19.985    215.66704    9.0043204   -559.13651   -550.13219    9945.2013    30770.726    45362.791   -46297.913      15.2149      13.1765      28.7324    5760.2466 
   20500       20.485    217.46409    9.0793489   -559.20347   -550.12412    8630.5754    34836.917    45072.719    -54017.91      15.2149      13.1765      28.7324    5760.2466 
   21000       20.985    217.27759    9.0715625   -559.18698   -550.11542    9221.6038     31685.16    48381.133   -52401.482      15.2149      13.1765      28.7324    5760.2466 
   21500       21.485    231.89988    9.6820582   -559.78944   -550.10738    8972.5248    32244.659    41544.362   -46871.447      15.2149      13.1765      28.7324    5760.2466 
   22000       21.985    216.91729    9.0565197   -559.15494   -550.09842    9136.5036    32253.858    48021.653       -52866      15.2149      13.1765      28.7324    5760.2466 
   22500       22.485    221.17559    9.2343081   -559.32328   -550.08897     9014.902    29241.031    42892.359   -45088.684      15.2149      13.1765      28.7324    5760.2466 
   23000       22.985    218.94682    9.1412547   -559.22113   -550.07987    8269.0818    30242.371    41846.575     -47281.7      15.2149      13.1765      28.7324    5760.2466 
   23500       23.485    226.51604    9.4572773   -559.52827   -550.07099    8235.3841    29799.211    46014.885   -51107.943      15.2149      13.1765      28.7324    5760.2466 
   24000       23.985    227.73138    9.5080189    -559.5692   -550.06118    8912.0541    28854.286    46701.175   -48819.299      15.2149      13.1765      28.7324    5760.2466 
   24500       24.485    217.65618    9.0873691   -559.13854   -550.05117    9060.5117    30310.783     43538.98   -46668.228      15.2149      13.1765      28.7324    5760.2466 
   25000       24.985    217.25848    9.0707647   -559.11207    -550.0413    8729.4116    31039.476    42421.138   -47272.379      15.2149      13.1765      28.7324    5760.2466 
   25500       25.485    223.42178    9.3280888   -559.35942   -550.03134    9158.8742    35658.013    44767.019   -52948.409      15.2149      13.1765      28.7324    5760.2466 
   26000       25.985    215.80294    9.0099943   -559.03119    -550.0212    9386.5802    31798.879    40972.701   -44611.839      15.2149      13.1765      28.7324    5760.2466 
   26500       26.485     216.2682    9.0294195   -559.04009   -550.01067    8349.2856    30577.786     47521.79   -53051.719      15.2149      13.1765      28.7324    5760.2466 
   27000       26.985      219.116     9.148318   -559.14831   -549.99999    9707.8727    31850.437    46220.939   -48947.758      15.2149      13.1765      28.7324    5760.2466 
   27500       27.485    231.04884    9.6465262   -559.63589   -549.98936    9073.3917     31504.47    48373.197   -52657.492      15.2149      13.1765      28.7324    5760.2466 
   28000       27.985    214.92128    8.9731841   -558.95074   -549.97755    9332.7789    33624.235    40494.102   -46120.001      15.2149      13.1765      28.7324    5760.2466 
   28500       28.485    215.87882    9.0131625   -558.98011   -549.96694    9846.7448    33051.001    46571.719   -50082.485      15.2149      13.1765      28.7324    5760.2466 
   29000       28.985    224.91493    9.3904292   -559.34737   -549.95694    8245.7945    30974.985     45034.14   -51271.742      15.2149      13.1765      28.7324    5760.2466 
   29500       29.485     221.0437    9.2288015   -559.17341   -549.94461     9195.755    30773.076    41468.827   -44654.637      15.2149      13.1765      28.7324    5760.2466 
   30000       29.985    228.76618    9.5512231   -559.48486   -549.93364    10310.741    34008.382    48293.041   -51369.199      15.2149      13.1765      28.7324    5760.2466 
   30500       30.485    223.22839    9.3200147   -559.24209   -549.92207     10243.31    34179.709    43842.265   -47292.045      15.2149      13.1765      28.7324    5760.2466 
   31000       30.985    205.07031    8.5618959   -558.47153   -549.90963    9267.7387    33123.926    43427.398   -48748.107      15.2149      13.1765      28.7324    5760.2466 
   31500       31.485    212.17472    8.8585125   -558.75617   -549.89766    9949.7519    31968.074    46900.485   -49019.303      15.2149      13.1765      28.7324    5760.2466 
   32000       31.985    220.60315     9.210408   -559.09628   -549.88587     10046.55    34556.608    45073.515   -49490.471      15.2149      13.1765      28.7324    5760.2466 
   32500       32.485    209.19408    8.7340677   -558.60772   -549.87365    8933.5859    32059.686     48880.53   -54139.458      15.2149      13.1765      28.7324    5760.2466 
   33000       32.985    226.10352     9.440054   -559.30223   -549.86217    9166.5104    30773.538    42706.149   -45980.156      15.2149      13.1765      28.7324    5760.2466 
   33500       33.485    216.06604    9.0209789      -558.87   -549.84902    8487.5752      30117.3    44709.295    -49363.87      15.2149      13.1765      28.7324    5760.2466 
   34000       33.985     215.4247    8.9942026   -558.83091    -549.8367    9328.5437    32289.254    47351.162   -51654.784      15.2149      13.1765      28.7324    5760.2466 
   34500       34.485    221.91615     9.265227    -559.0898   -549.82457    8435.0031    30214.549    48018.868   -52928.408      15.2149      13.1765      28.7324    5760.2466 
   35000       34.985    213.97282    8.9335851   -558.74561   -549.81202     8385.373    33829.524    45221.656   -53895.061      15.2149      13.1765      28.7324    5760.2466 
   35500       35.485    220.44823    9.2039398   -559.00254    -549.7986    9090.2779    30448.668    45975.411   -49153.245      15.2149      13.1765      28.7324    5760.2466 
   36000       35.985    219.66394    9.1711949    -558.9577    -549.7865    9365.0547    32484.851      42855.2   -47244.887      15.2149      13.1765      28.7324    5760.2466 
   36500       36.485    224.02798    9.3533983   -559.12772   -549.77432    8644.1095    33332.587    43628.753   -51029.012      15.2149      13.1765      28.7324    5760.2466 
   37000       36.985     218.7036    9.1310998   -558.89232   -549.76122    8014.9249    31753.538    43464.733   -51173.496      15.2149      13.1765      28.7324    5760.2466 
   37500       37.485    209.36871    8.7413585   -558.48964   -549.74828    9269.2112    34162.844    44697.909    -51053.12      15.2149      13.1765      28.7324    5760.2466 
   38000       37.985    223.58068    9.3347232   -559.07104   -549.73632    9018.8491    33372.514    42394.448   -48710.414      15.2149      13.1765      28.7324    5760.2466 
   38500       38.485    217.53665    9.0823784    -558.8055   -549.72313    8008.6503    30582.645    44963.139   -51519.833      15.2149      13.1765      28.7324    5760.2466 
   39000       38.985    217.25911    9.0707909   -558.78066   -549.70987    8560.8111    31495.695    48218.103   -54031.364      15.2149      13.1765      28.7324    5760.2466 
   39500       39.485    224.34805    9.3667615   -559.06438   -549.69762    7938.3589    33071.496    44130.317   -53386.736      15.2149      13.1765      28.7324    5760.2466 
   40000       39.985      222.723    9.2989139   -558.98363   -549.68472    9373.1346    34190.618    42585.094   -48656.308      15.2149      13.1765      28.7324    5760.2466 
   40500       40.485    227.05342    9.4797133    -559.1518   -549.67208     9007.311    30248.741    43607.757   -46834.565      15.2149      13.1765      28.7324    5760.2466 
   41000       40.985    226.47705    9.4556494   -559.11496   -549.65931    9617.0257    35030.378    43105.962   -49285.263      15.2149      13.1765      28.7324    5760.2466 
   41500       41.485    213.92366    8.9315327   -558.57668   -549.64515    9235.9563    34161.529    47483.807   -53937.466      15.2149      13.1765      28.7324    5760.2466 
   42000       41.985    217.90897    9.0979231   -558.73117   -549.63324    9142.1239    31010.288    42696.186   -46280.102      15.2149      13.1765      28.7324    5760.2466 
   42500       42.485    216.68214    9.0467018   -558.66713   -549.62043    8721.8488    32474.743    43879.831   -50189.028      15.2149      13.1765      28.7324    5760.2466 
   43000       42.985    220.61988    9.2111066   -558.81835   -549.60725    8942.8823    36307.241    45177.456    -54656.05      15.2149      13.1765      28.7324    5760.2466 
   43500       43.485    209.60558    8.7512482   -558.34501   -549.59376    9610.4726    32094.732    44755.364   -48018.679      15.2149      13.1765      28.7324    5760.2466 
   44000       43.985    231.67428     9.672639   -559.25401   -549.58137    9321.5013    32047.325    44379.121   -48461.942      15.2149      13.1765      28.7324    5760.2466 
   44500       44.485    230.78626    9.6355632    -559.2046   -549.56903    8719.2775    29155.203    45245.764   -48243.134      15.2149      13.1765      28.7324    5760.2466 
   45000       44.985    219.06401    9.1461475    -558.7016   -549.55545    9475.2449    32673.504    47725.947   -51973.716      15.2149      13.1765      28.7324    5760.2466 
   45500       45.485    226.84523    9.4710214   -559.01466   -549.54364    9274.6316    34443.729    45250.892   -51870.726      15.2149      13.1765      28.7324    5760.2466 
   46000       45.985    230.82244    9.6370738   -559.16731   -549.53024    9242.6391    32141.893    43561.934    -47975.91      15.2149      13.1765      28.7324    5760.2466 
   46500       46.485     227.4412    9.4959035   -559.01366   -549.51776    8175.2225    32062.012    43228.983   -50765.327      15.2149      13.1765      28.7324    5760.2466 
   47000       46.985    215.97887    9.0173398   -558.52192   -549.50458    10405.182    30243.635     45098.23    -44126.32      15.2149      13.1765      28.7324    5760.2466 
   47500       47.485    220.81789    9.2193735   -558.71068   -549.49131    9698.5677    32390.031    42957.853   -46252.181      15.2149      13.1765      28.7324    5760.2466 
   48000       47.985    228.79696     9.552508   -559.03173   -549.47922    9493.9341    32154.588     44599.07   -48271.855      15.2149      13.1765      28.7324    5760.2466 
   48500       48.485    227.91167    9.5155463   -558.98252   -549.46698    9613.6661    32266.378    47665.253   -51090.634      15.2149      13.1765      28.7324    5760.2466 
   49000       48.985    239.68632     10.00715   -559.46255    -549.4554    9512.7089    29830.513    46306.298   -47598.684      15.2149      13.1765      28.7324    5760.2466 
   49500       49.485     231.2214     9.653731   -559.09631   -549.44258     9232.609    27105.879    46052.876   -45460.929      15.2149      13.1765      28.7324    5760.2466 
   50000       49.985    225.97716    9.4347784   -558.86429   -549.42951    9952.5901    35088.282    48340.548    -53571.06      15.2149      13.1765      28.7324    5760.2466 
   50500       50.485    240.72579    10.050549   -559.46911   -549.41856    9576.8954    36761.688    42990.781   -51021.783      15.2149      13.1765      28.7324    5760.2466 
   51000       50.985    228.62434    9.5453011   -558.95122   -549.40591    9465.4545    32033.608    43087.446   -46724.691      15.2149      13.1765      28.7324    5760.2466 
   51500       51.485    221.85989     9.262878   -558.65596   -549.39308    10308.883    35083.527    44461.653   -48618.532      15.2149      13.1765      28.7324    5760.2466 
   52000       51.985    234.18468    9.7774507   -559.15905    -549.3816    9169.3348    33427.282    46398.998   -52318.276      15.2149      13.1765      28.7324    5760.2466 
   52500       52.485    215.51792    8.9980946   -558.36794   -549.36985    9488.9349    30488.119    45324.996    -47346.31      15.2149      13.1765      28.7324    5760.2466 
   53000       52.985    220.94853     9.224828   -558.58183     -549.357    8366.1381    32516.336    45940.726   -53358.648      15.2149      13.1765      28.7324    5760.2466 
   53500       53.485     223.0191    9.3112766   -558.65718    -549.3459    9966.4657    30024.457    48071.864   -48196.924      15.2149      13.1765      28.7324    5760.2466 
   54000       53.985    230.76697    9.6347581   -558.96941   -549.33465    8657.3075    31766.745    43671.992   -49466.815      15.2149      13.1765      28.7324    5760.2466 
   54500       54.485    225.72678    9.4243247   -558.74672   -549.32239    9976.1673    32665.585    43912.791   -46649.874      15.2149      13.1765      28.7324    5760.2466 
   55000       54.985    222.25175     9.279239   -558.58951   -549.31027    9376.6681    30810.107    45498.732   -48178.834      15.2149      13.1765      28.7324    5760.2466 
   55500       55.485    227.49894    9.4983144   -558.79718   -549.29886    9305.9163    34517.889     45104.35   -51704.491      15.2149      13.1765      28.7324    5760.2466 
   56000       55.985    232.94799    9.7258178   -559.01451   -549.28869    9899.6122     35170.26     42690.11   -48161.534      15.2149      13.1765      28.7324    5760.2466 
   56500       56.485    216.00984    9.0186324   -558.29425   -549.27562       8881.9    34454.678     42818.45   -50627.427      15.2149      13.1765      28.7324    5760.2466 
   57000       56.985    227.32601    9.4910944    -558.7554   -549.26431    10326.709      34303.2    44433.008   -47756.082      15.2149      13.1765      28.7324    5760.2466 
   57500       57.485    227.93066     9.516339   -558.77032   -549.25398    9947.0169    35799.271    40474.155   -46432.376      15.2149      13.1765      28.7324    5760.2466 
   58000       57.985    224.17347    9.3594724   -558.60085   -549.24137    9975.0388    35603.399    44190.888   -49869.171      15.2149      13.1765      28.7324    5760.2466 
   58500       58.485    225.90135    9.4316135   -558.66215   -549.23053    9991.8643     33568.52    42143.704    -45736.63      15.2149      13.1765      28.7324    5760.2466 
   59000       58.985     234.3809    9.7856432   -559.00563   -549.21999     9473.968     31737.64     44579.45   -47895.185      15.2149      13.1765      28.7324    5760.2466 
   59500       59.485    227.46448    9.4968755   -558.70523   -549.20835    10211.982    33228.113     45460.02   -48052.186      15.2149      13.1765      28.7324    5760.2466 
   60000       59.985    236.02264    9.8541875    -559.0517   -549.19751    8873.0655    32970.464    44011.986   -50363.253      15.2149      13.1765      28.7324    5760.2466 
   60500       60.485    223.60165    9.3355983    -558.5227    -549.1871    10909.479    31959.244    43426.437   -42657.245      15.2149      13.1765      28.7324    5760.2466 
   61000       60.985    218.54686    9.1245556   -558.30018   -549.17563    10077.814    38892.626    43469.084   -52128.269      15.2149      13.1765      28.7324    5760.2466 
   61500       61.485     222.4779    9.2886809    -558.4526   -549.16392    11565.948    33164.315    43235.749   -41702.218      15.2149      13.1765      28.7324    5760.2466 
   62000       61.985    231.20648    9.6531078   -558.80803   -549.15492     10196.21    34121.026    37484.875   -41017.271      15.2149      13.1765      28.7324    5760.2466 
   62500       62.485    225.86653    9.4301597   -558.57339   -549.14323    10157.965    35803.071    48586.046   -53915.223      15.2149      13.1765      28.7324    5760.2466 
   63000       62.985    232.41244    9.7034582   -558.83545   -549.13199    8801.4626    32364.556    41468.541   -47428.709      15.2149      13.1765      28.7324    5760.2466 
   63500       63.485    232.37186    9.7017636   -558.82361   -549.12185    9250.8987    33866.249    41158.173   -47271.725      15.2149      13.1765      28.7324    5760.2466 
   64000       63.985    237.22266    9.9042897   -559.01536   -549.11107    10567.886    32531.105    41280.218   -42107.665      15.2149      13.1765      28.7324    5760.2466 
   64500       64.485    241.48131    10.082093   -559.18236   -549.10027    9744.9032    35932.627    41302.409   -48000.326      15.2149      13.1765      28.7324    5760.2466 
   65000       64.985    220.85923    9.2210998    -558.3099    -549.0888    10452.331    32882.736     42893.82   -44419.562      15.2149      13.1765      28.7324    5760.2466 
   65500       65.485    229.84884    9.5964251    -558.6753   -549.07887    9951.1912    36164.219     41576.35   -47886.996      15.2149      13.1765      28.7324    5760.2466 
   66000       65.985    234.38602    9.7858571   -558.85428   -549.06842    9933.0984    30586.776    46626.348   -47413.829      15.2149      13.1765      28.7324    5760.2466 
   66500       66.485    223.61598     9.336197   -558.39321   -549.05701    9778.0515    32251.494    45773.982   -48691.321      15.2149      13.1765      28.7324    5760.2466 
   67000       66.985    229.25907    9.5718016   -558.61861    -549.0468    8757.1961     34634.47    41618.132   -49981.014      15.2149      13.1765      28.7324    5760.2466 
   67500       67.485    220.98012    9.2261468   -558.26191   -549.03577    9671.3922    33919.023    41468.837   -46373.684      15.2149      13.1765      28.7324    5760.2466 
   68000       67.985    224.97299    9.3928533   -558.41883   -549.02598    10502.974    31052.892    46926.325   -46470.296      15.2149      13.1765      28.7324    5760.2466 
   68500       68.485      219.153    9.1498626   -558.16462   -549.01476    9022.7953    33462.106    44321.906   -50715.626      15.2149      13.1765      28.7324    5760.2466 
   69000       68.985    239.65679    10.005917   -559.01134   -549.00543    8905.5151     35351.24    45212.721   -53847.415      15.2149      13.1765      28.7324    5760.2466 
   69500       69.485    211.87609    8.8460442     -557.839   -548.99295    9724.5716    32928.044    45318.124   -49072.454      15.2149      13.1765      28.7324    5760.2466 
   70000       69.985    247.42638    10.330305   -559.31478   -548.98448    8480.7305    28232.849    43691.827   -46482.485      15.2149      13.1765      28.7324    5760.2466 
   70500       70.485     243.6788     10.17384    -559.1468   -548.97296    8171.4716    35097.972    40778.434   -51361.992      15.2149      13.1765      28.7324    5760.2466 
   71000       70.985    233.78369    9.7607089   -558.72284   -548.96213    9474.2861    32170.699    45289.972   -49037.813      15.2149      13.1765      28.7324    5760.2466 
   71500       71.485    213.01128    8.8934398   -557.84424    -548.9508    9096.0622    29726.499    44547.978   -46986.291      15.2149      13.1765      28.7324    5760.2466 
   72000       71.985    227.67918    9.5058393   -558.44707   -548.94123    8883.1874    34185.227    40413.518   -47949.183      15.2149      13.1765      28.7324    5760.2466 
   72500       72.485    230.07203    9.6057436   -558.53571   -548.92997    9791.8537      33769.8    44963.435   -49357.674      15.2149      13.1765      28.7324    5760.2466 
   73000       72.985    228.79205     9.552303   -558.47132   -548.91901    10484.445     30989.05    46353.658   -45889.374      15.2149      13.1765      28.7324    5760.2466 
   73500       73.485    233.35888    9.7429729   -558.65188   -548.90891    9477.0507    32992.859    45333.349   -49895.056      15.2149      13.1765      28.7324    5760.2466 
   74000       73.985    244.85282    10.222857   -559.12161   -548.89875    10252.395    34042.328    45951.167   -49236.312      15.2149      13.1765      28.7324    5760.2466 
   74500       74.485    227.84565    9.5127899   -558.39969    -548.8869    9823.2729    31341.123    47908.024   -49779.329      15.2149      13.1765      28.7324    5760.2466 
   75000       74.985    230.61335    9.6283441   -558.50488   -548.87654    9684.9475    29042.669    47119.886   -47107.712      15.2149      13.1765      28.7324    5760.2466 
   75500       75.485    213.54745    8.9158254   -557.78057   -548.86474    8681.6057    30968.763    45761.834    -50685.78      15.2149      13.1765      28.7324    5760.2466 
   76000       75.985    247.36176    10.327608   -559.18303   -548.85542    7856.9081     31660.82    44546.313   -52636.408      15.2149      13.1765      28.7324    5760.2466 
   76500       76.485    231.45159    9.6633414   -558.50691   -548.84357    9019.4081    33704.039    47479.278   -54125.093      15.2149      13.1765      28.7324    5760.2466 
   77000       76.985     227.0301    9.4787399   -558.31239   -548.83365    8903.2285    31861.816    42219.356   -47371.487      15.2149      13.1765      28.7324    5760.2466 
   77500       77.485     239.0377    9.9800696   -558.80195   -548.82188     8832.755    32789.484    43278.645   -49569.864      15.2149      13.1765      28.7324    5760.2466 
   78000       77.985    231.81094    9.6783449    -558.4893   -548.81096    8558.5142    28766.046    44779.749   -47870.252      15.2149      13.1765      28.7324    5760.2466 
   78500       78.485    239.17672    9.9858738   -558.78546   -548.79958    8999.2097    30319.494    46200.107   -49521.973      15.2149      13.1765      28.7324    5760.2466 
   79000       78.985     229.9493    9.6006192   -558.38947   -548.78885    8128.6831    33221.281    42720.044   -51555.276      15.2149      13.1765      28.7324    5760.2466 
   79500       79.485    227.21468    9.4864464   -558.26497   -548.77852    9294.1072    31051.298    49309.867   -52478.844      15.2149      13.1765      28.7324    5760.2466 
   80000       79.985     227.2074    9.4861422   -558.25284    -548.7667    9545.4036    30688.776    43939.981   -45992.546      15.2149      13.1765      28.7324    5760.2466 
   80500       80.485    230.81478    9.6367539   -558.39314   -548.75639    10409.905    32415.312    46964.733   -48150.331      15.2149      13.1765      28.7324    5760.2466 
   81000       80.985    236.74559    9.8843714   -558.62901   -548.74463    9293.2486    35086.747    47945.738   -55152.739      15.2149      13.1765      28.7324    5760.2466 
   81500       81.485    225.25364    9.4045709   -558.13831   -548.73374    9696.3357    29238.032    49506.861   -49655.886      15.2149      13.1765      28.7324    5760.2466 
   82000       81.985    229.90404    9.5987296   -558.32178   -548.72305    10085.033    34173.993      44753.3   -48672.195      15.2149      13.1765      28.7324    5760.2466 
   82500       82.485    232.90722    9.7241157   -558.43532    -548.7112    9867.0297    33194.827    45461.146   -49054.884      15.2149      13.1765      28.7324    5760.2466 
   83000       82.985    246.55327    10.293852   -558.99404   -548.70019    8600.5672    31703.483    41735.197   -47636.978      15.2149      13.1765      28.7324    5760.2466 
   83500       83.485    233.15577    9.7344926   -558.42337   -548.68888    8453.9537    29033.698    45068.298   -48740.135      15.2149      13.1765      28.7324    5760.2466 
   84000       83.985     234.7152    9.7996006   -558.47679   -548.67718    9486.7367    32448.341    42367.267   -46355.398      15.2149      13.1765      28.7324    5760.2466 
   84500       84.485     234.6191    9.7955883   -558.46068    -548.6651    9277.2275    30621.699    45666.726   -48456.743      15.2149      13.1765      28.7324    5760.2466 
   85000       84.985    245.88702    10.266036   -558.92076   -548.65472    8842.7299    30377.409    44508.859   -48358.079      15.2149      13.1765      28.7324    5760.2466 
   85500       85.485    247.82556    10.346972   -558.98878   -548.64181    9506.7407    32973.476    40302.777   -44756.032      15.2149      13.1765      28.7324    5760.2466 
   86000       85.985    237.20831    9.9036907    -558.5343   -548.63061    8325.9449     29582.13    45401.742   -50006.038      15.2149      13.1765      28.7324    5760.2466 
   86500       86.485    230.84047    9.6378266   -558.25561   -548.61778    9241.7567    30523.556    46104.122   -48902.407      15.2149      13.1765      28.7324    5760.2466 
   87000       86.985    251.25904    10.490323   -559.09841   -548.60809    9467.1434    33377.978    46514.025   -51490.573      15.2149      13.1765      28.7324    5760.2466 
   87500       87.485    229.91701    9.5992711   -558.19477    -548.5955    9016.1067      33285.6    41205.427   -47442.707      15.2149      13.1765      28.7324    5760.2466 
   88000       87.985    235.26075    9.8223778    -558.4049   -548.58252    9423.0583    28295.717    47492.828   -47519.371      15.2149      13.1765      28.7324    5760.2466 
   88500       88.485    233.78907    9.7609339   -558.33225   -548.57131    9175.5338     28201.54    44238.666   -44913.605      15.2149      13.1765      28.7324    5760.2466 
   89000       88.985    244.73575    10.217969   -558.77742   -548.55945    9746.2575    33564.987    44387.519   -48713.733      15.2149      13.1765      28.7324    5760.2466 
   89500       89.485    233.56502    9.7515796   -558.29813   -548.54655    9234.9887    30974.645    46976.831   -50246.511      15.2149      13.1765      28.7324    5760.2466 
   90000       89.985    221.46611    9.2464375   -557.78064    -548.5342    8626.9181    32298.469    43098.449   -49516.163      15.2149      13.1765      28.7324    5760.2466 
   90500       90.485    248.38755    10.370435   -558.89343   -548.52299    8801.0822    29007.675    46440.056   -49044.485      15.2149      13.1765      28.7324    5760.2466 
   91000       90.985    234.30546    9.7824937   -558.29246   -548.50997    7839.7142    30461.771    43317.832    -50260.46      15.2149      13.1765      28.7324    5760.2466 
   91500       91.485    246.30479    10.283478   -558.78276   -548.49928    9622.8058    32005.846    44579.764   -47717.193      15.2149      13.1765      28.7324    5760.2466 
   92000       91.985    230.21529    9.6117249   -558.09726   -548.48553    8813.0379    28044.868    45960.838   -47566.593      15.2149      13.1765      28.7324    5760.2466 
   92500       92.485    247.46291     10.33183   -558.80511   -548.47328    9177.9013    31314.466    45830.276   -49611.038      15.2149      13.1765      28.7324    5760.2466 
   93000       92.985    240.63147    10.046611   -558.50682   -548.46021    9588.0507    30996.665    43139.247   -45371.761      15.2149      13.1765      28.7324    5760.2466 
   93500       93.485    227.89399     9.514808   -557.96216   -548.44735    8842.1278    34097.063    46564.662   -54135.342      15.2149      13.1765      28.7324    5760.2466 
   94000       93.985    241.07518    10.065136   -558.49907   -548.43394    9690.2636    31749.412    47914.998   -50593.619      15.2149      13.1765      28.7324    5760.2466 
   94500       94.485    247.23909    10.322486   -558.74512   -548.42263    9214.8742    33944.041    42023.667   -48323.085      15.2149      13.1765      28.7324    5760.2466 
   95000       94.985    234.16813    9.7767598   -558.18614   -548.40938    9108.5854    32366.013    47427.297   -52467.554      15.2149      13.1765      28.7324    5760.2466 
   95500       95.485    241.16642    10.068946   -558.46514   -548.39619    8534.4299    29805.188     38403.87   -42605.769      15.2149      13.1765      28.7324    5760.2466 
   96000       95.985     240.4785    10.040224   -558.42488   -548.38466    8388.7311    30961.256    45812.136   -51607.199      15.2149      13.1765      28.7324    5760.2466 
   96500       96.485     230.9613    9.6428713   -558.01443   -548.37156    8873.1251    31335.099    42882.004   -47597.728      15.2149      13.1765      28.7324    5760.2466 
   97000       96.985    250.54942    10.460696   -558.82061   -548.35991     9954.215    33168.338    45999.334   -49305.028      15.2149      13.1765      28.7324    5760.2466 
   97500       97.485    257.45522     10.74902   -559.09538   -548.34636    8498.9777    28214.568    42202.994   -44920.628      15.2149      13.1765      28.7324    5760.2466 
   98000       97.985    241.20797    10.070681   -558.40331   -548.33263    9088.9259    31412.897    44962.934   -49109.054      15.2149      13.1765      28.7324    5760.2466 
   98500       98.485    239.98884    10.019781   -558.33884   -548.31906    8122.2223    31079.199    43556.995   -50269.527      15.2149      13.1765      28.7324    5760.2466 
   99000       98.985    246.03443     10.27219   -558.57837   -548.30618    8403.6617    33683.369    45143.172   -53615.556      15.2149      13.1765      28.7324    5760.2466 
   99500       99.485    241.71107    10.091685   -558.38469     -548.293    8993.3276    28872.148    47142.662   -49034.827      15.2149      13.1765      28.7324    5760.2466 
  100000       99.985    246.00146    10.270814   -558.54996   -548.27915    9075.9353    31839.745    45861.258   -50473.197      15.2149      13.1765      28.7324    5760.2466 
  100500      100.485     237.0449    9.8968681   -558.16257    -548.2657    9977.1152     31138.53    44770.751   -45977.935      15.2149      13.1765      28.7324    5760.2466 
  101000      100.985    244.71895    10.217268   -558.47046   -548.25319    9512.8456    30643.213    47821.583   -49926.259      15.2149      13.1765      28.7324    5760.2466 
  101500      101.485    225.90447    9.4317437   -557.67045    -548.2387    10541.847     32809.72    50076.419   -51260.599      15.2149      13.1765      28.7324    5760.2466 
  102000      101.985    239.17886    9.9859628   -558.21087   -548.22491    10351.637     34127.62     45280.66   -48353.369      15.2149      13.1765      28.7324    5760.2466 
  102500      102.485    251.95671    10.519451   -558.73147   -548.21202    8835.2536    37680.652     42923.72   -54098.612      15.2149      13.1765      28.7324    5760.2466 
  103000      102.985    250.20464    10.446301   -558.64563   -548.19933    8512.4828    31553.563    43057.389   -49073.503      15.2149      13.1765      28.7324    5760.2466 
  103500      103.485    252.76757    10.553306   -558.73828   -548.18497    9677.6636    31253.454    46425.512   -48645.975      15.2149      13.1765      28.7324    5760.2466 
  104000      103.985    226.34559    9.4501606   -557.62118   -548.17102    9361.4834    30397.991    44995.121   -47308.662      15.2149      13.1765      28.7324    5760.2466 
  104500      104.485    243.54371      10.1682   -558.32563   -548.15743     9530.693    30339.388    45452.618   -47199.927      15.2149      13.1765      28.7324    5760.2466 
  105000      104.985    245.78842    10.261919   -558.40585   -548.14394    11386.084    35698.035    44016.904   -45556.687      15.2149      13.1765      28.7324    5760.2466 
  105500      105.485    237.67787    9.9232953   -558.05361   -548.13031    8635.1516    30871.193    43981.249   -48946.987      15.2149      13.1765      28.7324    5760.2466 
  106000      105.985    255.33138    10.660347   -558.77627   -548.11592    8837.2569    30343.993    44483.485   -48315.707      15.2149      13.1765      28.7324    5760.2466 
  106500      106.485    243.50538      10.1666    -558.2681    -548.1015    8228.6603    34038.265     47211.69   -56563.974      15.2149      13.1765      28.7324    5760.2466 
  107000      106.985    232.50371    9.7072686   -557.79488   -548.08761    8719.5093    31029.078    47049.713   -51920.263      15.2149      13.1765      28.7324    5760.2466 
  107500      107.485    230.50702    9.6239049   -557.69803   -548.07412    9301.8726    30153.964    46896.282   -49144.628      15.2149      13.1765      28.7324    5760.2466 
  108000      107.985    248.86401    10.390328   -558.45094   -548.06062    9407.5692    30915.615    49076.824   -51769.731      15.2149      13.1765      28.7324    5760.2466 
  108500      108.485    247.21271    10.321384   -558.36718    -548.0458    8377.1305    32351.189    48151.598   -55371.395      15.2149      13.1765      28.7324    5760.2466 
  109000      108.985    243.97475    10.186196   -558.21797   -548.03177    8675.3364    29125.507    42225.871   -45325.369      15.2149      13.1765      28.7324    5760.2466 
  109500      109.485     250.7617    10.469559   -558.48841   -548.01885    9494.4098    30043.238    46756.927   -48316.935      15.2149      13.1765      28.7324    5760.2466 
  110000      109.985    240.80055     10.05367   -558.05814   -548.00447    9877.6169    30951.595    47217.161   -48535.905      15.2149      13.1765      28.7324    5760.2466 
  110500      110.485    232.73774    9.7170396   -557.70745   -547.99041     8989.596    30846.487    49085.578   -52963.276      15.2149      13.1765      28.7324    5760.2466 
  111000      110.985    242.90393    10.141488   -558.11668   -547.97519    9941.1112    34556.013      43682.1    -48414.78      15.2149      13.1765      28.7324    5760.2466 
  111500      111.485    238.34061    9.9509651   -557.91207   -547.96111    8499.6287    31231.083     48159.39   -53891.587      15.2149      13.1765      28.7324    5760.2466 
  112000      111.985     242.7652    10.135696   -558.08319    -547.9475    9529.9885    29292.471    46470.898   -47173.404      15.2149      13.1765      28.7324    5760.2466 
  112500      112.485    248.79546    10.387466   -558.32139   -547.93393    9537.2662    30223.171    44492.935   -46104.308      15.2149      13.1765      28.7324    5760.2466 
  113000      112.985    242.06458    10.106445   -558.02537   -547.91892    10425.313    33787.142    41748.542   -44259.744      15.2149      13.1765      28.7324    5760.2466 
  113500      113.485    245.37348    10.244595   -558.14912   -547.90453    9693.0964    32131.633    48276.066    -51328.41      15.2149      13.1765      28.7324    5760.2466 
  114000      113.985    244.64069       10.214   -558.10415   -547.89015    9475.1316    32232.248    47756.027    -51562.88      15.2149      13.1765      28.7324    5760.2466 
  114500      114.485     251.5608    10.502922   -558.37786   -547.87494    9686.1472    31455.463    42788.426   -45185.447      15.2149      13.1765      28.7324    5760.2466 
  115000      114.985    240.75732    10.051865   -557.91234   -547.86048    8981.7645    35885.212    43462.915   -52402.833      15.2149      13.1765      28.7324    5760.2466 
  115500      115.485     248.9229    10.392787   -558.23877   -547.84598    9654.1207    31981.096    42997.712   -46016.446      15.2149      13.1765      28.7324    5760.2466 
  116000      115.985    244.65614    10.214645    -558.0464   -547.83175    9494.5297    32293.194    46039.641   -49849.246      15.2149      13.1765      28.7324    5760.2466 
  116500      116.485    249.50622    10.417141   -558.23456   -547.81742    8558.4593    31962.977    45699.628   -51987.228      15.2149      13.1765      28.7324    5760.2466 
  117000      116.985    249.93204    10.434919   -558.23751   -547.80259    10045.263    32824.076    45885.228   -48573.514      15.2149      13.1765      28.7324    5760.2466 
  117500      117.485    240.48819    10.040629   -557.82803    -547.7874    9533.6007     31598.21    48308.974   -51306.382      15.2149      13.1765      28.7324    5760.2466 
  118000      117.985    241.33027    10.075787    -557.8481   -547.77231    9364.6819    29652.772    46015.771   -47574.497      15.2149      13.1765      28.7324    5760.2466 
  118500      118.485    241.84704    10.097362   -557.85468   -547.75732    9645.1932    31147.706    48434.827   -50646.954      15.2149      13.1765      28.7324    5760.2466 
  119000      118.985    257.17185    10.737189    -558.4801   -547.74291    9360.2268    33667.811    42687.228   -48274.358      15.2149      13.1765      28.7324    5760.2466 
  119500      119.485    249.71805    10.425985   -558.15339    -547.7274    10126.717    31471.632    41725.173   -42816.655      15.2149      13.1765      28.7324    5760.2466 
  120000      119.985    238.12826    9.9420993   -557.65394   -547.71184    10370.463    35704.181    43799.028   -48391.819      15.2149      13.1765      28.7324    5760.2466 
  120500      120.485    252.18273    10.528888   -558.22575   -547.69687    10614.632    31930.729    42738.714   -42825.547      15.2149      13.1765      28.7324    5760.2466 
  121000      120.985    256.06036    10.690783   -558.37293   -547.68214    9086.9329    35385.851    43432.503   -51557.556      15.2149      13.1765      28.7324    5760.2466 
  121500      121.485    229.78754    9.5938656   -557.25934   -547.66547     9655.318    33160.764    45687.016   -49881.827      15.2149      13.1765      28.7324    5760.2466 
  122000      121.985    248.66251    10.381915    -558.0338   -547.65188    10005.547    30574.567    46396.977   -46954.903      15.2149      13.1765      28.7324    5760.2466 
  122500      122.485    254.76051    10.636513   -558.27352   -547.63701    9562.8982    33593.829    46744.001   -51649.135      15.2149      13.1765      28.7324    5760.2466 
  123000      122.985    239.55805    10.001795   -557.62335   -547.62156    10606.918    31080.569    45403.698   -44663.514      15.2149      13.1765      28.7324    5760.2466 
  123500      123.485    253.69175    10.591891   -558.19876   -547.60687    8013.2922    33171.193    46239.576   -55370.893      15.2149      13.1765      28.7324    5760.2466 
  124000      123.985    251.07905    10.482808   -558.07399   -547.59118    11219.499    34344.243    46290.965   -46976.712      15.2149      13.1765      28.7324    5760.2466 
  124500      124.485    260.78391    10.887996   -558.46378   -547.57578    10046.896    36049.765    46821.701   -52730.778      15.2149      13.1765      28.7324    5760.2466 
  125000      124.985    264.69583    11.051323   -558.61209   -547.56077    8808.7595    29305.068    43482.455   -46361.244      15.2149      13.1765      28.7324    5760.2466 
  125500      125.485    256.03915    10.689897   -558.23625   -547.54635    8909.1671    32270.779    46133.506   -51676.784      15.2149      13.1765      28.7324    5760.2466 
  126000      125.985    237.83542    9.9298729   -557.45978    -547.5299    9148.1405    29230.591    49240.609   -51026.778      15.2149      13.1765      28.7324    5760.2466 
  126500      126.485    255.55598    10.669724   -558.18526   -547.51554    9605.2942    32349.239    46762.864   -50296.221      15.2149      13.1765      28.7324    5760.2466 
  127000      126.985     238.1383    9.9425184   -557.44196   -547.49944    9364.9751    30280.739    47741.224   -49927.037      15.2149      13.1765      28.7324    5760.2466 
  127500      127.485    244.58191    10.211546    -557.6962   -547.48465    10223.086    33721.175    45688.775    -48740.69      15.2149      13.1765      28.7324    5760.2466 
  128000      127.985    247.02785    10.313666   -557.78264   -547.46898    9347.8143     34168.53      46060.2   -52185.287      15.2149      13.1765      28.7324    5760.2466 
  128500      128.485    247.04556    10.314406   -557.76812   -547.45371    10008.665    33289.667    44780.641   -48044.312      15.2149      13.1765      28.7324    5760.2466 
  129000      128.985    247.53579    10.334874   -557.77268   -547.43781    9248.5391     32290.26    48610.261   -53154.904      15.2149      13.1765      28.7324    5760.2466 
  129500      129.485    233.21184    9.7368339   -557.15928   -547.42245    9757.1082    29851.352    43676.375   -44256.403      15.2149      13.1765      28.7324    5760.2466 
  130000      129.985    249.15436     10.40245   -557.80974   -547.40729    9722.1691    30294.727     45059.57    -46187.79      15.2149      13.1765      28.7324    5760.2466 
  130500      130.485    256.32053    10.701645   -558.09416   -547.39251    9954.0284    34901.555    45059.613   -50099.082      15.2149      13.1765      28.7324    5760.2466 
  131000      130.985    245.10067    10.233204   -557.60887   -547.37567    10007.022    31624.596    46121.878   -47725.408      15.2149      13.1765      28.7324    5760.2466 
  131500      131.485    254.95492     10.64463    -558.0059   -547.36127    9357.9378    34093.453    45078.149   -51097.788      15.2149      13.1765      28.7324    5760.2466 
  132000      131.985    264.35241    11.036984   -558.38247   -547.34549    10465.722    30321.094    42946.983   -41870.912      15.2149      13.1765      28.7324    5760.2466 
  132500      132.485    256.96644    10.728613   -558.05885   -547.33023    9878.0023    34715.569    47862.616   -52944.178      15.2149      13.1765      28.7324    5760.2466 
  133000      132.985    251.69818    10.508657   -557.82247   -547.31382    9898.5205    33448.666     47967.95   -51721.055      15.2149      13.1765      28.7324    5760.2466 
  133500      133.485    240.46211     10.03954   -557.33862   -547.29908    9468.8414     31703.48    47847.097   -51144.053      15.2149      13.1765      28.7324    5760.2466 
  134000      133.985    243.54241    10.168146   -557.45112   -547.28298    9855.4532    32803.356    43704.214   -46941.211      15.2149      13.1765      28.7324    5760.2466 
  134500      134.485     246.6764    10.298993   -557.56619   -547.26719    9443.7971    31087.801    43956.076   -46712.486      15.2149      13.1765      28.7324    5760.2466 
  135000      134.985    264.19255     11.03031   -558.28211    -547.2518    10540.261    33055.885    45070.066   -46505.168      15.2149      13.1765      28.7324    5760.2466 
  135500      135.485    236.17651    9.8606117   -557.09651    -547.2359      10567.4    33843.014    48927.654   -51068.468      15.2149      13.1765      28.7324    5760.2466 
  136000      135.985    248.52246    10.376068   -557.59603   -547.21996    9898.9561    32629.567    47581.963   -50514.661      15.2149      13.1765      28.7324    5760.2466 
  136500      136.485     243.3373    10.159582   -557.36365   -547.20407    10174.169    35096.488    43597.692   -48171.672      15.2149      13.1765      28.7324    5760.2466 
  137000      136.985    261.52388    10.918891   -558.10841   -547.18952    9287.8387    29947.096    49252.063   -51335.644      15.2149      13.1765      28.7324    5760.2466 
  137500      137.485    265.56963    11.087805   -558.26116   -547.17336    10741.917    33056.087    45247.565     -46077.9      15.2149      13.1765      28.7324    5760.2466 
  138000      137.985    247.91672    10.350778   -557.50728    -547.1565    9170.9121    30838.618    47974.643   -51300.525      15.2149      13.1765      28.7324    5760.2466 
  138500      138.485    252.88456     10.55819   -557.69942   -547.14123    9183.7383    31421.038    48646.094   -52515.917      15.2149      13.1765      28.7324    5760.2466 
  139000      138.985    245.68346    10.257537   -557.38274   -547.12521    9237.9657     33963.39    43401.532   -49651.025      15.2149      13.1765      28.7324    5760.2466 
  139500      139.485     261.8122    10.930928   -558.04029   -547.10936    9037.8579     32377.77    44481.694    -49745.89      15.2149      13.1765      28.7324    5760.2466 
  140000      139.985    259.41308    10.830763   -557.92423   -547.09347    10636.771    33054.229    47451.627   -48595.544      15.2149      13.1765      28.7324    5760.2466 
  140500      140.485    262.93375    10.977754   -558.05683   -547.07907    10657.267    31956.222    43292.318   -43276.739      15.2149      13.1765      28.7324    5760.2466 
  141000      140.985    247.02868    10.313701   -557.37496   -547.06126    10104.998    33748.495    42737.485   -46170.988      15.2149      13.1765      28.7324    5760.2466 
  141500      141.485    249.64016    10.422733   -557.46809   -547.04536    9585.0019    34305.161    47225.716   -52775.872      15.2149      13.1765      28.7324    5760.2466 
  142000      141.985    269.29285    11.243253   -558.27376    -547.0305    9097.2259    29085.863    43532.407   -45326.592      15.2149      13.1765      28.7324    5760.2466 
  142500      142.485     255.8164    10.680597   -557.69439   -547.01379    10853.411    36142.708    43906.729   -47489.205      15.2149      13.1765      28.7324    5760.2466 
  143000      142.985    260.90408    10.893013   -557.89138   -546.99837    9655.0341    30371.662    46428.809   -47835.369      15.2149      13.1765      28.7324    5760.2466 
  143500      143.485    260.59775    10.880224   -557.86209   -546.98187    10820.959    32816.701    46317.124   -46670.949      15.2149      13.1765      28.7324    5760.2466 
  144000      143.985    246.51312    10.292176   -557.25817   -546.96599    10460.652    35726.498    47692.324   -52036.865      15.2149      13.1765      28.7324    5760.2466 
  144500      144.485    255.05968    10.649003   -557.59999   -546.95099    8448.8352    29336.457    45617.639   -49607.591      15.2149      13.1765      28.7324    5760.2466 
  145000      144.985     263.3614    10.995609   -557.93047   -546.93486    10242.501    30684.653    44122.207   -44079.356      15.2149      13.1765      28.7324    5760.2466 
  145500      145.485    248.38528    10.370341   -557.28891   -546.91857    10450.395    32817.631     44482.96   -45949.406      15.2149      13.1765      28.7324    5760.2466 
  146000      145.985    256.38615    10.704385   -557.60671   -546.90233    10602.992    34421.315    46196.279    -48808.62      15.2149      13.1765      28.7324    5760.2466 
  146500      146.485    256.74023    10.719168   -557.60548   -546.88631    10947.221    37356.634    40855.953   -45370.924      15.2149      13.1765      28.7324    5760.2466 
  147000      146.985    263.13564    10.986183   -557.85717   -546.87099    9775.2936    34523.349    42596.333   -47793.801      15.2149      13.1765      28.7324    5760.2466 
  147500      147.485    253.75034    10.594337   -557.44806   -546.85373    10196.934     37581.18    44838.091   -51828.467      15.2149      13.1765      28.7324    5760.2466 
  148000      147.985    266.10008    11.109952    -557.9486   -546.83865    9422.2397     32919.61    43344.146   -47997.037      15.2149      13.1765      28.7324    5760.2466 
  148500      148.485    265.29537    11.076354   -557.89779   -546.82144    9552.9182    33348.881    45095.239   -49785.365      15.2149      13.1765      28.7324    5760.2466 
  149000      148.985    248.58892    10.378843   -557.18413   -546.80528    9630.3159    32120.416    46594.175   -49823.644      15.2149      13.1765      28.7324    5760.2466 
  149500      149.485    263.68135    11.008967   -557.79987   -546.79091    9726.2638    32427.763    49272.482   -52521.454      15.2149      13.1765      28.7324    5760.2466 
  150000      149.985    258.31884    10.785077   -557.55875   -546.77367    9486.7195    29783.612    45083.761   -46407.214      15.2149      13.1765      28.7324    5760.2466 
  150500      150.485    253.76131    10.594795   -557.35198   -546.75718    9172.3879    30497.279    47005.668   -49985.783      15.2149      13.1765      28.7324    5760.2466 
  151000      150.985    260.61272    10.880849   -557.62215    -546.7413    9690.2676    31336.489     43458.87   -45724.557      15.2149      13.1765      28.7324    5760.2466 
  151500      151.485    246.00881     10.27112   -556.99605   -546.72493    10977.543    28902.809    48836.055   -44806.235      15.2149      13.1765      28.7324    5760.2466 
  152000      151.985    243.26095    10.156395   -556.86524   -546.70885      10234.4    30214.885    50545.113   -50056.799      15.2149      13.1765      28.7324    5760.2466 
  152500      152.485    245.74833    10.260245   -556.95268   -546.69244    8838.4478    29997.059    42253.492   -45735.208      15.2149      13.1765      28.7324    5760.2466 
  153000      152.985     244.3718    10.202774   -556.87979   -546.67701    9848.1463    31507.107    46858.949   -48821.617      15.2149      13.1765      28.7324    5760.2466 
  153500      153.485    244.50295    10.208249    -556.8697   -546.66145    9871.0957    31980.948    48051.603   -50419.264      15.2149      13.1765      28.7324    5760.2466 
  154000      153.985    260.51044    10.876578   -557.52202   -546.64544    10193.417    33288.088    45978.983    -48686.82      15.2149      13.1765      28.7324    5760.2466 
  154500      154.485    250.99334     10.47923   -557.10798   -546.62875    10085.996    36854.121    41488.969   -48085.101      15.2149      13.1765      28.7324    5760.2466 
  155000      154.985    260.96307    10.895476   -557.50938    -546.6139    9657.6434    33732.094     45759.28   -50518.444      15.2149      13.1765      28.7324    5760.2466 
  155500      155.485    263.80985    11.014332   -557.61156   -546.59723    9207.4693    30538.724     40553.86   -43470.176      15.2149      13.1765      28.7324    5760.2466 
  156000      155.985    259.97429    10.854194   -557.43539    -546.5812    10389.424    33177.101    45419.293   -47428.124      15.2149      13.1765      28.7324    5760.2466 
  156500      156.485    253.49493    10.583674   -557.14914   -546.56547    10037.313    30266.767    47910.908   -48065.736      15.2149      13.1765      28.7324    5760.2466 
  157000      156.985    263.05612    10.982863     -557.532   -546.54914    9347.6582    30055.054    46987.755   -48999.835      15.2149      13.1765      28.7324    5760.2466 
  157500      157.485    249.26182    10.406937   -556.93989   -546.53296    9251.4471    32810.037    44592.207   -49647.902      15.2149      13.1765      28.7324    5760.2466 
  158000      157.985    266.27853    11.117402   -557.63472   -546.51732    9061.5848    29233.854      42889.9       -44939      15.2149      13.1765      28.7324    5760.2466 
  158500      158.485    258.61696    10.797524   -557.29787   -546.50034    10269.709    31346.333    44846.393   -45383.599      15.2149      13.1765      28.7324    5760.2466 
  159000      158.985    258.59246    10.796501    -557.2802    -546.4837    9956.3389    34808.383    44746.727   -49686.093      15.2149      13.1765      28.7324    5760.2466 
  159500      159.485    248.05392    10.356506   -556.82401    -546.4675    10136.332    34147.253    48076.095   -51814.352      15.2149      13.1765      28.7324    5760.2466 
  160000      159.985    273.81193    11.431929   -557.88197   -546.45004    9430.4713    30926.748    44369.671   -47005.005      15.2149      13.1765      28.7324    5760.2466 
  160500      160.485    255.26282    10.657485   -557.09214   -546.43466    10678.657        30113    49900.554   -47977.583      15.2149      13.1765      28.7324    5760.2466 
  161000      160.985    263.74659    11.011691    -557.4294   -546.41771    9127.7529    35892.644    45909.102   -54418.487      15.2149      13.1765      28.7324    5760.2466 
  161500      161.485    264.03003    11.023525   -557.42429   -546.40076    9758.9077    31958.403    41941.546   -44623.226      15.2149      13.1765      28.7324    5760.2466 
  162000      161.985    263.62196    11.006488   -557.39084   -546.38435    9898.8844    31827.951    43972.418   -46103.717      15.2149      13.1765      28.7324    5760.2466 
  162500      162.485    268.24306    11.199423   -557.56747   -546.36805    11543.988    31634.112    45771.074   -42773.223      15.2149      13.1765      28.7324    5760.2466 
  163000      162.985    255.17547    10.653838   -557.00433    -546.3505    9141.6741    31551.859    51183.221   -55310.057      15.2149      13.1765      28.7324    5760.2466 
  163500      163.485    259.58541    10.837957   -557.17319   -546.33524    10293.029    30531.678    48420.042   -48072.632      15.2149      13.1765      28.7324    5760.2466 
  164000      163.985    269.06431    11.233711     -557.551   -546.31729     8591.393    33176.949    47060.089   -54462.859      15.2149      13.1765      28.7324    5760.2466 
  164500      164.485    271.02442    11.315548   -557.61768   -546.30213    10564.746    32147.368    46825.426   -47278.556      15.2149      13.1765      28.7324    5760.2466 
  165000      164.985    251.69548    10.508545   -556.79228   -546.28374    8225.6378    32262.655    43619.804   -51205.546      15.2149      13.1765      28.7324    5760.2466 
  165500      165.485    256.84929    10.723722   -556.99093   -546.26721    9477.3302    32890.051    43427.704   -47885.764      15.2149      13.1765      28.7324    5760.2466 
  166000      165.985    272.64011    11.383005   -557.63475   -546.25175    8466.9983    31403.749    46570.913   -52573.667      15.2149      13.1765      28.7324    5760.2466 
  166500      166.485     276.9224    11.561795   -557.79688   -546.23508     9282.012    34258.968    44969.279   -51382.211      15.2149      13.1765      28.7324    5760.2466 
  167000      166.985    257.34957    10.744609   -556.96262   -546.21801    9549.3518    32688.898    42849.233   -46890.075      15.2149      13.1765      28.7324    5760.2466 
  167500      167.485    261.60791    10.922399    -557.1242   -546.20181    10747.448    35729.368    44268.278   -47755.301      15.2149      13.1765      28.7324    5760.2466 
  168000      167.985    271.76864     11.34662    -557.5313   -546.18469    8814.5953    31836.979    43727.953   -49121.146      15.2149      13.1765      28.7324    5760.2466 
  168500      168.485    263.95542     11.02041   -557.18889   -546.16848    9117.1375    32100.551    46068.642    -50817.78      15.2149      13.1765      28.7324    5760.2466 
  169000      168.985    269.51599    11.252569    -557.4034   -546.15083    10292.302    30874.721    45426.332   -45424.147      15.2149      13.1765      28.7324    5760.2466 
  169500      169.485    254.34358    10.619106   -556.75194   -546.13283    10877.907    35557.377    44954.427   -47878.085      15.2149      13.1765      28.7324    5760.2466 
  170000      169.985    267.57315    11.171454   -557.28972   -546.11827    10240.552    32466.387    47289.889   -49034.621      15.2149      13.1765      28.7324    5760.2466 
  170500      170.485    256.62059    10.714173   -556.81436   -546.10018    10327.776    35867.034    42730.316   -47614.023      15.2149      13.1765      28.7324    5760.2466 
  171000      170.985    272.58567    11.380732    -557.4652   -546.08447    10991.073    37674.257    46042.383   -50743.422      15.2149      13.1765      28.7324    5760.2466 
  171500      171.485     271.9171    11.352818   -557.41993   -546.06711    9399.9439    30694.829    47187.761   -49682.759      15.2149      13.1765      28.7324    5760.2466 
  172000      171.985    261.49815    10.917816   -556.96723   -546.04942    10179.335    31858.425    48059.883   -49380.303      15.2149      13.1765      28.7324    5760.2466 
  172500      172.485     278.2827    11.618588   -557.65245   -546.03386    9658.5193     31679.98    42016.399   -44720.821      15.2149      13.1765      28.7324    5760.2466 
  173000      172.985     258.6149    10.797438   -556.81364    -546.0162      9552.71    32815.798    46209.801   -50367.468      15.2149      13.1765      28.7324    5760.2466 
  173500      173.485    260.50833     10.87649   -556.87548   -545.99899    9709.1869    31826.616    46678.253   -49377.308      15.2149      13.1765      28.7324    5760.2466 
  174000      173.985    272.50874     11.37752   -557.36087   -545.98335     10167.86    31424.524     47455.85   -48376.794      15.2149      13.1765      28.7324    5760.2466 
  174500      174.485    272.16959     11.36336   -557.32827   -545.96491    10361.344    31959.334    46482.648   -47357.951      15.2149      13.1765      28.7324    5760.2466 
  175000      174.985    271.53458    11.336848   -557.28535    -545.9485    8779.8635    34732.144    47906.978   -56299.531      15.2149      13.1765      28.7324    5760.2466 
  175500      175.485    263.71504    11.010374   -556.94106   -545.93069    8692.3522    30021.153    45760.862   -49704.958      15.2149      13.1765      28.7324    5760.2466 
  176000      175.985    282.26053    11.784667   -557.70017    -545.9155    10634.205    32352.182     46503.95   -46953.516      15.2149      13.1765      28.7324    5760.2466 
  176500      176.485    266.81085    11.139627    -557.0374   -545.89777    10263.006     36144.17    46644.162   -51999.313      15.2149      13.1765      28.7324    5760.2466 
  177000      176.985     261.7189    10.927033   -556.80738   -545.88034    9910.5099    32116.159    45813.273   -48197.902      15.2149      13.1765      28.7324    5760.2466 
  177500      177.485    269.41973     11.24855   -557.11171   -545.86316    8665.3786    35689.802     45149.21   -54842.876      15.2149      13.1765      28.7324    5760.2466 
  178000      177.985     265.8793    11.100734   -556.94677   -545.84604    10892.856    31560.771    48502.273   -47384.477      15.2149      13.1765      28.7324    5760.2466 
  178500      178.485    274.00116     11.43983   -557.26863    -545.8288    9642.8496    28396.239    46074.568   -45542.259      15.2149      13.1765      28.7324    5760.2466 
  179000      178.985     277.7995    11.598414    -557.4124   -545.81399    10189.182    31470.904    45348.785   -46252.143      15.2149      13.1765      28.7324    5760.2466 
  179500      179.485    268.72849     11.21969    -557.0167   -545.79701    9012.7903    31463.248    43224.162   -47649.039      15.2149      13.1765      28.7324    5760.2466 
  180000      179.985    259.60891    10.838938   -556.61714   -545.77821    11026.633    32706.233    46893.688   -46520.023      15.2149      13.1765      28.7324    5760.2466 
  180500      180.485    264.16477     11.02915    -556.7908   -545.76165     10926.41    32046.946    46506.751   -45774.468      15.2149      13.1765      28.7324    5760.2466 
  181000      180.985    270.13537    11.278429   -557.02285   -545.74442    8478.9172    28816.308    48399.405   -51778.962      15.2149      13.1765      28.7324    5760.2466 
  181500      181.485    266.70591    11.135245   -556.86275    -545.7275    10050.991    33459.482    44377.192   -47683.701      15.2149      13.1765      28.7324    5760.2466 
  182000      181.985    276.94158    11.562595   -557.27336   -545.71077    9247.7934    32641.408    45231.811   -50129.839      15.2149      13.1765      28.7324    5760.2466 
  182500      182.485    256.05312    10.690481    -556.3833   -545.69281    10019.551    34372.479    49093.045   -53406.872      15.2149      13.1765      28.7324    5760.2466 
  183000      182.985     283.7576    11.847171   -557.52469   -545.67752    10840.884    35335.101    46533.467   -49345.916      15.2149      13.1765      28.7324    5760.2466 
  183500      183.485    269.46996    11.250647   -556.91018   -545.65953    9527.3798     33263.73    43210.452   -47892.043      15.2149      13.1765      28.7324    5760.2466 
  184000      183.985    269.17607    11.238377   -556.87983   -545.64145    10923.014    34438.814    47716.557   -49386.329      15.2149      13.1765      28.7324    5760.2466 
  184500      184.485    265.15404    11.070453    -556.6956   -545.62514    10028.569    37049.111    44016.923   -50980.326      15.2149      13.1765      28.7324    5760.2466 
  185000      184.985    276.96941    11.563757   -557.17166    -545.6079    10234.699    34370.906    44717.313   -48384.121      15.2149      13.1765      28.7324    5760.2466 
  185500      185.485    294.17505     12.28211   -557.87398   -545.59187    9680.4574    35729.496    45140.628   -51828.752      15.2149      13.1765      28.7324    5760.2466 
  186000      185.985    275.14944    11.487772   -557.06064   -545.57287    9781.9396    31056.353    46431.354   -48141.887      15.2149      13.1765      28.7324    5760.2466 
  186500      186.485    283.17496    11.822845   -557.37943   -545.55658    10790.138    30486.376    45125.585   -43241.547      15.2149      13.1765      28.7324    5760.2466 
  187000      186.985    270.11673    11.277651   -556.81593   -545.53828    10319.885    31570.223    46180.335   -46790.903      15.2149      13.1765      28.7324    5760.2466 
  187500      187.485    284.57938    11.881481    -557.4033   -545.52182    11444.594    36867.946    43345.725   -45879.887      15.2149      13.1765      28.7324    5760.2466 
  188000      187.985    275.58493    11.505954   -557.01091   -545.50496    10974.435    33610.221    47108.695   -47795.611      15.2149      13.1765      28.7324    5760.2466 
  188500      188.485    278.73414    11.637436   -557.12322   -545.48578    10295.588    36652.763    44484.387   -50250.386      15.2149      13.1765      28.7324    5760.2466 
  189000      188.985    298.57445     12.46579   -557.93558   -545.46979    10172.082     31849.57     44819.04   -46152.365      15.2149      13.1765      28.7324    5760.2466 
  189500      189.485    276.66648    11.551109   -557.00309   -545.45198    10209.444    31930.778    46854.057   -48156.505      15.2149      13.1765      28.7324    5760.2466 
  190000      189.985    280.94311    11.729663   -557.16431   -545.43464    10917.592    34406.467    42676.101   -44329.792      15.2149      13.1765      28.7324    5760.2466 
  190500      190.485    268.33772    11.203375   -556.61973   -545.41636    10574.601    35824.772    44109.403   -48210.372      15.2149      13.1765      28.7324    5760.2466 
  191000      190.985    286.71967    11.970841   -557.37164    -545.4008    10727.253    33707.519    48285.188   -49810.949      15.2149      13.1765      28.7324    5760.2466 
  191500      191.485    267.92523    11.186153   -556.56911   -545.38296    11717.066    33328.294    46869.996   -45047.091      15.2149      13.1765      28.7324    5760.2466 
  192000      191.985    266.82925    11.140395    -556.5053    -545.3649    10455.816    32044.305    46189.905   -46866.763      15.2149      13.1765      28.7324    5760.2466 
  192500      192.485    286.28054    11.952507   -557.30111    -545.3486    9043.1306    35748.212    41488.007   -50106.827      15.2149      13.1765      28.7324    5760.2466 
  193000      192.985    263.80031    11.013934   -556.34442   -545.33049    10769.342    35662.277    45929.551   -49283.803      15.2149      13.1765      28.7324    5760.2466 
  193500      193.485    278.34104    11.621024   -556.93424   -545.31322    9548.1047     30725.58    43029.707   -45110.973      15.2149      13.1765      28.7324    5760.2466 
  194000      193.985    263.87644    11.017112   -556.31154   -545.29443    10537.269    34786.863    48433.498   -51608.554      15.2149      13.1765      28.7324    5760.2466 
  194500      194.485     286.1719    11.947971   -557.22778   -545.27981    10007.349    29618.342    50768.368   -50364.663      15.2149      13.1765      28.7324    5760.2466 
  195000      194.985     283.0302    11.816801   -557.07861   -545.26181    9459.4571    29443.094    43248.389   -44313.111      15.2149      13.1765      28.7324    5760.2466 
  195500      195.485    274.83397      11.4746   -556.71816   -545.24356    9409.1805    31660.259    44295.939   -47728.656      15.2149      13.1765      28.7324    5760.2466 
  196000      195.985     269.2681    11.242219   -556.46839   -545.22617     10824.51    36906.346    47486.426   -51919.243      15.2149      13.1765      28.7324    5760.2466 
  196500      196.485    276.59018    11.547924   -556.75659   -545.20866    10943.411    30693.125    48877.327   -46740.217      15.2149      13.1765      28.7324    5760.2466 
  197000      196.985    274.02643    11.440885   -556.63209    -545.1912    10539.051    30367.097    45737.261   -44487.205      15.2149      13.1765      28.7324    5760.2466 
  197500      197.485    269.21959    11.240194   -556.41411   -545.17392    9785.4016    31796.296    46044.495   -48484.586      15.2149      13.1765      28.7324    5760.2466 
  198000      197.985    294.33854    12.288936   -557.44559   -545.15665    9225.0779    32537.391    46610.573   -51472.731      15.2149      13.1765      28.7324    5760.2466 
  198500      198.485    266.34534    11.120191   -556.25849    -545.1383     9596.172    32881.795    43800.092   -47893.371      15.2149      13.1765      28.7324    5760.2466 
  199000      198.985    274.25756    11.450535   -556.57224    -545.1217    10839.987    34696.144    48948.987    -51125.17      15.2149      13.1765      28.7324    5760.2466 
  199500      199.485    277.85495     11.60073   -556.70426   -545.10353    8782.9814    32131.051    46238.459   -52020.566      15.2149      13.1765      28.7324    5760.2466 
  200000      199.985    273.78514    11.430811    -556.5164   -545.08559    9569.4567    30869.211    41649.395   -43810.236      15.2149      13.1765      28.7324    5760.2466 
  200500      200.485    269.03743    11.232589   -556.30034   -545.06775    9546.2003    35022.429    46276.322   -52660.151      15.2149      13.1765      28.7324    5760.2466 
  201000      200.985    289.21278     12.07493    -557.1263   -545.05136    10652.753    35356.035    44687.862   -48085.636      15.2149      13.1765      28.7324    5760.2466 
  201500      201.485    276.55595    11.546495    -556.5796    -545.0331     8499.314    32141.214    43018.552   -49661.824      15.2149      13.1765      28.7324    5760.2466 
  202000      201.985    277.94181    11.604356    -556.6202   -545.01584    9999.1091      32646.6    46767.951   -49417.223      15.2149      13.1765      28.7324    5760.2466 
  202500      202.485     278.4611    11.626037   -556.62433   -544.99829    10746.064    35273.175    48125.523   -51160.507      15.2149      13.1765      28.7324    5760.2466 
  203000      202.985     283.3267    11.829181   -556.80999   -544.98081    9966.7302    34335.946      44141.1   -48576.855      15.2149      13.1765      28.7324    5760.2466 
  203500      203.485     283.8832    11.852415   -556.81511   -544.96269    10275.827    34918.773    45902.591   -49993.883      15.2149      13.1765      28.7324    5760.2466 
  204000      203.985    298.43803    12.460094   -557.40525   -544.94516    10154.628    31218.994    45662.082   -46417.194      15.2149      13.1765      28.7324    5760.2466 
  204500      204.485    292.99118    12.232683   -557.16005   -544.92737    10285.302    35309.132    43197.654    -47650.88      15.2149      13.1765      28.7324    5760.2466 
  205000      204.985    278.85424    11.642451   -556.55176   -544.90931    10369.632    33902.339    47878.671   -50672.112      15.2149      13.1765      28.7324    5760.2466 
  205500      205.485    295.44717    12.335223   -557.22769   -544.89247     10453.52    31029.023     45932.11   -45600.572      15.2149      13.1765      28.7324    5760.2466 
  206000      205.985    269.77655    11.263448   -556.13866   -544.87521    10812.706    34145.303    44714.954    -46422.14      15.2149      13.1765      28.7324    5760.2466 
  206500      206.485    267.94353    11.186918   -556.04338   -544.85646    9800.3106    29076.904    46945.675   -46621.648      15.2149      13.1765      28.7324    5760.2466 
  207000      206.985    277.82614    11.599527   -556.43815   -544.83863    9140.5744    32829.277    44771.165   -50178.719      15.2149      13.1765      28.7324    5760.2466 
  207500      207.485    291.29699    12.161948   -556.98375    -544.8218    10592.272    33983.638    46851.873   -49058.694      15.2149      13.1765      28.7324    5760.2466 
  208000      207.985      285.508    11.920252   -556.72349   -544.80324    9706.2548    34077.349    44891.603   -49850.187      15.2149      13.1765      28.7324    5760.2466 
  208500      208.485    277.28232    11.576822   -556.36165   -544.78483     10243.39    34647.493    44512.108   -48429.431      15.2149      13.1765      28.7324    5760.2466 
  209000      208.985    281.16277    11.738834   -556.50637   -544.76754    10197.107    37960.592    42683.622   -50052.894      15.2149      13.1765      28.7324    5760.2466 
  209500      209.485    291.09177     12.15338    -556.9035   -544.75012    10270.545    34475.045    43660.697   -47324.109      15.2149      13.1765      28.7324    5760.2466 
  210000      209.985    299.60895    12.508981   -557.24289   -544.73391    8816.6821    32157.532    45153.251   -50860.737      15.2149      13.1765      28.7324    5760.2466 
  210500      210.485    288.35134    12.038965   -556.75384   -544.71488    9612.0623    32474.844    45471.401   -49110.059      15.2149      13.1765      28.7324    5760.2466 
  211000      210.985    275.34102     11.49577   -556.19285   -544.69708    10839.856    35615.104    44695.097   -47790.633      15.2149      13.1765      28.7324    5760.2466 
  211500      211.485    282.05912    11.776258   -556.45434   -544.67808    11610.152     35256.58    47315.905    -47742.03      15.2149      13.1765      28.7324    5760.2466 
  212000      211.985    277.49397    11.585658   -556.24626    -544.6606    11153.563    37826.189    44346.983   -48712.482      15.2149      13.1765      28.7324    5760.2466 
[...]
  948500      948.485    381.06715    15.909945   -553.23709   -537.32715    12419.739    34592.287    48192.876   -45525.947      15.2149      13.1765      28.7324    5760.2466 
  949000      948.985    372.67048    15.559375    -552.8841   -537.32472    11785.039    36026.629    48680.797   -49352.308      15.2149      13.1765      28.7324    5760.2466 
  949500      949.485    378.05597    15.784225   -553.10819   -537.32397     12076.27    38035.031    47211.133   -49017.354      15.2149      13.1765      28.7324    5760.2466 
  950000      949.985    391.60149    16.349764   -553.67249   -537.32273    10994.361    38768.147    46379.097   -52164.161      15.2149      13.1765      28.7324    5760.2466 
  950500      950.485    371.61326    15.515235    -552.8365   -537.32127    12585.515    36099.242    51700.737   -50043.433      15.2149      13.1765      28.7324    5760.2466 
  951000      950.985    386.37987    16.131756   -553.45236    -537.3206    11927.505      36675.9     46333.45   -47226.835      15.2149      13.1765      28.7324    5760.2466 
  951500      951.485    367.28714    15.334615   -552.65173   -537.31711    11821.258    34704.402    48949.194    -48189.82      15.2149      13.1765      28.7324    5760.2466 
  952000      951.985    380.85458     15.90107   -553.22001   -537.31894    12538.245    35506.084    50036.923   -47928.272      15.2149      13.1765      28.7324    5760.2466 
  952500      952.485    370.48678    15.468203   -552.78321   -537.31501    11591.827    33421.693    47801.986   -46448.198      15.2149      13.1765      28.7324    5760.2466 
  953000      952.985    365.99717    15.280758   -552.59438   -537.31362     12620.97    37657.504    49774.124   -49568.718      15.2149      13.1765      28.7324    5760.2466 
  953500      953.485    361.09238    15.075978   -552.38684   -537.31086    12770.194    36697.208    49962.115   -48348.741      15.2149      13.1765      28.7324    5760.2466 
  954000      953.985    375.68994    15.685441   -552.99516   -537.30972    12259.067    36778.474    45450.208   -45451.482      15.2149      13.1765      28.7324    5760.2466 
  954500      954.485    387.79443    16.190816   -553.49915   -537.30833    11456.137    32867.316    54057.579   -52556.484      15.2149      13.1765      28.7324    5760.2466 
  955000      954.985    400.22441     16.70978   -554.01633   -537.30655    12932.083    35386.363    53880.789   -50470.903      15.2149      13.1765      28.7324    5760.2466 
  955500      955.485    366.24527    15.291116   -552.59462   -537.30351    13577.855    36936.155    52055.652   -48258.242      15.2149      13.1765      28.7324    5760.2466 
  956000      955.985     342.4385    14.297159   -551.59675   -537.29959    12801.225    36791.343    47768.773   -46156.441      15.2149      13.1765      28.7324    5760.2466 
  956500      956.485    348.60403    14.554576   -551.85341   -537.29883    11442.022    32753.201    50500.058   -48927.194      15.2149      13.1765      28.7324    5760.2466 
  957000      956.985    365.95431    15.278968   -552.57535   -537.29639    12138.139    31060.448    51272.531   -45918.562      15.2149      13.1765      28.7324    5760.2466 
  957500      957.485    374.58151    15.639162   -552.93419   -537.29503    12752.174    38342.732    44929.091   -45015.302      15.2149      13.1765      28.7324    5760.2466 
  958000      957.985    358.31217    14.959901   -552.25107   -537.29117    14982.152    36306.319    48308.213   -39668.076      15.2149      13.1765      28.7324    5760.2466 
  958500      958.485     359.0906    14.992401    -552.2806   -537.28819    12681.343    31354.169    48308.375   -41618.516      15.2149      13.1765      28.7324    5760.2466 
  959000      958.985    354.84441    14.815118   -552.09966   -537.28454    13953.577    34937.295    50063.089   -43139.653      15.2149      13.1765      28.7324    5760.2466 
  959500      959.485    362.30454    15.126587   -552.40929    -537.2827    12367.961    35072.429    50141.244    -48109.79      15.2149      13.1765      28.7324    5760.2466 
  960000      959.985    360.78224    15.063029   -552.34363    -537.2806    11941.369    32422.428    53108.089   -49706.408      15.2149      13.1765      28.7324    5760.2466 
  960500      960.485    370.80902    15.481657   -552.76123   -537.27957    11948.864    34416.748    47526.477   -46096.631      15.2149      13.1765      28.7324    5760.2466 
  961000      960.985    378.24056    15.791932   -553.06752   -537.27559    12100.009    35350.372    49428.807   -48479.152      15.2149      13.1765      28.7324    5760.2466 
  961500      961.485    361.73389    15.102762   -552.37419   -537.27142    13447.188    38762.169    50582.297   -49002.903      15.2149      13.1765      28.7324    5760.2466 
  962000      961.985    354.40034    14.796578   -552.06619   -537.26961     12770.63    38259.893    47604.634   -47552.637      15.2149      13.1765      28.7324    5760.2466 
  962500      962.485    359.98133     15.02959   -552.29597   -537.26638    11235.986    35017.949    50248.864   -51558.855      15.2149      13.1765      28.7324    5760.2466 
  963000      962.985    356.84736    14.898744   -552.16282   -537.26407    12452.651    35243.662    51407.241    -49292.95      15.2149      13.1765      28.7324    5760.2466 
  963500      963.485    376.45564    15.717409   -552.97824   -537.26083    11945.361    38124.878    49472.768   -51761.563      15.2149      13.1765      28.7324    5760.2466 
  964000      963.985    391.55255    16.347721   -553.60818   -537.26046    12024.286    33964.861    49928.762   -47820.763      15.2149      13.1765      28.7324    5760.2466 
  964500      964.485    379.25398    15.834243   -553.09022   -537.25598    13125.634    32951.676    49749.716    -43324.49      15.2149      13.1765      28.7324    5760.2466 
  965000      964.985    358.35551     14.96171   -552.21336   -537.25165    12093.914    37764.036    46766.161   -48248.455      15.2149      13.1765      28.7324    5760.2466 
  965500      965.485    380.58796    15.889938   -553.13723   -537.24729    11609.664    31784.972    52466.227   -49422.207      15.2149      13.1765      28.7324    5760.2466 
  966000      965.985    375.67632    15.684872   -552.92992   -537.24505    12477.204    35198.344    45647.341   -43414.074      15.2149      13.1765      28.7324    5760.2466 
  966500      966.485    386.94128    16.155196    -553.3969   -537.24171    12220.758    32950.884    51883.983   -48172.593      15.2149      13.1765      28.7324    5760.2466 
  967000      966.985    386.15426    16.122337   -553.36212   -537.23978    12638.546    35285.915    47776.658   -45146.933      15.2149      13.1765      28.7324    5760.2466 
  967500      967.485    374.47606     15.63476    -552.8715   -537.23674    12141.451    36647.417    49437.126    -49660.19      15.2149      13.1765      28.7324    5760.2466 
  968000      967.985    350.90851    14.650791   -551.88157   -537.23078    12922.811    36648.817    53788.787    -51669.17      15.2149      13.1765      28.7324    5760.2466 
  968500      968.485    392.93035    16.405246   -553.63579   -537.23055     13753.23    36478.373    54367.561   -49586.245      15.2149      13.1765      28.7324    5760.2466 
  969000      968.985    378.01417     15.78248   -553.00946   -537.22698    12504.972    31786.946    51102.511    -45374.54      15.2149      13.1765      28.7324    5760.2466 
  969500      969.485    378.01911    15.782686   -553.00703   -537.22434    12620.118    37562.926    48968.266   -48670.837      15.2149      13.1765      28.7324    5760.2466 
  970000      969.985    376.79536    15.731593   -552.95211   -537.22052    11314.437    35080.166    49663.441   -50800.295      15.2149      13.1765      28.7324    5760.2466 
  970500      970.485    382.62132    15.974833   -553.19228   -537.21744    13429.477    37803.289    49961.072   -47475.929      15.2149      13.1765      28.7324    5760.2466 
  971000      970.985    375.17296    15.663856   -552.87707   -537.21321    11649.548     37468.74    50253.438   -52773.534      15.2149      13.1765      28.7324    5760.2466 
  971500      971.485    362.47458    15.133686   -552.34301   -537.20932    12718.869    42204.543    47165.225   -51213.161      15.2149      13.1765      28.7324    5760.2466 
  972000      971.985    402.58437    16.808311   -554.01685   -537.20854    11254.729    36080.613     49900.48   -52216.905      15.2149      13.1765      28.7324    5760.2466 
  972500      972.485    371.75942    15.521338   -552.72514    -537.2038    12125.365    33046.879    52114.116   -48784.899      15.2149      13.1765      28.7324    5760.2466 
  973000      972.985    386.52364    16.137759   -553.33877   -537.20101    12558.966    39497.635    48124.993   -49945.729      15.2149      13.1765      28.7324    5760.2466 
  973500      973.485    388.70976    16.229032   -553.42662   -537.19759    12078.218    36806.357    47231.538   -47803.239      15.2149      13.1765      28.7324    5760.2466 
  974000      973.985    352.92463    14.734966   -551.92586   -537.19089    12818.758        43601    48819.169   -53963.894      15.2149      13.1765      28.7324    5760.2466 
  974500      974.485    370.65084    15.475053   -552.66364   -537.18859    11179.414     39136.43    47754.455   -53352.642      15.2149      13.1765      28.7324    5760.2466 
  975000      974.985    367.07383    15.325709      -552.51   -537.18429    11496.301    37223.335    50608.464   -53342.896      15.2149      13.1765      28.7324    5760.2466 
  975500      975.485    348.59653    14.554263   -551.73237   -537.17811    11950.159    35809.172    51185.554   -51144.249      15.2149      13.1765      28.7324    5760.2466 
  976000      975.985    373.63721    15.599737   -552.77596   -537.17622    14474.276    35392.476    55094.686   -47064.334      15.2149      13.1765      28.7324    5760.2466 
  976500      976.485     375.0817    15.660046   -552.83208   -537.17203    12557.866    32887.273    47677.423   -42891.097      15.2149      13.1765      28.7324    5760.2466 
  977000      976.985    380.69729    15.894503   -553.06422   -537.16971    12933.495     37501.14    48706.549   -47407.203      15.2149      13.1765      28.7324    5760.2466 
  977500      977.485    382.00504    15.949103   -553.11565   -537.16654    12854.474    35341.257    45406.866   -42184.701      15.2149      13.1765      28.7324    5760.2466 
  978000      977.985    371.08622    15.493231   -552.65487   -537.16164    12209.453    38177.382    52977.788   -54526.812      15.2149      13.1765      28.7324    5760.2466 
  978500      978.485    358.82913    14.981485   -552.13846   -537.15698    13229.253    34654.375    58256.562   -53223.177      15.2149      13.1765      28.7324    5760.2466 
  979000      978.985    374.13112    15.620358   -552.77535   -537.15499    11286.489    34708.272    47719.813   -48568.616      15.2149      13.1765      28.7324    5760.2466 
  979500      979.485    358.41546    14.964213   -552.11335   -537.14913    13391.943    36145.553    46233.138   -42202.863      15.2149      13.1765      28.7324    5760.2466 
  980000      979.985    382.66073    15.976478   -553.12184   -537.14536    13089.192    32279.132    50568.901   -43580.456      15.2149      13.1765      28.7324    5760.2466 
  980500      980.485     379.2056    15.832223   -552.97275   -537.14053    12934.934    37690.441    49177.391   -48063.029      15.2149      13.1765      28.7324    5760.2466 
  981000      980.985    375.23368    15.666392   -552.80411   -537.13772    12583.039    35341.562    48179.723   -45772.167      15.2149      13.1765      28.7324    5760.2466 
  981500      981.485    370.09825    15.451982    -552.5835   -537.13151    12962.025    37730.089    46959.677   -45803.692      15.2149      13.1765      28.7324    5760.2466 
  982000      981.985    372.99236    15.572814   -552.70075   -537.12794    11564.859    37309.565    50328.323   -52943.312      15.2149      13.1765      28.7324    5760.2466 
  982500      982.485    392.74294    16.397421   -553.52078   -537.12336    12387.131    36182.301    48143.083   -47163.992      15.2149      13.1765      28.7324    5760.2466 
  983000      982.985     376.3404    15.712598   -552.83072   -537.11812     12502.09    37022.353    45534.612   -45050.694      15.2149      13.1765      28.7324    5760.2466 
  983500      983.485    351.76198    14.686424   -551.80014   -537.11372    12317.862    40050.359    51693.706   -54790.479      15.2149      13.1765      28.7324    5760.2466 
  984000      983.985    367.18958    15.330542   -552.44066   -537.11012    14063.696    41811.039    47015.789   -46635.741      15.2149      13.1765      28.7324    5760.2466 
  984500      984.485    349.28551    14.583029   -551.68859   -537.10556    12786.791    38097.978    52114.808   -51852.412      15.2149      13.1765      28.7324    5760.2466 
  985000      984.985    383.14541    15.996714   -553.09888   -537.10217    12449.311    37819.438    48974.889   -49446.394      15.2149      13.1765      28.7324    5760.2466 
  985500      985.485    364.55382    15.220496   -552.31795   -537.09745    12128.671     34739.49    50038.331   -48391.808      15.2149      13.1765      28.7324    5760.2466 
  986000      985.985    389.82617    16.275643   -553.36877   -537.09313    12210.526    37605.892    50655.744    -51630.06      15.2149      13.1765      28.7324    5760.2466 
  986500      986.485     414.0256    17.285994   -554.37618   -537.09019    11889.581    35569.085    48949.629   -48849.971      15.2149      13.1765      28.7324    5760.2466 
  987000      986.985    366.56391     15.30442   -552.38761   -537.08319    12460.425    37135.896    50345.219   -50099.839      15.2149      13.1765      28.7324    5760.2466 
  987500      987.485    372.07275    15.534419   -552.61318   -537.07876    12713.923    38108.242    53610.022   -53576.495      15.2149      13.1765      28.7324    5760.2466 
  988000      987.985    385.94188     16.11347   -553.18867    -537.0752    12201.477    37282.404    50459.411   -51137.385      15.2149      13.1765      28.7324    5760.2466 
  988500      988.485    364.56957    15.221154   -552.28959   -537.06844    12366.393    36083.449    48916.124   -47900.394      15.2149      13.1765      28.7324    5760.2466 
  989000      988.985    365.27997    15.250814   -552.31561    -537.0648    12851.328    37336.776    45124.115   -43906.905      15.2149      13.1765      28.7324    5760.2466 
  989500      989.485     387.1081    16.162161     -553.223   -537.06084    13112.656     37365.52    46661.564   -44689.116      15.2149      13.1765      28.7324    5760.2466 
  990000      989.985     379.9505    15.863323   -552.91879   -537.05547    12581.821    36030.996    48469.332   -46754.864      15.2149      13.1765      28.7324    5760.2466 
  990500      990.485    369.36553     15.42139   -552.47027   -537.04888    11335.612    35816.879    46092.808   -47902.849      15.2149      13.1765      28.7324    5760.2466 
  991000      990.985    373.26559    15.584222   -552.62853   -537.04431    11008.998    35942.057    45576.366   -48491.428      15.2149      13.1765      28.7324    5760.2466 
  991500      991.485    372.97621     15.57214   -552.61191   -537.03977    11199.499    39676.769    41986.056   -48064.329      15.2149      13.1765      28.7324    5760.2466 
  992000      991.985    406.00334    16.951056   -553.98845    -537.0374    12659.725    38005.846    50977.815   -51004.486      15.2149      13.1765      28.7324    5760.2466 
  992500      992.485    365.78357     15.27184   -552.30146   -537.02962     11255.92    38578.832    47171.349    -51982.42      15.2149      13.1765      28.7324    5760.2466 
  993000      992.985    373.42582    15.590911   -552.61443   -537.02352    13028.063    37739.295    49987.264   -48642.369      15.2149      13.1765      28.7324    5760.2466 
  993500      993.485    380.24347    15.875555   -552.89419   -537.01863    11814.341    37618.011      48389.8   -50564.789      15.2149      13.1765      28.7324    5760.2466 
  994000      993.985    364.86928    15.233667   -552.24676    -537.0131    12168.405    35852.083    52775.974   -52122.841      15.2149      13.1765      28.7324    5760.2466 
  994500      994.485     391.1371    16.330375   -553.33933   -537.00896    12085.496    34083.844    51297.521   -49124.876      15.2149      13.1765      28.7324    5760.2466 
  995000      994.985    379.67219    15.851704   -552.85542   -537.00371    13292.407    37304.666    53302.775   -50730.221      15.2149      13.1765      28.7324    5760.2466 
  995500      995.485     361.9872    15.113337    -552.1098   -536.99646    12662.725    34708.023     46517.83    -43237.68      15.2149      13.1765      28.7324    5760.2466 
  996000      995.985    389.01893     16.24194   -553.23504    -536.9931    12859.545    36910.365    47511.092   -45842.821      15.2149      13.1765      28.7324    5760.2466 
  996500      996.485    367.86738    15.358841   -552.34478   -536.98594    11498.859    35099.383    47908.623   -48511.431      15.2149      13.1765      28.7324    5760.2466 
  997000      996.985    369.69312    15.435067   -552.41574   -536.98067    12625.623    37086.204    51548.644    -50757.98      15.2149      13.1765      28.7324    5760.2466 
  997500      997.485    368.22595    15.373811   -552.34768   -536.97386    12347.034     35747.96    52979.006   -51685.866      15.2149      13.1765      28.7324    5760.2466 
  998000      997.985    385.73141    16.104682   -553.07335   -536.96867    12040.971    34493.871     46563.46   -44934.417      15.2149      13.1765      28.7324    5760.2466 
  998500      998.485    386.08986    16.119648   -553.08438   -536.96473     12161.32    41766.199    47800.484   -53082.724      15.2149      13.1765      28.7324    5760.2466 
  999000      998.985    369.21556    15.415129    -552.3719   -536.95677    13034.389    36112.733    52425.163   -49434.728      15.2149      13.1765      28.7324    5760.2466 
  999500      999.485    384.17314    16.039623   -552.99116   -536.95154    12048.991      36986.2    48824.114    -49663.34      15.2149      13.1765      28.7324    5760.2466 
 1000000      999.985    394.07787    16.453156   -553.40039   -536.94724    11522.921    35480.857    47327.891   -48239.985      15.2149      13.1765      28.7324    5760.2466 
 1000015         1000    389.87761    16.277791    -553.2237   -536.94591    11484.458    36804.582    51544.604   -53895.811      15.2149      13.1765      28.7324    5760.2466 
Loop time of 915.292 on 28 procs for 1000000 steps with 324 atoms

Performance: 94.396 ns/day, 0.254 hours/ns, 1092.547 timesteps/s
87.9% CPU use with 28 MPI tasks x no OpenMP threads

MPI task timing breakdown:
Section |  min time  |  avg time  |  max time  |%varavg| %total
---------------------------------------------------------------
Pair    | 734.61     | 789.9      | 850.99     |  99.9 | 86.30
Neigh   | 0          | 0          | 0          |   0.0 |  0.00
Comm    | 53.592     | 112.62     | 166.98     | 269.2 | 12.30
Output  | 0.098844   | 0.10185    | 0.12469    |   1.4 |  0.01
Modify  | 4.9164     | 7.5991     | 14.908     | 109.6 |  0.83
Other   |            | 5.07       |            |       |  0.55

Nlocal:    11.5714 ave 16 max 6 min
Histogram: 1 1 2 3 4 2 4 2 4 5
Nghost:    658.643 ave 711 max 620 min
Histogram: 7 5 0 0 8 0 0 0 6 2
Neighs:    724.25 ave 1044 max 373 min
Histogram: 1 3 3 4 1 5 3 5 1 2
FullNghs:  1448.5 ave 2023 max 768 min
Histogram: 2 1 4 3 2 5 1 5 4 1

Total # of neighbors = 40558
Ave neighs/atom = 125.179
Neighbor list builds = 0
Dangerous builds = 0

write_restart   POSCAR_1x1x1.rest

#unfix    1
#undump   1
Total wall time: 0:15:15
