LAMMPS (7 Dec 2015)
#----------- Initialize Simulation ------------ restart01
#processors	2 2 2
units		metal
boundary	p p p     ## periodic boundary condition  on x y z axis ##
atom_style atomic
#atom_modify map array sort 0 0.0

read_data	POSCAR_1x1x1.lammps
  triclinic box = (0 0 0) to (15.2149 13.1765 28.7324) with tilt (-7.60743 0 0)
  2 by 2 by 7 MPI processor grid
  reading atoms ...
  324 atoms

#----------- Define Potential -----------------
pair_style meam
pair_coeff * * MgAlZn.library.meam Mg Al Zn MgAlZn.parameter.meam Mg Al Zn 	#1=Mg 2=Al 3=Zn	#atoms/mass

#----------- Neighbor List --------------------
neighbor 2.0 bin
neigh_modify delay 10 check yes

#--------------  Run a simulation (minimization) ---------------------------------------
minimize       1.0e-4   1.0e-6   100   1000          #結構優化的條件
WARNING: Resetting reneighboring criteria during minimization (../min.cpp:168)
Neighbor list info ...
  2 neighbor list requests
  update every 1 steps, delay 0 steps, check yes
  max neighbors/atom: 2000, page size: 100000
  master list distance cutoff = 8
  ghost atom cutoff = 8
  binsize = 4 -> bins = 6 4 8
Memory usage per processor = 8.65302 Mbytes
Step Temp E_pair E_mol TotEng Press 
       0            0   -576.21654            0   -576.21654    10840.586 
      11            0   -591.20337            0   -591.20337    7383.9463 
Loop time of 0.0192398 on 28 procs for 11 steps with 324 atoms

85.4% CPU use with 28 MPI tasks x no OpenMP threads

Minimization stats:
  Stopping criterion = energy tolerance
  Energy initial, next-to-last, final = 
        -576.216544328     -591.156744887     -591.203370481
  Force two-norm initial, final = 23.0407 2.53082
  Force max component initial, final = 3.4582 0.666202
  Final line search alpha, max atom move = 0.165552 0.110291
  Iterations, force evaluations = 11 20

MPI task timing breakdown:
Section |  min time  |  avg time  |  max time  |%varavg| %total
---------------------------------------------------------------
Pair    | 0.014617   | 0.016104   | 0.017412   |   0.5 | 83.70
Neigh   | 0          | 0          | 0          |   0.0 |  0.00
Comm    | 0.0010297  | 0.0022489  | 0.0037569  |   1.4 | 11.69
Output  | 0          | 0          | 0          |   0.0 |  0.00
Modify  | 0          | 0          | 0          |   0.0 |  0.00
Other   |            | 0.0008871  |            |       |  4.61

Nlocal:    11.5714 ave 15 max 7 min
Histogram: 4 3 1 0 0 2 7 3 2 6
Nghost:    663.214 ave 720 max 623 min
Histogram: 10 2 0 1 6 1 0 0 4 4
Neighs:    721.429 ave 966 max 410 min
Histogram: 3 4 1 0 1 5 4 1 4 5
FullNghs:  1442.86 ave 1900 max 873 min
Histogram: 4 3 1 0 2 5 2 3 2 6

Total # of neighbors = 40400
Ave neighs/atom = 124.691
Neighbor list builds = 0
Dangerous builds = 0
velocity all  create 393.0 4928459 #rot yes dist gaussian

#--------------  Run a simulation (Relaxation)  ----------------------------------------
fix  1  all  nvt   temp  393.0  393.0  100				#damping constant
#fix  2  all  npt   temp  393.0  393.0  50 iso 0.0 0.0 1000.0
#fix  2  all deform 1 x final 0 15.6906 y final 0 13.5884 z final 0 25.2339 xy final -7.8452 units lattice
#fix  3  all  npt   temp  393.0  393.0  50 z 0.0 0.0 1000.0

#variable b equal 1
#fix 2 all efield  0.0  0.0  v_b
#compute pot all pe/atom


#----------- Output --------------------------
thermo	 500
timestep  0.001		#1.0 fs
thermo_style	custom step time temp ke pe etotal press pxx pyy pzz lx ly lz vol

dump 1 all custom 10000 dump.eq id type x y z
dump_modify 1 sort  id

run        1000000	#10000	 ps
Neighbor list info ...
  2 neighbor list requests
  update every 1 steps, delay 10 steps, check yes
  max neighbors/atom: 2000, page size: 100000
  master list distance cutoff = 8
  ghost atom cutoff = 8
  binsize = 4 -> bins = 6 4 8
Memory usage per processor = 7.54349 Mbytes
Step Time Temp KinEng PotEng TotEng Press Pxx Pyy Pzz Lx Ly Lz Volume 
      11            0          393    16.408154   -591.20337   -574.79522    10426.496    30880.109    39417.048   -39017.668      15.2149      13.1765      28.7324    5760.2466 
     500        0.489    209.87409    8.7624587   -583.55207   -574.78962     12185.25    35748.091    45728.494   -44920.836      15.2149      13.1765      28.7324    5760.2466 
    1000        0.989    210.14714    8.7738591   -583.56275   -574.78889    12536.937    36793.918    43419.022   -42602.128      15.2149      13.1765      28.7324    5760.2466 
    1500        1.489    199.04217     8.310215   -583.09807   -574.78786    13302.414    35220.697    49988.358   -45301.813      15.2149      13.1765      28.7324    5760.2466 
    2000        1.989    199.54807     8.331337   -583.11842   -574.78709    12715.099    33985.991     45690.63   -41531.323      15.2149      13.1765      28.7324    5760.2466 
    2500        2.489    215.28667    8.9884396   -583.77559   -574.78715    12601.643    38083.315    49736.551   -50014.937      15.2149      13.1765      28.7324    5760.2466 
    3000        2.989    213.58448    8.9173715   -583.70286   -574.78548    11434.804    31627.123    42317.856   -39640.567      15.2149      13.1765      28.7324    5760.2466 
    3500        3.489     205.5097     8.580241   -583.36429   -574.78404    14636.539     33493.27    50192.522   -39776.174      15.2149      13.1765      28.7324    5760.2466 
    4000        3.989      216.736    9.0489506    -583.8321   -574.78315    12922.624    34695.614    45563.693   -41491.436      15.2149      13.1765      28.7324    5760.2466 
    4500        4.489    210.57456    8.7917041   -583.57229   -574.78059    13194.873    32605.333    44236.001   -37256.716      15.2149      13.1765      28.7324    5760.2466 
    5000        4.989    205.24837    8.5693304   -583.34785   -574.77852    10707.468    32172.692    43911.321   -43961.609      15.2149      13.1765      28.7324    5760.2466 
    5500        5.489    225.03776    9.3955576   -584.17277   -574.77722    12132.231    33271.964    46172.726   -43047.997      15.2149      13.1765      28.7324    5760.2466 
    6000        5.989    203.08721    8.4790994    -583.2531     -574.774    13416.933    32774.975    47489.485   -40013.662      15.2149      13.1765      28.7324    5760.2466 
    6500        6.489    212.37589    8.8669115   -583.63882   -574.77191    11850.362    35008.838    49382.512   -48840.264      15.2149      13.1765      28.7324    5760.2466 
    7000        6.989    211.89991    8.8470389   -583.61652   -574.76948    12219.147    32480.922    49399.684   -45223.163      15.2149      13.1765      28.7324    5760.2466 
    7500        7.489    214.98841     8.975987   -583.74231   -574.76632    13027.652    37308.503    47063.269   -45288.817      15.2149      13.1765      28.7324    5760.2466 
    8000        7.989    202.75778    8.4653457   -583.22806   -574.76272    13104.076    33889.249    49321.816   -43898.837      15.2149      13.1765      28.7324    5760.2466 
    8500        8.489    196.36753    8.1985459   -582.95739   -574.75885    13525.293    38239.567    45083.466   -42747.155      15.2149      13.1765      28.7324    5760.2466 
    9000        8.989    214.61899    8.9605634   -583.71688   -574.75632    12563.374    34314.337    46019.195    -42643.41      15.2149      13.1765      28.7324    5760.2466 
    9500        9.489     217.6212    9.0859084   -583.83815   -574.75224    12401.553    32711.471     47049.77    -42556.58      15.2149      13.1765      28.7324    5760.2466 
   10000        9.989     218.7813    9.1343438   -583.88279   -574.74845    12222.938    35575.056    43839.274   -42745.517      15.2149      13.1765      28.7324    5760.2466 
   10500       10.489    211.67487    8.8376433    -583.5818   -574.74415    12740.578    34053.476    45224.431   -41056.173      15.2149      13.1765      28.7324    5760.2466 
   11000       10.989    206.16067    8.6074197   -583.34714   -574.73973    12119.265    34807.626    47084.044   -45533.874      15.2149      13.1765      28.7324    5760.2466 
   11500       11.489    206.34116    8.6149552   -583.35011   -574.73516    12325.607    34188.807    47928.509   -45140.495      15.2149      13.1765      28.7324    5760.2466 
   12000       11.989    208.81314    8.7181632   -583.44779   -574.72963    12865.323    37427.699    49391.149   -48222.879      15.2149      13.1765      28.7324    5760.2466 
   12500       12.489    214.11839    8.9396628   -583.66467   -574.72501    11632.207     34565.85    45747.922   -45417.151      15.2149      13.1765      28.7324    5760.2466 
   13000       12.989     220.0158    9.1858854   -583.90617   -574.72029    12312.374    34984.256    46137.268   -44184.402      15.2149      13.1765      28.7324    5760.2466 
   13500       13.489    208.68156    8.7126696   -583.42744   -574.71477    12461.671    35500.031    44844.386   -42959.403      15.2149      13.1765      28.7324    5760.2466 
   14000       13.989    205.29778    8.5713932   -583.28002   -574.70863    13315.193    33273.183    47102.029   -40429.632      15.2149      13.1765      28.7324    5760.2466 
   14500       14.489    213.86042    8.9288921   -583.63204   -574.70315    13075.141    34976.891    44821.112   -40572.579      15.2149      13.1765      28.7324    5760.2466 
   15000       14.989    225.67263    9.4220641   -584.11912   -574.69705    13123.802    31771.588    46750.703   -39150.884      15.2149      13.1765      28.7324    5760.2466 
   15500       15.489    225.66372     9.421692   -584.11275   -574.69106    13732.247    35652.636    45094.117   -39550.011      15.2149      13.1765      28.7324    5760.2466 
   16000       15.989    205.92549    8.5976005   -583.28176   -574.68416    12049.061    35223.983    45951.243   -45028.045      15.2149      13.1765      28.7324    5760.2466 
   16500       16.489    207.70788    8.6720174   -583.35041   -574.67839    14306.441    35278.117    46974.436    -39333.23      15.2149      13.1765      28.7324    5760.2466 
   17000       16.989     207.5257    8.6644109   -583.33551    -574.6711    11825.728    33042.913    45127.423   -42693.152      15.2149      13.1765      28.7324    5760.2466 
   17500       17.489    219.15756    9.1500532   -583.81398   -574.66393    14153.885    32216.723    48208.518   -37963.585      15.2149      13.1765      28.7324    5760.2466 
   18000       17.989    222.35751    9.2836544   -583.94048   -574.65682    13312.026    33019.775    44813.445   -37897.142      15.2149      13.1765      28.7324    5760.2466 
   18500       18.489    205.99114    8.6003418   -583.24993   -574.64959    14225.525      35052.8    47648.772   -40024.996      15.2149      13.1765      28.7324    5760.2466 
   19000       18.989    214.11452    8.9395012   -583.58224   -574.64274    13079.277    31375.917     47752.83   -39890.915      15.2149      13.1765      28.7324    5760.2466 
   19500       19.489    215.87677    9.0130768   -583.64749   -574.63441    13011.391    35229.598    46883.885    -43079.31      15.2149      13.1765      28.7324    5760.2466 
   20000       19.989    222.27243     9.280102   -583.90652   -574.62642    13842.101    37281.256    45696.964   -41451.915      15.2149      13.1765      28.7324    5760.2466 
   20500       20.489    211.04179    8.8112113   -583.42953   -574.61832    12519.756    32089.802     42968.33   -37498.864      15.2149      13.1765      28.7324    5760.2466 
   21000       20.989    222.42156    9.2863284   -583.89611   -574.60978    13202.618    31158.381    50456.437   -42006.965      15.2149      13.1765      28.7324    5760.2466 
   21500       21.489    222.19293     9.276783   -583.87851   -574.60172    13407.432    34350.523    47742.253   -41870.479      15.2149      13.1765      28.7324    5760.2466 
   22000       21.989    214.02908    8.9359338   -583.52837   -574.59243    12328.059    37709.669    45920.296   -46645.788      15.2149      13.1765      28.7324    5760.2466 
   22500       22.489    220.12102    9.1902787   -583.77348   -574.58321    13234.494     36110.36    45318.976   -41725.853      15.2149      13.1765      28.7324    5760.2466 
   23000       22.989    201.53486    8.4142873   -582.98813   -574.57384    13924.176    31828.161    47799.984   -37855.618      15.2149      13.1765      28.7324    5760.2466 
   23500       23.489     221.0482    9.2289893   -583.79408   -574.56509    13493.319    34538.187    48596.196   -42654.427      15.2149      13.1765      28.7324    5760.2466 
   24000       23.989     210.7182    8.7977013   -583.35373   -574.55603     12683.38    32786.755    47629.176   -42365.791      15.2149      13.1765      28.7324    5760.2466 
   24500       24.489     210.0728     8.770755   -583.31654   -574.54578    13538.139    34742.651    46700.827   -40829.062      15.2149      13.1765      28.7324    5760.2466 
   25000       24.989    210.42021    8.7852598   -583.32139   -574.53613    13366.715    32343.348    49164.493   -41407.696      15.2149      13.1765      28.7324    5760.2466 
   25500       25.489    213.94261    8.9323238   -583.45834   -574.52602    13479.656    34576.666    46702.043    -40839.74      15.2149      13.1765      28.7324    5760.2466 
   26000       25.989    211.29182    8.8216504   -583.33758   -574.51593    10902.594    36196.718    43883.901   -47372.836      15.2149      13.1765      28.7324    5760.2466 
   26500       26.489    214.22897    8.9442796   -583.44946   -574.50518    11949.842    35544.038    45161.781   -44856.291      15.2149      13.1765      28.7324    5760.2466 
   27000       26.989    210.80785    8.8014443   -583.29662   -574.49518    13148.931    32013.152     47292.51   -39858.868      15.2149      13.1765      28.7324    5760.2466 
   27500       27.489     205.7349    8.5896433   -583.07379   -574.48415     13704.74    34311.664    45930.787   -39128.231      15.2149      13.1765      28.7324    5760.2466 
   28000       27.989    222.43301    9.2868068   -583.76091    -574.4741    13322.581    34737.689    45743.275   -40513.221      15.2149      13.1765      28.7324    5760.2466 
   28500       28.489    216.49975    9.0390867   -583.50129   -574.46221    12593.661    36528.947    46030.412   -44778.375      15.2149      13.1765      28.7324    5760.2466 
   29000       28.989    213.02713    8.8941012   -583.34539   -574.45129    13001.075    35799.124    47810.196   -44606.096      15.2149      13.1765      28.7324    5760.2466 
   29500       29.489    213.07073    8.8959217   -583.33616   -574.44024    13366.004    35118.101     46070.56   -41090.649      15.2149      13.1765      28.7324    5760.2466 
   30000       29.989    212.92061    8.8896542   -583.31802   -574.42836    12121.641    35568.235    47052.421   -46255.734      15.2149      13.1765      28.7324    5760.2466 
   30500       30.489    216.95761    9.0582031   -583.47521   -574.41701    11467.605     33492.76    44985.281   -44075.224      15.2149      13.1765      28.7324    5760.2466 
   31000       30.989    221.92838    9.2657379   -583.67144   -574.40571     14190.19    34038.691    46718.022   -38186.144      15.2149      13.1765      28.7324    5760.2466 
   31500       31.489     219.1787    9.1509358   -583.54419   -574.39325    12386.935    34792.573    43685.681   -41317.448      15.2149      13.1765      28.7324    5760.2466 
   32000       31.989    223.87194    9.3468832   -583.72903   -574.38214    12968.911    32490.004    47095.727   -40678.999      15.2149      13.1765      28.7324    5760.2466 
   32500       32.489    221.53095    9.2491447   -583.61898   -574.36984     13730.31    36102.176    42373.297   -37284.544      15.2149      13.1765      28.7324    5760.2466 
   33000       32.989    218.30563    9.1144843   -583.47229    -574.3578    13552.702    36380.512    46947.697   -42670.104      15.2149      13.1765      28.7324    5760.2466 
   33500       33.489    222.34765    9.2832429   -583.62944    -574.3462    11951.768    32998.108    46749.069   -43891.872      15.2149      13.1765      28.7324    5760.2466 
   34000       33.989    212.70644    8.8807125   -583.21426   -574.33355    13173.299    36249.695    48423.343   -45153.141      15.2149      13.1765      28.7324    5760.2466 
   34500       34.489    218.15663    9.1082634   -583.42965   -574.32139    13267.512    33540.836    49620.352   -43358.652      15.2149      13.1765      28.7324    5760.2466 
   35000       34.989    220.48108    9.2053116   -583.51408   -574.30877    12485.009    30980.013    45002.079   -38527.065      15.2149      13.1765      28.7324    5760.2466 
   35500       35.489    228.34584    9.5336731   -583.82976   -574.29609    12467.179    33588.929    46632.514   -42819.906      15.2149      13.1765      28.7324    5760.2466 
   36000       35.989    217.22567    9.0693947    -583.3523    -574.2829    12912.019    37068.452    43652.801   -41985.196      15.2149      13.1765      28.7324    5760.2466 
   36500       36.489    217.13405    9.0655694   -583.33609   -574.27052    12313.296     33641.23    46911.265   -43612.609      15.2149      13.1765      28.7324    5760.2466 
   37000       36.989    224.05024    9.3543276   -583.61274   -574.25841    13189.855    36656.175    48185.085   -45271.695      15.2149      13.1765      28.7324    5760.2466 
   37500       37.489    215.93822    9.0156424   -583.26019   -574.24455    13057.568    35125.446    45796.917   -41749.659      15.2149      13.1765      28.7324    5760.2466 
   38000       37.989    215.46889    8.9960474   -583.22871   -574.23267    12531.634    30634.761    45381.399   -38421.258      15.2149      13.1765      28.7324    5760.2466 
   38500       38.489    212.91589     8.889457    -583.1092   -574.21974    12989.879    33746.685     46059.17   -40836.216      15.2149      13.1765      28.7324    5760.2466 
   39000       38.989    233.74907    9.7592637    -583.9667   -574.20744    12259.452     35653.42    46910.124    -45785.19      15.2149      13.1765      28.7324    5760.2466 
   39500       39.489    210.46967    8.7873248   -582.98108   -574.19375    12998.266    31957.578    49288.207   -42250.986      15.2149      13.1765      28.7324    5760.2466 
   40000       39.989     220.8039    9.2187896   -583.39969    -574.1809    13086.772    35622.445    50028.017   -46390.145      15.2149      13.1765      28.7324    5760.2466 
   40500       40.489    227.45788    9.4966001    -583.6644    -574.1678    13268.635    35863.223    46100.326   -42157.644      15.2149      13.1765      28.7324    5760.2466 
   41000       40.989    217.07209    9.0629824   -583.21875   -574.15577    12740.247    36003.766    44638.893   -42421.917      15.2149      13.1765      28.7324    5760.2466 
   41500       41.489    218.82063    9.1359861   -583.27886   -574.14288    11470.733    36445.003    44852.985    -46885.79      15.2149      13.1765      28.7324    5760.2466 
   42000       41.989    216.11646    9.0230843   -583.15252   -574.12944    11758.497    37379.341     45190.77    -47294.62      15.2149      13.1765      28.7324    5760.2466 
   42500       42.489    222.87759    9.3053684   -583.42272   -574.11736    12412.346    32037.699    47254.831   -42055.492      15.2149      13.1765      28.7324    5760.2466 
   43000       42.989    224.69722    9.3813397   -583.48569   -574.10435      13361.1    34063.612    46424.673   -40404.986      15.2149      13.1765      28.7324    5760.2466 
   43500       43.489    217.12885    9.0653525   -583.15633   -574.09098     12726.95    32937.459    49827.338   -44583.946      15.2149      13.1765      28.7324    5760.2466 
   44000       43.989    215.48937    8.9969024   -583.07466   -574.07776    13167.577    35424.997    46200.379   -42122.646      15.2149      13.1765      28.7324    5760.2466 
   44500       44.489    222.33305     9.282633   -583.34778   -574.06515     13155.19    33736.962    46450.633   -40722.026      15.2149      13.1765      28.7324    5760.2466 
   45000       44.989    223.08856    9.3141766   -583.36671   -574.05253    13316.203     32777.52    48723.624   -41552.534      15.2149      13.1765      28.7324    5760.2466 
   45500       45.489    227.13227    9.4830054   -583.52284   -574.03983    13702.064    33027.608    47126.143   -39047.558      15.2149      13.1765      28.7324    5760.2466 
   46000       45.989    219.18333    9.1511289   -583.17848   -574.02735    13119.743    34852.082    46357.906   -41850.759      15.2149      13.1765      28.7324    5760.2466 
   46500       46.489    220.72341    9.2154291   -583.22924   -574.01381    13219.846    35370.117    45902.518   -41613.097      15.2149      13.1765      28.7324    5760.2466 
   47000       46.989    226.39434     9.452196   -583.45399    -574.0018     12366.47    35616.842    45049.935   -43567.366      15.2149      13.1765      28.7324    5760.2466 
   47500       47.489    215.65124    9.0036608   -582.99277   -573.98911    13928.288    32421.923    49489.732   -40126.791      15.2149      13.1765      28.7324    5760.2466 
   48000       47.989    228.77633    9.5516465   -583.52874   -573.97709    12316.964    35912.533    46437.382   -45399.022      15.2149      13.1765      28.7324    5760.2466 
   48500       48.489    222.15847    9.2753441   -583.24032   -573.96497    13089.251    35688.475    47879.662   -44300.385      15.2149      13.1765      28.7324    5760.2466 
   49000       48.989      227.469    9.4970643   -583.44941   -573.95235    12772.441    34133.624     47543.85   -43360.151      15.2149      13.1765      28.7324    5760.2466 
   49500       49.489    221.70886    9.2565724   -583.19628   -573.93971    13012.705     35543.75    47135.383   -43641.017      15.2149      13.1765      28.7324    5760.2466 
   50000       49.989    227.79118    9.5105159   -583.43842    -573.9279     12815.42    33463.047    44243.255   -39260.041      15.2149      13.1765      28.7324    5760.2466 
   50500       50.489    224.54891    9.3751476   -583.29076   -573.91561    12399.275    33580.351    48854.002   -45236.528      15.2149      13.1765      28.7324    5760.2466 
   51000       50.989    239.74261      10.0095    -583.9138    -573.9043    13213.043    34388.105    46049.047   -40798.021      15.2149      13.1765      28.7324    5760.2466 
   51500       51.489     236.2641    9.8642688    -583.7571   -573.89283    12713.297    35398.031    46269.692   -43527.831      15.2149      13.1765      28.7324    5760.2466 
   52000       51.989    231.95006    9.6841533   -583.56453   -573.88038    12181.826    32321.347     43595.77   -39371.638      15.2149      13.1765      28.7324    5760.2466 
   52500       52.489    211.82895    8.8440762   -582.71191   -573.86783    13024.549    34090.009    49452.441   -44468.803      15.2149      13.1765      28.7324    5760.2466 
   53000       52.989    234.17039     9.776854   -583.63278   -573.85593    13141.388    34131.447    45062.364   -39769.648      15.2149      13.1765      28.7324    5760.2466 
   53500       53.489    236.47319    9.8729986   -583.71832   -573.84532    13306.814    34057.773    47770.399   -41907.732      15.2149      13.1765      28.7324    5760.2466 
   54000       53.989    224.12265    9.3573507      -583.19   -573.83265    13044.629    32673.941    45934.161   -39474.216      15.2149      13.1765      28.7324    5760.2466 
   54500       54.489    228.43071    9.5372165   -583.35858   -573.82137    13007.815    34602.839     47645.99   -43225.384      15.2149      13.1765      28.7324    5760.2466 
   55000       54.989    232.89264     9.723507   -583.53367   -573.81017     13400.13    35888.534    47455.223   -43143.365      15.2149      13.1765      28.7324    5760.2466 
   55500       55.489    233.74886    9.7592549   -583.55769   -573.79844    12369.162    35275.035    48443.763   -46611.313      15.2149      13.1765      28.7324    5760.2466 
   56000       55.989    222.32844    9.2824408   -583.06903   -573.78659    12783.378    33151.818    47632.137   -42433.821      15.2149      13.1765      28.7324    5760.2466 
   56500       56.489    224.49407     9.372858    -583.1484   -573.77555    12890.942    35835.673    48057.109   -45219.956      15.2149      13.1765      28.7324    5760.2466 
   57000       56.989    238.50471    9.9578165   -583.72244   -573.76463    13287.375    34231.652    47381.603    -41751.13      15.2149      13.1765      28.7324    5760.2466 
   57500       57.489    224.83024    9.3868936   -583.13986   -573.75296    12135.821    31993.028    46418.842   -42004.409      15.2149      13.1765      28.7324    5760.2466 
   58000       57.989    234.26921    9.7809801   -583.52261   -573.74163    14730.473    33616.908    51242.926   -40668.416      15.2149      13.1765      28.7324    5760.2466 
   58500       58.489    224.68427    9.3807991   -583.11167   -573.73087     12149.26    32413.487    47465.435   -43431.141      15.2149      13.1765      28.7324    5760.2466 
   59000       58.989     230.6675    9.6306051   -583.34992   -573.71931    13725.767     36475.59    43829.995   -39128.282      15.2149      13.1765      28.7324    5760.2466 
   59500       59.489    230.93751     9.641878   -583.35077   -573.70889    12807.272    35785.642    49018.131   -46381.957      15.2149      13.1765      28.7324    5760.2466 
   60000       59.989     224.6237    9.3782703   -583.07576   -573.69749    12467.014    32962.452    46841.791   -42403.202      15.2149      13.1765      28.7324    5760.2466 
   60500       60.489    213.37989    8.9088294   -582.59455   -573.68572    12959.232    34698.624    49926.126   -45747.053      15.2149      13.1765      28.7324    5760.2466 
   61000       60.989    233.25902    9.7388036   -583.41425   -573.67545    13581.677     33582.84    48850.271   -41688.079      15.2149      13.1765      28.7324    5760.2466 
   61500       61.489    236.08024    9.8565926   -583.52145   -573.66486    12784.094    34204.792    48065.867   -43918.376      15.2149      13.1765      28.7324    5760.2466 
   62000       61.989    228.28191    9.5310041   -583.18422   -573.65322    13524.386    35219.611    46803.077   -41449.531      15.2149      13.1765      28.7324    5760.2466 
   62500       62.489    236.05602    9.8555811   -583.49771   -573.64213    13582.049     33342.03     48910.17   -41506.052      15.2149      13.1765      28.7324    5760.2466 
   63000       62.989    218.62005    9.1276114   -582.75826   -573.63065    13010.397    34307.675    49017.333   -44293.817      15.2149      13.1765      28.7324    5760.2466 
   63500       63.489    232.51291    9.7076528   -583.32905    -573.6214    13964.006    34576.867    48300.213   -40985.063      15.2149      13.1765      28.7324    5760.2466 
   64000       63.989    227.40301     9.494309   -583.10413   -573.60982    13360.233    32879.738    48801.992   -41601.032      15.2149      13.1765      28.7324    5760.2466 
   64500       64.489    230.73031    9.6332276   -583.23321   -573.59998    14083.688    38571.144    49768.602   -46088.683      15.2149      13.1765      28.7324    5760.2466 
   65000       64.989    233.44459    9.7465512   -583.33577   -573.58921    13317.961    36385.415    48076.845   -44508.376      15.2149      13.1765      28.7324    5760.2466 
   65500       65.489    230.07459    9.6058503   -583.18443   -573.57858    12857.735    33875.132    48476.944   -43778.872      15.2149      13.1765      28.7324    5760.2466 
   66000       65.989    237.64131    9.9217686   -583.48997    -573.5682    14031.439    34753.907     47419.75    -40079.34      15.2149      13.1765      28.7324    5760.2466 
   66500       66.489    236.24366    9.8634155   -583.42067   -573.55725    14678.532    35076.283    49872.269   -40912.956      15.2149      13.1765      28.7324    5760.2466 
   67000       66.989    210.73338    8.7983348   -582.34467   -573.54633    12733.924    35850.441    49856.563   -47505.232      15.2149      13.1765      28.7324    5760.2466 
   67500       67.489     234.3993    9.7864115   -583.32284   -573.53643    13175.544    32602.666    48605.113   -41681.147      15.2149      13.1765      28.7324    5760.2466 
   68000       67.989    224.10994    9.3568201   -582.88179   -573.52497    12872.842    34756.049    46793.843   -42931.364      15.2149      13.1765      28.7324    5760.2466 
   68500       68.489    229.88946    9.5981212    -583.1126   -573.51448    13196.971    37479.817    49262.571   -47151.477      15.2149      13.1765      28.7324    5760.2466 
   69000       68.989    224.18369    9.3598995   -582.86366   -573.50376    13277.875    34886.046     48011.28     -43063.7      15.2149      13.1765      28.7324    5760.2466 
   69500       69.489    241.11628    10.066852   -583.56065   -573.49379    11536.235    37675.037     43142.75   -46209.083      15.2149      13.1765      28.7324    5760.2466 
   70000       69.989    241.43045    10.079969   -583.56302   -573.48305    13504.951    37521.482    47207.247   -44213.876      15.2149      13.1765      28.7324    5760.2466 
   70500       70.489    238.54929     9.959678   -583.43262   -573.47294    13770.152    35400.883    48960.784   -43051.211      15.2149      13.1765      28.7324    5760.2466 
   71000       70.989    224.84761    9.3876186   -582.84953   -573.46191    13444.514    33074.005    49541.561   -42282.023      15.2149      13.1765      28.7324    5760.2466 
   71500       71.489    224.65293    9.3794904   -582.83038   -573.45089    12034.572    31693.221    48741.735   -44331.239      15.2149      13.1765      28.7324    5760.2466 
   72000       71.989    217.96663    9.1003306   -582.54076   -573.44043    13362.525    35588.064    45211.527   -40712.015      15.2149      13.1765      28.7324    5760.2466 
   72500       72.489     228.5147    9.5407232   -582.96993   -573.42921    13304.965    33133.028    47909.261   -41127.395      15.2149      13.1765      28.7324    5760.2466 
   73000       72.989    234.30342    9.7824082   -583.20165   -573.41924    12853.952    32300.238    50542.616   -44280.998      15.2149      13.1765      28.7324    5760.2466 
   73500       73.489    230.41311    9.6199838   -583.02917   -573.40919    13184.536    34682.468    46909.438   -42038.297      15.2149      13.1765      28.7324    5760.2466 
   74000       73.989    231.88435    9.6814098   -583.07892   -573.39751    12944.406    35104.251    45101.976    -41373.01      15.2149      13.1765      28.7324    5760.2466 
   74500       74.489    234.19688    9.7779602   -583.16493   -573.38697      14335.5    33568.517    49519.791   -40081.808      15.2149      13.1765      28.7324    5760.2466 
   75000       74.989    230.13059    9.6081885   -582.98341   -573.37522    12081.126    35254.044    46412.417   -45423.083      15.2149      13.1765      28.7324    5760.2466 
   75500       75.489    235.38277    9.8274722   -583.19299   -573.36551    13204.706    32588.913    50695.009   -43669.803      15.2149      13.1765      28.7324    5760.2466 
   76000       75.989    238.69878     9.965919   -583.32139   -573.35547    13662.937    34336.116    47983.713   -41331.018      15.2149      13.1765      28.7324    5760.2466 
   76500       76.489    220.36051    9.2002777    -582.5435   -573.34322    12941.309    34562.294    49050.555   -44788.922      15.2149      13.1765      28.7324    5760.2466 
   77000       76.989    229.21815    9.5700932   -582.90192   -573.33183    13965.029    30768.544    49586.758   -38460.215      15.2149      13.1765      28.7324    5760.2466 
   77500       77.489    226.05464    9.4380131   -582.75967   -573.32165    12714.434    33448.939    47749.517   -43055.153      15.2149      13.1765      28.7324    5760.2466 
   78000       77.989    227.38389     9.493511   -582.80397   -573.31046     13573.24    36057.009    45722.837   -41060.127      15.2149      13.1765      28.7324    5760.2466 
   78500       78.489    237.60954    9.9204423   -583.22108   -573.30063    13447.751    31714.671    49891.628   -41263.045      15.2149      13.1765      28.7324    5760.2466 
   79000       78.989     229.8185    9.5951583   -582.88309   -573.28793    13342.532    31780.185    47957.712   -39710.301      15.2149      13.1765      28.7324    5760.2466 
   79500       79.489      227.762    9.5092974   -582.78638   -573.27708    13451.393    32535.717    49068.322    -41249.86      15.2149      13.1765      28.7324    5760.2466 
   80000       79.989    224.05062    9.3543436   -582.62133   -573.26699    12175.798    33113.887    47492.406     -44078.9      15.2149      13.1765      28.7324    5760.2466 
   80500       80.489    233.23275    9.7377069   -582.99357   -573.25586    12528.182    36921.434    51934.581   -51271.468      15.2149      13.1765      28.7324    5760.2466 
   81000       80.989    234.37408    9.7853585   -583.02985    -573.2445    12398.283    34535.777    44155.262   -41496.191      15.2149      13.1765      28.7324    5760.2466 
   81500       81.489    225.28708    9.4059667   -582.63913   -573.23316    12210.884    32802.357    49978.615    -46148.32      15.2149      13.1765      28.7324    5760.2466 
   82000       81.989    242.52173    10.125531   -583.34877   -573.22324     13739.92    33961.955    49110.468   -41852.662      15.2149      13.1765      28.7324    5760.2466 
   82500       82.489    225.98534    9.4351202   -582.64584   -573.21072    13652.811    34783.908    48467.584   -42293.058      15.2149      13.1765      28.7324    5760.2466 
   83000       82.989    236.45312    9.8721606   -583.07181   -573.19965    14975.521    37438.634     47847.16   -40359.232      15.2149      13.1765      28.7324    5760.2466 
   83500       83.489    232.69551    9.7152767   -582.90301   -573.18773    13608.461    34203.825    49240.862   -42619.304      15.2149      13.1765      28.7324    5760.2466 
   84000       83.989    231.51025    9.6657905   -582.84206   -573.17627    13961.826    36208.445    46782.305   -41105.272      15.2149      13.1765      28.7324    5760.2466 
   84500       84.489    222.76466    9.3006534   -582.46462   -573.16397    13512.591    31891.416    48200.263   -39553.907      15.2149      13.1765      28.7324    5760.2466 
   85000       84.989    237.85033    9.9304957   -583.08366   -573.15316    14899.718    34790.717    51359.701   -41451.263      15.2149      13.1765      28.7324    5760.2466 
   85500       85.489    239.39738    9.9950863   -583.13653   -573.14145    12595.086     34538.94    45052.811   -41806.494      15.2149      13.1765      28.7324    5760.2466 
   86000       85.989     248.4419    10.372704   -583.50275   -573.13005    12981.384    33265.552    47698.555   -42019.956      15.2149      13.1765      28.7324    5760.2466 
   86500       86.489    240.81048    10.054085   -583.17231   -573.11823    12219.842    33218.916    47508.505   -44067.897      15.2149      13.1765      28.7324    5760.2466 
   87000       86.989    222.09082    9.2725196   -582.37829   -573.10577    14401.742    33120.998    51003.019    -40918.79      15.2149      13.1765      28.7324    5760.2466 
   87500       87.489     262.8066    10.972445   -584.06743   -573.09499    13178.448    32395.957    46255.959   -39116.571      15.2149      13.1765      28.7324    5760.2466 
   88000       87.989    233.78971    9.7609605   -582.84333   -573.08237    13786.761     37026.08    49824.751   -45490.546      15.2149      13.1765      28.7324    5760.2466 
   88500       88.489    223.65191    9.3376971   -582.40745   -573.06975    12292.102    36322.051    47826.565   -47272.309      15.2149      13.1765      28.7324    5760.2466 
   89000       88.989    247.80086     10.34594   -583.40494     -573.059    13744.867    33014.723    49103.762   -40883.886      15.2149      13.1765      28.7324    5760.2466 
   89500       89.489    231.01225    9.6449985   -582.69057   -573.04557    12536.304    37059.474    45683.121   -45133.683      15.2149      13.1765      28.7324    5760.2466 
   90000       89.989    236.75713    9.8848533   -582.91878   -573.03393    14208.184    29453.009    52010.938   -38839.394      15.2149      13.1765      28.7324    5760.2466 
   90500       90.489    247.11348    10.317242   -583.33932   -573.02208     11823.15    31780.336    52601.013   -48911.899      15.2149      13.1765      28.7324    5760.2466 
   91000       90.989    248.94224    10.393594   -583.40377   -573.01018    12582.974    36436.943    42383.874   -41071.895      15.2149      13.1765      28.7324    5760.2466 
   91500       91.489    231.39041    9.6607873   -582.65762   -572.99683     12247.98    34756.085    45584.371   -43596.518      15.2149      13.1765      28.7324    5760.2466 
   92000       91.989    240.09733     10.02431   -583.00863   -572.98432    13841.852    37007.775    46854.348   -42336.567      15.2149      13.1765      28.7324    5760.2466 
   92500       92.489    236.36217    9.8683634     -582.841   -572.97264    13899.498    31178.859    50768.727   -40249.091      15.2149      13.1765      28.7324    5760.2466 
   93000       92.989    240.47644    10.040138   -583.00047   -572.96034     13233.29    36329.048    47101.523   -43730.701      15.2149      13.1765      28.7324    5760.2466 
   93500       93.489    238.85797    9.9725656   -582.91957     -572.947    11520.181     32778.54    49076.382   -47294.379      15.2149      13.1765      28.7324    5760.2466 
   94000       93.989    229.85786    9.5968016   -582.53092   -572.93411    12854.555    33557.973    50913.992   -45908.301      15.2149      13.1765      28.7324    5760.2466 
   94500       94.489    233.80417     9.761564   -582.68327   -572.92171    12958.994     32178.43    50625.031   -43926.479      15.2149      13.1765      28.7324    5760.2466 
   95000       94.989    253.57259    10.586916   -583.49591     -572.909    13253.291    32037.019    50351.093   -42628.239      15.2149      13.1765      28.7324    5760.2466 
   95500       95.489    229.73912    9.5918442   -582.48763   -572.89578    12844.017     30714.55    50211.021    -42393.52      15.2149      13.1765      28.7324    5760.2466 
   96000       95.989    234.18768    9.7775763   -582.66149   -572.88391     14807.24    34601.988    46862.102   -37042.369      15.2149      13.1765      28.7324    5760.2466 
   96500       96.489    241.09542    10.065981   -582.93676   -572.87078    13282.796    34801.563    48150.779   -43103.956      15.2149      13.1765      28.7324    5760.2466 
   97000       96.989    223.70902    9.3400812   -582.19701   -572.85693    14257.762     34167.26    53953.287   -45347.262      15.2149      13.1765      28.7324    5760.2466 
   97500       97.489    242.94921    10.143379   -582.98836   -572.84498    14330.961    35049.578    52543.652   -44600.347      15.2149      13.1765      28.7324    5760.2466 
   98000       97.989    227.05151    9.4796339    -582.3111   -572.83146    14226.115    35603.916     54197.57   -47123.141      15.2149      13.1765      28.7324    5760.2466 
   98500       98.489    240.17189    10.027423   -582.84643   -572.81901    13181.276    35834.165    48738.567   -45028.902      15.2149      13.1765      28.7324    5760.2466 
   99000       98.989    236.44478    9.8718124   -582.67749   -572.80568     13572.32    34170.277    51639.603   -45092.919      15.2149      13.1765      28.7324    5760.2466 
   99500       99.489    253.04371    10.564835   -583.35795   -572.79311    12598.385    32319.105    52177.999   -46701.949      15.2149      13.1765      28.7324    5760.2466 
  100000       99.989     237.4897    9.9154388   -582.69418   -572.77875     13662.81    36545.595    46805.877   -42363.042      15.2149      13.1765      28.7324    5760.2466 
  100500      100.489    235.43535    9.8296677   -582.59579   -572.76612      12485.6    35618.612    47876.032   -46037.845      15.2149      13.1765      28.7324    5760.2466 
  101000      100.989      240.323    10.033732   -582.78545   -572.75172    12402.112    32841.523    47962.569   -43597.757      15.2149      13.1765      28.7324    5760.2466 
  101500      101.489    217.46757    9.0794942   -581.81818   -572.73869     13125.34     34392.77    47020.264   -42037.013      15.2149      13.1765      28.7324    5760.2466 
  102000      101.989    230.07313    9.6057894   -582.33079     -572.725    14053.055    34740.366    47766.974   -40348.176      15.2149      13.1765      28.7324    5760.2466 
  102500      102.489    232.65453    9.7135654   -582.42565   -572.71209     11589.98    35375.248    50368.109   -50973.417      15.2149      13.1765      28.7324    5760.2466 
  103000      102.989    243.35213    10.160201   -582.85898   -572.69878    14679.815     37866.89    51452.557   -45280.001      15.2149      13.1765      28.7324    5760.2466 
  103500      103.489      242.079    10.107047   -582.79245   -572.68541    12657.679    33811.066    46242.235   -42080.265      15.2149      13.1765      28.7324    5760.2466 
  104000      103.989    240.55926    10.043596   -582.71563   -572.67204    14312.666    33781.337    45939.993   -36783.331      15.2149      13.1765      28.7324    5760.2466 
  104500      104.489    251.47143    10.499191   -583.15658   -572.65739    13055.786    33975.775    47517.189   -42325.607      15.2149      13.1765      28.7324    5760.2466 
  105000      104.989    238.43595    9.9549458   -582.59851   -572.64356    12217.944    36554.123    51024.812   -50925.105      15.2149      13.1765      28.7324    5760.2466 
  105500      105.489    238.66714    9.9645983   -582.59407   -572.62947    14068.934    32307.538    49815.266   -39916.003      15.2149      13.1765      28.7324    5760.2466 
  106000      105.989    241.46791    10.081533   -582.69778   -572.61624    14076.878    30300.324    52171.197   -40240.888      15.2149      13.1765      28.7324    5760.2466 
  106500      106.489    243.27906    10.157151   -582.75932   -572.60217    12582.393    34237.047    51222.715   -47712.584      15.2149      13.1765      28.7324    5760.2466 
  107000      106.989    238.78638    9.9695764   -582.55755   -572.58798    14429.285    37571.671    50040.237   -44324.052      15.2149      13.1765      28.7324    5760.2466 
  107500      107.489     235.2926    9.8237076    -582.3967     -572.573    12649.607    37403.587    46904.424   -46359.191      15.2149      13.1765      28.7324    5760.2466 
  108000      107.989    235.00373    9.8116471   -582.37117   -572.55952    13066.735    34494.438    46352.988    -41647.22      15.2149      13.1765      28.7324    5760.2466 
  108500      108.489    254.97277    10.645375   -583.19178    -572.5464     13397.86    36028.712    47429.563   -43264.694      15.2149      13.1765      28.7324    5760.2466 
  109000      108.989    230.68564    9.6313625   -582.16238   -572.53102    13155.034    36012.833    48248.394   -44796.126      15.2149      13.1765      28.7324    5760.2466 
  109500      109.489    243.74181    10.176471   -582.69376   -572.51729    12546.692     35071.06    49100.991   -46531.976      15.2149      13.1765      28.7324    5760.2466 
  110000      109.989    249.99964    10.437742   -582.94109   -572.50335    13221.888    33261.309    44870.235   -38465.881      15.2149      13.1765      28.7324    5760.2466 
  110500      110.489     235.6359    9.8380409   -582.32688   -572.48883    13971.897     37346.97    50453.928   -45885.207      15.2149      13.1765      28.7324    5760.2466 
  111000      110.989    247.05724    10.314894   -582.79036   -572.47547    13179.111    34800.987    51004.891   -46268.544      15.2149      13.1765      28.7324    5760.2466 
  111500      111.489    242.48072    10.123819    -582.5838   -572.45998    13549.981    34592.484    47321.082   -41263.622      15.2149      13.1765      28.7324    5760.2466 
  112000      111.989    242.03442    10.105186    -582.5507   -572.44552    13027.034    35037.148    48451.885    -44407.93      15.2149      13.1765      28.7324    5760.2466 
  112500      112.489    239.11033    9.9831017   -582.41385   -572.43075    12644.394    33489.915    49278.262   -44834.993      15.2149      13.1765      28.7324    5760.2466 
  113000      112.989    239.10487    9.9828738   -582.39925   -572.41638     13141.43     33112.33    47801.005   -41489.043      15.2149      13.1765      28.7324    5760.2466 
  113500      113.489    247.81082    10.346356   -582.74842   -572.40206    12929.381    34566.591     47470.28   -43248.728      15.2149      13.1765      28.7324    5760.2466 
  114000      113.989    243.07814    10.148762   -582.53609   -572.38733    14220.551    37584.741     48984.31   -43907.398      15.2149      13.1765      28.7324    5760.2466 
  114500      114.489    250.48127     10.45785    -582.8308   -572.37295    13160.225    32864.758    46169.293   -39553.375      15.2149      13.1765      28.7324    5760.2466 
  115000      114.989    247.33111    10.326328   -582.68582   -572.35949    14283.867    35299.454     47774.29   -40222.144      15.2149      13.1765      28.7324    5760.2466 
  115500      115.489    247.44955    10.331273   -582.67542   -572.34415    13048.071     34988.17    47397.315   -43241.273      15.2149      13.1765      28.7324    5760.2466 
  116000      115.989    242.16061    10.110454   -582.43969   -572.32924    12892.539      33972.4    50049.482   -45344.265      15.2149      13.1765      28.7324    5760.2466 
  116500      116.489    231.93192    9.6833958   -581.99744   -572.31405    12961.605    35067.075    45748.652   -41930.912      15.2149      13.1765      28.7324    5760.2466 
  117000      116.989     243.6167    10.171247   -582.47146   -572.30021    13573.018    34155.376    48012.512   -41448.835      15.2149      13.1765      28.7324    5760.2466 
  117500      117.489    246.99853    10.312442   -582.59761   -572.28517     13242.14    33482.346    48052.658   -41808.582      15.2149      13.1765      28.7324    5760.2466 
  118000      117.989    236.73743    9.8840308   -582.15322   -572.26919    13450.885    38567.503    48820.562   -47035.409      15.2149      13.1765      28.7324    5760.2466 
  118500      118.489    236.56215    9.8767128   -582.13219   -572.25548    13294.791    34204.475     47859.66   -42179.762      15.2149      13.1765      28.7324    5760.2466 
  119000      118.989    234.90874    9.8076809    -582.0475   -572.23981    12136.884    34601.539     45601.08   -43791.967      15.2149      13.1765      28.7324    5760.2466 
  119500      119.489    246.82768    10.305309   -582.53105   -572.22574    13325.894    32772.199     50290.66   -43085.177      15.2149      13.1765      28.7324    5760.2466 
  120000      119.989    235.32697    9.8251426    -582.0354   -572.21026    12743.853    33486.424    49953.926   -45208.791      15.2149      13.1765      28.7324    5760.2466 
  120500      120.489    247.11335    10.317236   -582.51384    -572.1966    13305.059    32711.732    49864.904    -42661.46      15.2149      13.1765      28.7324    5760.2466 
  121000      120.989     238.9801    9.9776647   -582.15799   -572.18032     12715.14    35836.564    46105.016   -43796.158      15.2149      13.1765      28.7324    5760.2466 
  121500      121.489    248.30896    10.367154   -582.53317   -572.16601    12670.818    35716.946     47319.02   -45023.512      15.2149      13.1765      28.7324    5760.2466 
  122000      121.989    250.01081    10.438208   -582.58862   -572.15041     13237.54    32535.095    49925.705   -42748.179      15.2149      13.1765      28.7324    5760.2466 
  122500      122.489    252.44575    10.539869   -582.67538   -572.13551    13358.001    34091.277    48751.998   -42769.273      15.2149      13.1765      28.7324    5760.2466 
  123000      122.989    253.78924    10.595961   -582.71707    -572.1211    13691.386    30884.868    50165.889     -39976.6      15.2149      13.1765      28.7324    5760.2466 
  123500      123.489    253.46148    10.582277   -582.68709   -572.10482    12266.976    33088.936     47200.36   -43488.369      15.2149      13.1765      28.7324    5760.2466 
  124000      123.989     245.5948    10.253835    -582.3437   -572.08987    13573.115    37963.353    46995.727   -44239.735      15.2149      13.1765      28.7324    5760.2466 
  124500      124.489    234.46083    9.7889802   -581.86245   -572.07347     14109.72    36907.639    46327.637   -40906.118      15.2149      13.1765      28.7324    5760.2466 
  125000      124.989    255.28115     10.65825   -582.71837   -572.06012    13749.383    36056.855    46370.714    -41179.42      15.2149      13.1765      28.7324    5760.2466 
  125500      125.489    242.39557    10.120264   -582.16397   -572.04371    13841.084    34371.933    46953.279    -39801.96      15.2149      13.1765      28.7324    5760.2466 
  126000      125.989    237.45839    9.9141314   -581.94245   -572.02831    14163.071     38606.52    48965.754    -45083.06      15.2149      13.1765      28.7324    5760.2466 
  126500      126.489    238.67083    9.9647522   -581.97828   -572.01353    13758.953    32149.778    47823.935   -38696.853      15.2149      13.1765      28.7324    5760.2466 
  127000      126.989    256.57075    10.712092   -582.71074   -571.99865    11900.468    36352.839    47303.152   -47954.588      15.2149      13.1765      28.7324    5760.2466 
  127500      127.489    241.49127    10.082508   -582.06514   -571.98263    15697.453    38119.979    48071.392   -39099.013      15.2149      13.1765      28.7324    5760.2466 
  128000      127.989    256.42072    10.705828   -582.67347   -571.96764    14438.108    32357.387    50873.901   -39916.963      15.2149      13.1765      28.7324    5760.2466 
  128500      128.489    262.82071    10.973035   -582.92513    -571.9521    12879.888    34896.844    49810.042   -46067.222      15.2149      13.1765      28.7324    5760.2466 
  129000      128.989    254.10171    10.609007   -582.54617   -571.93716    13201.362    34446.879    51324.338   -46167.133      15.2149      13.1765      28.7324    5760.2466 
  129500      129.489    251.75162    10.510889   -582.43285   -571.92196     13674.06    34791.953    49626.045   -43395.818      15.2149      13.1765      28.7324    5760.2466 
  130000      129.989    237.98182    9.9359854   -581.84132   -571.90534    12624.209    34327.215    48800.157   -45254.745      15.2149      13.1765      28.7324    5760.2466 
  130500      130.489    253.58996    10.587641   -582.47742   -571.88978    13844.826    36424.368     47218.74   -42108.632      15.2149      13.1765      28.7324    5760.2466 
  131000      130.989    246.90555     10.30856   -582.18237   -571.87381    13813.832     40375.84    46928.185    -45862.53      15.2149      13.1765      28.7324    5760.2466 
  131500      131.489    239.63958    10.005199   -581.86375   -571.85855    14802.051    37913.073    48508.751   -42015.671      15.2149      13.1765      28.7324    5760.2466 
  132000      131.989    230.78503    9.6355122    -581.4779   -571.84238    14765.721    37274.961     45681.34   -38659.138      15.2149      13.1765      28.7324    5760.2466 
  132500      132.489    241.36009    10.077032   -581.90381   -571.82677    13246.264    38258.349    49785.898   -48305.455      15.2149      13.1765      28.7324    5760.2466 
  133000      132.989    261.89211    10.934265   -582.74582   -571.81156    13917.238     32809.66    46606.314    -37664.26      15.2149      13.1765      28.7324    5760.2466 
  133500      133.489    252.05272     10.52346   -582.31969   -571.79623    14028.647    34097.659    50694.487   -42706.205      15.2149      13.1765      28.7324    5760.2466 
  134000      133.989    262.29133    10.950932   -582.73124   -571.78031    14407.346    34627.666    49830.629   -41236.257      15.2149      13.1765      28.7324    5760.2466 
  134500      134.489    248.99493    10.395794   -582.15997   -571.76418     13551.22    36995.361    48218.096   -44559.797      15.2149      13.1765      28.7324    5760.2466 
  135000      134.989    233.33854    9.7421239   -581.49031   -571.74818     13108.07    32173.845     55640.75   -48490.386      15.2149      13.1765      28.7324    5760.2466 
  135500      135.489    260.64135    10.882044   -582.61479   -571.73274    13631.258    38712.254    49050.024   -46868.506      15.2149      13.1765      28.7324    5760.2466 
  136000      135.989     259.9534    10.853321   -582.57065   -571.71733    13442.483    31890.573    49314.664   -40877.789      15.2149      13.1765      28.7324    5760.2466 
  136500      136.489    238.45168    9.9556026    -581.6564    -571.7008    15181.888    35885.047    52361.725   -42701.107      15.2149      13.1765      28.7324    5760.2466 
  137000      136.989    256.17137    10.695418   -582.38046   -571.68505    14321.384    33816.012    48294.687   -39146.546      15.2149      13.1765      28.7324    5760.2466 
  137500      137.489    259.61795    10.839316   -582.50937   -571.67006    15458.959    40047.793    46388.246   -40059.163      15.2149      13.1765      28.7324    5760.2466 
  138000      137.989    257.32649    10.743645   -582.39805    -571.6544    15067.691    35053.783     48515.72    -38366.43      15.2149      13.1765      28.7324    5760.2466 
  138500      138.489    251.67738    10.507789   -582.14633   -571.63854    13106.609    32043.202    47812.797   -40536.173      15.2149      13.1765      28.7324    5760.2466 
  139000      138.989    248.22876    10.363806   -581.98631    -571.6225    12829.616    33761.963    48618.956    -43892.07      15.2149      13.1765      28.7324    5760.2466 
  139500      139.489     254.9865    10.645948   -582.25258   -571.60663    14044.824    39285.188    50533.056   -47683.771      15.2149      13.1765      28.7324    5760.2466 
  140000      139.989    249.40651    10.412978   -582.00378    -571.5908    13901.054    34497.635    47632.148   -40426.621      15.2149      13.1765      28.7324    5760.2466 
  140500      140.489    249.89201    10.433248   -582.00766   -571.57441    13926.895    33642.936    47445.744   -39307.995      15.2149      13.1765      28.7324    5760.2466 
  141000      140.989    268.06585    11.192024   -582.75107   -571.55905    15113.318    33843.242    50371.212   -38874.499      15.2149      13.1765      28.7324    5760.2466 
  141500      141.489    261.11966    10.902014   -582.44546   -571.54345    14503.852    34380.262     47668.58   -38537.285      15.2149      13.1765      28.7324    5760.2466 
  142000      141.989    259.65493     10.84086   -582.36781   -571.52695    13096.638    35700.089    47337.175   -43747.351      15.2149      13.1765      28.7324    5760.2466 
  142500      142.489    245.59951    10.254032   -581.76416   -571.51012    13250.814    33245.902    47961.729    -41455.19      15.2149      13.1765      28.7324    5760.2466 
  143000      142.989    261.87772    10.933664   -582.42831   -571.49465    13025.854    33103.726    46620.843   -40647.007      15.2149      13.1765      28.7324    5760.2466 
  143500      143.489    253.51714    10.584601   -582.06324   -571.47864    13203.189    35402.451    49135.294   -44928.177      15.2149      13.1765      28.7324    5760.2466 
  144000      143.989    244.06302    10.189882   -581.65133   -571.46145    14935.758    35718.176    44304.313   -35215.214      15.2149      13.1765      28.7324    5760.2466 
  144500      144.489    249.13715    10.401732   -581.84845   -571.44672    13734.234    36839.017    47744.742   -43381.058      15.2149      13.1765      28.7324    5760.2466 
  145000      144.989    255.17593    10.653857   -582.08528   -571.43142    12401.845    33391.096    49045.248   -45230.808      15.2149      13.1765      28.7324    5760.2466 
  145500      145.489    258.51947    10.793454   -582.20856    -571.4151    13119.796    35073.388    44809.313   -40523.313      15.2149      13.1765      28.7324    5760.2466 
  146000      145.989    247.42452    10.330228   -581.72848   -571.39825    14149.685    37386.518    47786.806   -42724.268      15.2149      13.1765      28.7324    5760.2466 
  146500      146.489    245.65101    10.256182   -581.63933   -571.38315    15334.093    36979.189    53092.448   -44069.359      15.2149      13.1765      28.7324    5760.2466 
  147000      146.989    258.34005    10.785963   -582.15236    -571.3664    13732.467     32777.51    47448.127   -39028.236      15.2149      13.1765      28.7324    5760.2466 
  147500      147.489    267.87728    11.184152   -582.53457   -571.35041    13389.745    35293.456    46133.643   -41257.864      15.2149      13.1765      28.7324    5760.2466 
  148000      147.989    268.27968    11.200952   -582.53599   -571.33503    13429.793    34000.212     48295.01   -42005.844      15.2149      13.1765      28.7324    5760.2466 
  148500      148.489    249.44601    10.414627   -581.73235   -571.31772    13475.276    33164.367    49757.879   -42496.417      15.2149      13.1765      28.7324    5760.2466 
  149000      148.989    251.23317    10.489243   -581.79029   -571.30105    14098.804    35796.526    50392.326   -43892.439      15.2149      13.1765      28.7324    5760.2466 
  149500      149.489    272.03789    11.357861   -582.64505   -571.28719    13987.446    37956.452    47001.484   -42995.598      15.2149      13.1765      28.7324    5760.2466 
  150000      149.989    247.24646    10.322794   -581.59214   -571.26935    15041.242    37390.967    48028.112   -40295.354      15.2149      13.1765      28.7324    5760.2466 
  150500      150.489     249.0275    10.397154   -581.65043   -571.25328    14019.951    33257.455    48585.957   -39783.559      15.2149      13.1765      28.7324    5760.2466 
  151000      150.989    248.71656    10.384172   -581.62163   -571.23746    13418.068    33768.473    47839.558   -41353.825      15.2149      13.1765      28.7324    5760.2466 
  151500      151.489    260.69428    10.884254   -582.10561   -571.22135    12912.456    33624.554    51507.087   -46394.273      15.2149      13.1765      28.7324    5760.2466 
  152000      151.989     265.4249    11.081762   -582.28747   -571.20571    13603.114    37345.448    47150.857   -43686.964      15.2149      13.1765      28.7324    5760.2466 
  152500      152.489    250.99792    10.479421   -581.66757   -571.18815    13980.345    33235.815    48743.131   -40037.912      15.2149      13.1765      28.7324    5760.2466 
  153000      152.989    244.95424    10.227091   -581.39918   -571.17209    15573.474    37466.227    50735.874   -41481.681      15.2149      13.1765      28.7324    5760.2466 
  153500      153.489    258.51372    10.793213   -581.95015   -571.15694    13764.283    32962.986    51043.541   -42713.677      15.2149      13.1765      28.7324    5760.2466 
  154000      153.989    264.26421    11.033302    -582.1742    -571.1409    13415.163    36881.199    52102.793   -48738.501      15.2149      13.1765      28.7324    5760.2466 
  154500      154.489     253.3636     10.57819   -581.70142   -571.12323    14110.115    37690.079    46063.361   -41423.094      15.2149      13.1765      28.7324    5760.2466 
  155000      154.989    242.96572    10.144068   -581.25057    -571.1065    14349.045    34049.157    49977.636   -40979.658      15.2149      13.1765      28.7324    5760.2466 
  155500      155.489    265.29325    11.076266   -582.16878   -571.09251    14600.557    35521.984     50851.35   -42571.663      15.2149      13.1765      28.7324    5760.2466 
  156000      155.989    248.57055    10.378076   -581.45252   -571.07444     15917.29    40066.049    51179.814   -43493.992      15.2149      13.1765      28.7324    5760.2466 
  156500      156.489    257.52707     10.75202   -581.81063   -571.05861    14801.189    34044.052    48190.313   -37830.798      15.2149      13.1765      28.7324    5760.2466 
  157000      156.989    259.21618    10.822542   -581.86489   -571.04235     15536.97    34607.437    53650.565   -41647.091      15.2149      13.1765      28.7324    5760.2466 
  157500      157.489    262.07506    10.941903   -581.96693   -571.02503    14452.971    32944.606    51337.256    -40922.95      15.2149      13.1765      28.7324    5760.2466 
  158000      157.989    284.17068    11.864418    -582.8733   -571.00889      13352.8     31523.97     44783.41   -36248.979      15.2149      13.1765      28.7324    5760.2466 
  158500      158.489    251.28307    10.491326    -581.4833   -570.99198    14609.186    32622.192    49174.438   -37969.073      15.2149      13.1765      28.7324    5760.2466 
  159000      158.989    259.26467    10.824566   -581.80096   -570.97639    14129.366    34672.455    50504.196   -42788.554      15.2149      13.1765      28.7324    5760.2466 
  159500      159.489    267.07093    11.150486   -582.11052   -570.96003     12477.29    34290.566    49679.474    -46538.17      15.2149      13.1765      28.7324    5760.2466 
  160000      159.989     268.9226    11.227795   -582.17104   -570.94324      13565.8    36301.234    48352.432   -43956.266      15.2149      13.1765      28.7324    5760.2466 
  160500      160.489    249.19284    10.404057   -581.33102   -570.92696     15670.83    34043.578    53321.649   -40352.737      15.2149      13.1765      28.7324    5760.2466 
  161000      160.989    255.82982    10.681158   -581.59089   -570.90974    14345.739    34988.947    49713.143   -41664.872      15.2149      13.1765      28.7324    5760.2466 
  161500      161.489    249.60691    10.421345   -581.31482   -570.89347    13349.847    34971.782    45762.134   -40684.374      15.2149      13.1765      28.7324    5760.2466 
  162000      161.989    262.56794    10.962481   -581.83981   -570.87732    13675.118    35625.334    43126.361    -37726.34      15.2149      13.1765      28.7324    5760.2466 
  162500      162.489    250.73581    10.468477   -581.32789   -570.85942    14245.379    34106.037    51435.855   -42805.754      15.2149      13.1765      28.7324    5760.2466 
  163000      162.989    275.60266    11.506694   -582.35152   -570.84482    13993.253    35098.336    50792.165   -43910.741      15.2149      13.1765      28.7324    5760.2466 
  163500      163.489    245.54143    10.251607   -581.07795   -570.82634    12714.788    35223.859    49763.568   -46843.064      15.2149      13.1765      28.7324    5760.2466 
  164000      163.989     253.6914    10.591876    -581.4033   -570.81142    13817.929      35676.1    49654.408    -43876.72      15.2149      13.1765      28.7324    5760.2466 
  164500      164.489    259.06541    10.816247   -581.61126   -570.79501    12804.395    37237.589    50691.535   -49515.939      15.2149      13.1765      28.7324    5760.2466 
  165000      164.989    261.79652    10.930273   -581.70816   -570.77789    13413.609    37261.146    49125.231   -46145.551      15.2149      13.1765      28.7324    5760.2466 
  165500      165.489    254.30996    10.617702   -581.37852   -570.76082    12609.671    37997.652    47285.154   -47453.794      15.2149      13.1765      28.7324    5760.2466 
  166000      165.989    260.32171    10.868699   -581.61369   -570.74499    14194.121    35446.621    47851.004   -40715.263      15.2149      13.1765      28.7324    5760.2466 
  166500      166.489    269.15464    11.237482   -581.96507   -570.72759    14058.938    33050.243    51507.659   -42381.088      15.2149      13.1765      28.7324    5760.2466 
  167000      166.989     261.3009    10.909581   -581.62029   -570.71071    13104.631    33140.037    49808.578   -43634.722      15.2149      13.1765      28.7324    5760.2466 
  167500      167.489    257.90778    10.767915    -581.4618   -570.69389    13963.497    36865.861    50166.969   -45142.338      15.2149      13.1765      28.7324    5760.2466 
  168000      167.989    268.14857    11.195478   -581.87257    -570.6771    13012.729    32826.362    51406.052   -45194.227      15.2149      13.1765      28.7324    5760.2466 
  168500      168.489    262.65025    10.965918   -581.62662    -570.6607    14030.302    33845.897     47349.86   -39104.853      15.2149      13.1765      28.7324    5760.2466 
  169000      168.989    260.35732    10.870186   -581.51506   -570.64487    12494.174    34253.461    48769.063   -45540.001      15.2149      13.1765      28.7324    5760.2466 
  169500      169.489    260.21786    10.864363   -581.49172   -570.62736    13662.978    34116.792    50134.867   -43262.726      15.2149      13.1765      28.7324    5760.2466 
  170000      169.989    258.88175    10.808579    -581.4198   -570.61122    14059.914    35722.108    49046.641   -42589.006      15.2149      13.1765      28.7324    5760.2466 
  170500      170.489    252.42844    10.539147   -581.13292   -570.59377    13971.753    36591.812    47037.318   -41713.871      15.2149      13.1765      28.7324    5760.2466 
  171000      170.989    262.66039    10.966341   -581.54447   -570.57813    14352.412    35140.046    47813.592   -39896.402      15.2149      13.1765      28.7324    5760.2466 
  171500      171.489    259.29165    10.825693   -581.38726   -570.56157    13360.785    34543.731    52131.054   -46592.431      15.2149      13.1765      28.7324    5760.2466 
  172000      171.989    252.15332     10.52766   -581.07208   -570.54442    14900.072    36136.755    46916.303   -38352.841      15.2149      13.1765      28.7324    5760.2466 
  172500      172.489    263.26439    10.991558   -581.51992   -570.52836    14099.012    32144.716    51035.461    -40883.14      15.2149      13.1765      28.7324    5760.2466 
  173000      172.989     248.4151    10.371585   -580.88185   -570.51027     13650.72    32506.107    49541.693    -41095.64      15.2149      13.1765      28.7324    5760.2466 
  173500      173.489    261.63092    10.923359   -581.41702   -570.49367    13949.096    35007.108    52315.093   -45474.913      15.2149      13.1765      28.7324    5760.2466 
  174000      173.989    270.95688    11.312728    -581.7902   -570.47747    13152.418    39138.135    47332.212   -47013.092      15.2149      13.1765      28.7324    5760.2466 
  174500      174.489    266.59618    11.130664   -581.59139   -570.46072    14630.742    37373.271    48133.709   -41614.753      15.2149      13.1765      28.7324    5760.2466 
  175000      174.989    250.33298    10.451659   -580.89583   -570.44417    13065.194    34703.398    48618.073    -44125.89      15.2149      13.1765      28.7324    5760.2466 
  175500      175.489    255.11851     10.65146    -581.0783   -570.42684    15256.152    35410.937    49674.499    -39316.98      15.2149      13.1765      28.7324    5760.2466 
  176000      175.989    263.44594    10.999138   -581.40977   -570.41064    13157.689    33340.736    49037.414   -42905.083      15.2149      13.1765      28.7324    5760.2466 
  176500      176.489      258.563    10.795271   -581.18803   -570.39276    13814.034    33764.257    48266.367   -40588.522      15.2149      13.1765      28.7324    5760.2466 
  177000      176.989    280.47472    11.710108   -582.08655   -570.37644    13959.676    37338.246    49457.216   -44916.433      15.2149      13.1765      28.7324    5760.2466 
  177500      177.489    267.53621    11.169911   -581.52865   -570.35874    14284.494    33820.337    51754.957   -42721.812      15.2149      13.1765      28.7324    5760.2466 
  178000      177.989    273.77395    11.430344   -581.77272   -570.34237    14415.481    35364.277    47570.987   -39688.821      15.2149      13.1765      28.7324    5760.2466 
  178500      178.489    262.55321    10.961866   -581.28667    -570.3248    13834.711    36230.201    52452.086   -47178.154      15.2149      13.1765      28.7324    5760.2466 
  179000      178.989    272.64511    11.383213   -581.69027   -570.30706    15775.689    35968.635     49595.72   -38237.289      15.2149      13.1765      28.7324    5760.2466 
  179500      179.489    255.98886    10.687798   -580.97673   -570.28893    13282.227    36638.717     50382.78   -47174.816      15.2149      13.1765      28.7324    5760.2466 
  180000      179.989     263.3046    10.993237   -581.26509   -570.27186    15850.358     34863.68    52280.528   -39593.134      15.2149      13.1765      28.7324    5760.2466 
  180500      180.489    282.45199    11.792661   -582.04836    -570.2557    13858.188    36312.124    49555.806   -44293.366      15.2149      13.1765      28.7324    5760.2466 
  181000      180.989    272.58546    11.380723    -581.6187   -570.23798    14578.568    33130.276    52906.964   -42301.535      15.2149      13.1765      28.7324    5760.2466 
  181500      181.489    272.43393    11.374396    -581.5953   -570.22091    12632.925     32224.13    53011.308   -47336.665      15.2149      13.1765      28.7324    5760.2466 
  182000      181.989    278.74429     11.63786   -581.84236    -570.2045     13587.36    33520.308     49186.13   -41944.358      15.2149      13.1765      28.7324    5760.2466 
  182500      182.489    265.71273    11.093779   -581.28014   -570.18636    13829.529    33866.161     50887.35   -43264.924      15.2149      13.1765      28.7324    5760.2466 
  183000      182.989    259.15469    10.819974   -580.98932   -570.16935    14552.741    37062.615    48999.493   -42403.885      15.2149      13.1765      28.7324    5760.2466 
  183500      183.489    274.69638    11.468856    -581.6208   -570.15194    13732.194    33070.033    49144.438   -41017.888      15.2149      13.1765      28.7324    5760.2466 
  184000      183.989    260.19587    10.863445   -580.99702   -570.13358    13342.258    34432.031    50963.822   -45369.078      15.2149      13.1765      28.7324    5760.2466 
  184500      184.489    278.30198    11.619393   -581.73651   -570.11711     14136.43    36763.372    48568.023   -42922.105      15.2149      13.1765      28.7324    5760.2466 
  185000      184.989    259.71581    10.843402   -580.94195   -570.09855    13890.645    32230.787    49383.254   -39942.106      15.2149      13.1765      28.7324    5760.2466 
  185500      185.489    278.97526    11.647504   -581.73057   -570.08306    14699.685    33728.274     51274.73   -40903.948      15.2149      13.1765      28.7324    5760.2466 
  186000      185.989     278.9725    11.647388   -581.71277   -570.06538    13526.763    34964.614    48769.205   -43153.529      15.2149      13.1765      28.7324    5760.2466 
  186500      186.489    263.71045    11.010182   -581.05852   -570.04834    14430.923    36250.831     52053.04   -45011.103      15.2149      13.1765      28.7324    5760.2466 
  187000      186.989    274.37875    11.455595   -581.48595   -570.03036    13446.464    32004.659    49118.565   -40783.833      15.2149      13.1765      28.7324    5760.2466 
  187500      187.489    280.40219    11.707079   -581.72053   -570.01345    14659.763    35509.669    56403.455   -47933.835      15.2149      13.1765      28.7324    5760.2466 
  188000      187.989    266.57676    11.129853   -581.12429   -569.99444    14059.117    36687.864    51773.993   -46284.506      15.2149      13.1765      28.7324    5760.2466 
  188500      188.489    253.16255    10.569796   -580.54596   -569.97617    13832.456    35813.024    51483.022   -45798.679      15.2149      13.1765      28.7324    5760.2466 
  189000      188.989    272.92551     11.39492   -581.35583   -569.96091    13376.034     37180.68    47943.029   -44995.607      15.2149      13.1765      28.7324    5760.2466 
  189500      189.489    273.65057    11.425192   -581.36849    -569.9433    12953.778    34765.118    47363.133   -43266.916      15.2149      13.1765      28.7324    5760.2466 
  190000      189.989    265.55471    11.087182   -581.01277   -569.92558     13879.27    34695.711    52903.535   -45961.436      15.2149      13.1765      28.7324    5760.2466 
  190500      190.489    276.15516    11.529761     -581.438   -569.90823    12999.403    35937.055    48684.165    -45623.01      15.2149      13.1765      28.7324    5760.2466 
  191000      190.989    278.67927    11.635146   -581.52556   -569.89041    13281.567    34811.238    47887.689   -42854.226      15.2149      13.1765      28.7324    5760.2466 
  191500      191.489    262.50084     10.95968   -580.83298    -569.8733    14501.501     37786.14     46415.41   -40697.047      15.2149      13.1765      28.7324    5760.2466 
  192000      191.989    278.95264    11.646559   -581.50257   -569.85601    14074.403     35236.84    47953.294   -40966.926      15.2149      13.1765      28.7324    5760.2466 
  192500      192.489    285.45648    11.918101   -581.75756   -569.83946    13115.815    35069.675    45525.409    -41247.64      15.2149      13.1765      28.7324    5760.2466 
  193000      192.989    273.56092    11.421449   -581.24184   -569.82039    13022.154    32385.657    50480.781   -43799.977      15.2149      13.1765      28.7324    5760.2466 
  193500      193.489    273.96653    11.438384   -581.24167   -569.80329    13257.283    36786.523     47523.22   -44537.893      15.2149      13.1765      28.7324    5760.2466 
  194000      193.989    275.68918    11.510307   -581.29619   -569.78588    12458.311    36008.646     48278.33   -46912.044      15.2149      13.1765      28.7324    5760.2466 
  194500      194.489    287.76656     12.01455    -581.7839   -569.76935    13679.997    31624.071    51065.554   -41649.633      15.2149      13.1765      28.7324    5760.2466 
  195000      194.989    253.28105    10.574744    -580.3247   -569.74995    13587.899    36450.462    46963.933   -42650.698      15.2149      13.1765      28.7324    5760.2466 
  195500      195.489    260.78192    10.887913   -580.61963   -569.73171    14364.805    37286.528    53656.707   -47848.821      15.2149      13.1765      28.7324    5760.2466 
  196000      195.989    280.16776    11.697292   -581.41398   -569.71669    13418.806    37032.655    45180.593    -41956.83      15.2149      13.1765      28.7324    5760.2466 
  196500      196.489    285.01274    11.899574    -581.5988   -569.69922    13575.342    34726.068    48017.524   -42017.566      15.2149      13.1765      28.7324    5760.2466 
  197000      196.989    266.85157    11.141327   -580.82133      -569.68     14566.98    35156.963    48779.326    -40235.35      15.2149      13.1765      28.7324    5760.2466 
  197500      197.489    293.30043    12.245594   -581.90972   -569.66412    13380.695    35475.774    50051.097   -45384.785      15.2149      13.1765      28.7324    5760.2466 
  198000      197.989    279.49578    11.669236   -581.31465   -569.64542    13597.141    31188.776    50212.862   -40610.215      15.2149      13.1765      28.7324    5760.2466 
  198500      198.489    282.34507    11.788197   -581.41564   -569.62745    14080.699    34051.367    49455.431   -41264.702      15.2149      13.1765      28.7324    5760.2466 
  199000      198.989    282.78017    11.806363   -581.41627   -569.60991    12907.828    31737.953    47209.881    -40224.35      15.2149      13.1765      28.7324    5760.2466 
  199500      199.489    301.37387    12.582669   -582.17544   -569.59277     13888.28    34476.582    49072.631   -41884.372      15.2149      13.1765      28.7324    5760.2466 
  200000      199.989    294.79338    12.307926   -581.88272    -569.5748    15060.695    39017.983    51480.872    -45316.77      15.2149      13.1765      28.7324    5760.2466 
  200500      200.489    288.46254    12.043607   -581.59958   -569.55598     14860.23    34254.436    51036.269   -40710.015      15.2149      13.1765      28.7324    5760.2466 
  201000      200.989     267.3699    11.162968   -580.70172   -569.53875    14410.101    36651.404    54009.279   -47430.379      15.2149      13.1765      28.7324    5760.2466 
  201500      201.489    271.70438    11.343937   -580.86475   -569.52082    14599.037    36970.731    50489.934   -43663.553      15.2149      13.1765      28.7324    5760.2466 
  202000      201.989    282.52483    11.795702   -581.29904   -569.50333    13288.928    35509.547    49463.947   -45106.709      15.2149      13.1765      28.7324    5760.2466 
  202500      202.489    287.60254    12.007701   -581.49344   -569.48573    13090.843    34640.529    48268.871   -43636.871      15.2149      13.1765      28.7324    5760.2466 
  203000      202.989    286.60183    11.965921   -581.43295   -569.46703    14237.828    35692.839    49133.907   -42113.262      15.2149      13.1765      28.7324    5760.2466 
  203500      203.489    270.35851    11.287745   -580.73731   -569.44956    14919.922    36043.126    48768.299   -40051.659      15.2149      13.1765      28.7324    5760.2466 
  204000      203.989    291.64586    12.176514   -581.60832   -569.43181    13822.472    38512.518    50695.269   -47740.372      15.2149      13.1765      28.7324    5760.2466 
  204500      204.489    260.25896    10.866079   -580.27976   -569.41368     14927.77    38146.979    47862.701    -41226.37      15.2149      13.1765      28.7324    5760.2466 
  205000      204.989    290.44427    12.126347   -581.52388   -569.39753    13321.995    34410.507    50490.075   -44934.596      15.2149      13.1765      28.7324    5760.2466 
  205500      205.489    271.51771    11.336143   -580.71359   -569.37744    14899.143    40092.246    48032.744    -43427.56      15.2149      13.1765      28.7324    5760.2466 
  206000      205.989    289.04104     12.06776    -581.4287   -569.36094    14845.839    38064.531    49948.957   -43475.971      15.2149      13.1765      28.7324    5760.2466 
  206500      206.489     280.3464     11.70475   -581.04853   -569.34378    14793.403    35552.782    53554.379   -44726.952      15.2149      13.1765      28.7324    5760.2466 
  207000      206.989    280.35495    11.705107   -581.03007   -569.32497    14555.926    39137.417    52218.648   -47688.287      15.2149      13.1765      28.7324    5760.2466 
  207500      207.489    281.97172    11.772609   -581.08021    -569.3076    13892.922    35151.306    46407.999   -39880.539      15.2149      13.1765      28.7324    5760.2466 
  208000      207.989    279.31948    11.661875   -580.95058   -569.28871    14400.363    35864.193    48378.317   -41041.423      15.2149      13.1765      28.7324    5760.2466 
  208500      208.489    281.20755    11.740704   -581.01204   -569.27133    15296.791    37205.096    50270.456    -41585.18      15.2149      13.1765      28.7324    5760.2466 
  209000      208.989    293.07354    12.236121   -581.49009   -569.25397    14222.063    33254.338    51356.808   -41944.958      15.2149      13.1765      28.7324    5760.2466 
  209500      209.489    292.70461    12.220718   -581.45662    -569.2359     13185.61    38338.959    49026.239   -47808.367      15.2149      13.1765      28.7324    5760.2466 
  210000      209.989    293.02112    12.233933   -581.45225   -569.21832    14260.574    35906.124    47186.308    -40310.71      15.2149      13.1765      28.7324    5760.2466 
  210500      210.489    290.36758    12.123144   -581.32334   -569.20019    13002.966    32313.287    49997.695   -43302.084      15.2149      13.1765      28.7324    5760.2466 
  211000      210.989     282.2128    11.782674   -580.96439   -569.18172    14333.736    35931.627    50949.445   -43879.866      15.2149      13.1765      28.7324    5760.2466 
  211500      211.489    269.89555    11.268416   -580.43264   -569.16422    13525.594    33534.399    50192.444   -43150.061      15.2149      13.1765      28.7324    5760.2466 
  212000      211.989    284.27365    11.868717   -581.01528   -569.14656    13718.926    35591.307    49953.534   -44388.063      15.2149      13.1765      28.7324    5760.2466 
[...]
  948500      948.489    368.78951    15.397341   -577.00223   -561.60489    14072.084    35867.979    53044.105   -46695.831      15.2149      13.1765      28.7324    5760.2466 
  949000      948.989    369.78012      15.4387   -577.04172   -561.60302    17160.308     43719.34    49937.735   -42176.152      15.2149      13.1765      28.7324    5760.2466 
  949500      949.489    351.25595    14.665297   -576.26616   -561.60086    15513.797    35122.542    56053.085   -44634.237      15.2149      13.1765      28.7324    5760.2466 
  950000      949.989    369.10542     15.41053   -577.00938   -561.59885    15929.243    40316.054    53666.668   -46194.992      15.2149      13.1765      28.7324    5760.2466 
  950500      950.489    383.67576    16.018857   -577.61963   -561.60078    16794.115    42486.095    51176.068   -43279.818      15.2149      13.1765      28.7324    5760.2466 
  951000      950.989    386.10473    16.120269   -577.71946   -561.59919    15302.776    36239.799    52146.839    -42478.31      15.2149      13.1765      28.7324    5760.2466 
  951500      951.489    391.00014    16.324657   -577.92174   -561.59709    15880.717    37210.322     52611.95   -42180.122      15.2149      13.1765      28.7324    5760.2466 
  952000      951.989    355.62493    14.847706   -576.44221   -561.59451    16506.562    37722.291     56821.65   -45024.257      15.2149      13.1765      28.7324    5760.2466 
  952500      952.489    350.00735    14.613166   -576.20622   -561.59305    17709.729    38844.637    55514.403   -41229.855      15.2149      13.1765      28.7324    5760.2466 
  953000      952.989    376.88664    15.735404    -577.3289   -561.59349    15388.694    35090.131    49231.957   -38156.007      15.2149      13.1765      28.7324    5760.2466 
  953500      953.489    382.33191     15.96275    -577.5552   -561.59245    16345.251    41900.368    46556.749   -39421.365      15.2149      13.1765      28.7324    5760.2466 
  954000      953.989    369.64789    15.433179    -577.0238   -561.59062    17069.357    41215.184    51188.812   -41195.927      15.2149      13.1765      28.7324    5760.2466 
  954500      954.489    354.72664    14.810201     -576.399    -561.5888    14488.994    37697.359    49429.711   -43660.086      15.2149      13.1765      28.7324    5760.2466 
  955000      954.989    385.09232       16.078   -577.66814   -561.59014    15746.401    35375.613    52120.278   -40256.686      15.2149      13.1765      28.7324    5760.2466 
  955500      955.489     349.4733    14.590869   -576.17659   -561.58572     17140.02    45968.232    50193.669   -44741.841      15.2149      13.1765      28.7324    5760.2466 
  956000      955.989    392.34056    16.380621   -577.96713   -561.58651    15225.466    39370.677    52969.536   -46663.815      15.2149      13.1765      28.7324    5760.2466 
  956500      956.489    376.82209    15.732709   -577.31697   -561.58426    16300.645    42821.789     49557.71   -43477.563      15.2149      13.1765      28.7324    5760.2466 
  957000      956.989    399.92154    16.697135   -578.27965   -561.58251    13752.858    37605.967    46998.385   -43345.778      15.2149      13.1765      28.7324    5760.2466 
  957500      957.489    370.11617     15.45273   -577.03217   -561.57944     15002.28    37752.186     52338.92   -45084.266      15.2149      13.1765      28.7324    5760.2466 
  958000      957.989    381.24195    15.917243   -577.49469   -561.57745    16836.719    38219.933    54396.122   -42105.899      15.2149      13.1765      28.7324    5760.2466 
  958500      958.489    383.44695    16.009304   -577.58353   -561.57423    14188.842    41556.161    48370.209   -47359.845      15.2149      13.1765      28.7324    5760.2466 
  959000      958.989    356.58146    14.887642   -576.46019   -561.57255    16124.529     38324.91    47335.891   -37287.214      15.2149      13.1765      28.7324    5760.2466 
  959500      959.489    368.35988    15.379403   -576.95033   -561.57093    16464.116    45300.673    47904.272   -43812.598      15.2149      13.1765      28.7324    5760.2466 
  960000      959.989     341.7452    14.268213   -575.83494   -561.56672    16413.425    43693.986    48237.414   -42691.127      15.2149      13.1765      28.7324    5760.2466 
  960500      960.489     383.6613    16.018253   -577.58533   -561.56708    15732.817    40302.847    51362.964    -44467.36      15.2149      13.1765      28.7324    5760.2466 
  961000      960.989    359.90316    15.026327    -576.5907   -561.56437    16686.805    38080.201    51417.347   -39437.132      15.2149      13.1765      28.7324    5760.2466 
  961500      961.489    350.55115    14.635871   -576.19672   -561.56085     16045.71    39424.914    52996.927   -44284.711      15.2149      13.1765      28.7324    5760.2466 
  962000      961.989    379.18765    15.831474   -577.39322   -561.56175    16968.945    39706.572    54512.058   -43311.796      15.2149      13.1765      28.7324    5760.2466 
  962500      962.489     371.5542     15.51277   -577.07055   -561.55778    16765.359    40913.461    54851.652   -45469.034      15.2149      13.1765      28.7324    5760.2466 
  963000      962.989      391.248    16.335006   -577.89251   -561.55751    15695.504    37602.112    52677.404   -43193.003      15.2149      13.1765      28.7324    5760.2466 
  963500      963.489    370.88697    15.484912   -577.03851    -561.5536    17391.991    39038.432    57634.004   -44496.464      15.2149      13.1765      28.7324    5760.2466 
  964000      963.989    386.74025    16.146802   -577.69762   -561.55082    16250.087      42177.8    46418.678   -39846.219      15.2149      13.1765      28.7324    5760.2466 
  964500      964.489    369.30281    15.418772   -576.96696   -561.54819    16670.654    38781.035    51084.704   -39853.778      15.2149      13.1765      28.7324    5760.2466 
  965000      964.989     379.3085    15.836519   -577.38235   -561.54583    17430.748    38361.039    53357.434   -39426.228      15.2149      13.1765      28.7324    5760.2466 
  965500      965.489    401.85395    16.777815   -578.32121    -561.5434    18246.224    38163.224    49823.304   -33247.857      15.2149      13.1765      28.7324    5760.2466 
  966000      965.989    370.50475    15.468954   -577.00873   -561.53978    17168.607     42700.48    49707.422   -40902.082      15.2149      13.1765      28.7324    5760.2466 
  966500      966.489    374.92063    15.653321   -577.19169   -561.53837    16827.804    40758.202    50873.173   -41147.963      15.2149      13.1765      28.7324    5760.2466 
  967000      966.989    355.96888    14.862066   -576.39738   -561.53531    15702.868    41718.885    48055.505   -42665.784      15.2149      13.1765      28.7324    5760.2466 
  967500      967.489    370.02678    15.448998   -576.98303   -561.53404    15315.256    35833.634    51791.114   -41678.981      15.2149      13.1765      28.7324    5760.2466 
  968000      967.989    374.63278    15.641303   -577.17182   -561.53052     17972.97    42339.881    52484.147   -40905.118      15.2149      13.1765      28.7324    5760.2466 
  968500      968.489    377.03109    15.741435   -577.26975   -561.52832     16640.72    42141.645    49310.831   -41530.316      15.2149      13.1765      28.7324    5760.2466 
  969000      968.989    370.94444    15.487311   -577.01318   -561.52586    15754.064    34723.785    53235.789   -40697.382      15.2149      13.1765      28.7324    5760.2466 
  969500      969.489    377.43916    15.758472   -577.28157    -561.5231    16107.221    37504.096    47960.354   -37142.788      15.2149      13.1765      28.7324    5760.2466 
  970000      969.989     388.3319    16.213256   -577.73261   -561.51935    15960.522    44700.404    53604.858   -50423.698      15.2149      13.1765      28.7324    5760.2466 
  970500      970.489    376.24811    15.708745   -577.22544    -561.5167    15521.149    44715.154    49927.078   -48078.786      15.2149      13.1765      28.7324    5760.2466 
  971000      970.989    394.56821    16.473628   -577.98888   -561.51526    17556.603    45081.504    53892.421   -46304.117      15.2149      13.1765      28.7324    5760.2466 
  971500      971.489    389.65637    16.268553   -577.78219   -561.51364    16916.941    40190.181     55077.02    -44516.38      15.2149      13.1765      28.7324    5760.2466 
  972000      971.989    409.51645    17.097732   -578.60696   -561.50923    16838.627    33957.632    52963.917   -36405.667      15.2149      13.1765      28.7324    5760.2466 
  972500      972.489    381.48626    15.927443    -577.4323   -561.50486     17036.15    40720.748    51291.344   -40903.642      15.2149      13.1765      28.7324    5760.2466 
  973000      972.989    372.79352    15.564512   -577.06639   -561.50188    16158.511    41370.756    55253.236    -48148.46      15.2149      13.1765      28.7324    5760.2466 
  973500      973.489     372.9851    15.572511   -577.07117   -561.49866    16345.012    40415.636    49507.246   -40887.845      15.2149      13.1765      28.7324    5760.2466 
  974000      973.989    375.72283    15.686814   -577.18321    -561.4964    16804.776    40473.583    54199.567   -44258.823      15.2149      13.1765      28.7324    5760.2466 
  974500      974.489    366.84341    15.316089   -576.80755   -561.49146    15151.071    41242.918    49055.761   -44845.466      15.2149      13.1765      28.7324    5760.2466 
  975000      974.989    372.83066    15.566063   -577.05685   -561.49079    16148.314     37442.91    55031.399   -44029.367      15.2149      13.1765      28.7324    5760.2466 
  975500      975.489    360.84155    15.065505   -576.55225   -561.48674    15469.189    36161.949        52141   -41895.382      15.2149      13.1765      28.7324    5760.2466 
  976000      975.989    396.44507    16.551989   -578.03496   -561.48297     16476.19    36290.465    52261.068   -39122.964      15.2149      13.1765      28.7324    5760.2466 
  976500      976.489    374.09514    15.618856   -577.09756    -561.4787    15821.417    42661.089    48285.548   -43482.385      15.2149      13.1765      28.7324    5760.2466 
  977000      976.989    365.52342    15.260978   -576.73542   -561.47445    16103.905    37459.417    49044.218   -38191.922      15.2149      13.1765      28.7324    5760.2466 
  977500      977.489    378.38265    15.797864   -577.27028   -561.47242    16017.086    41595.634    47372.515   -40916.892      15.2149      13.1765      28.7324    5760.2466 
  978000      977.989    373.10199    15.577391   -577.04709    -561.4697    16803.024    36474.096    50510.266    -36575.29      15.2149      13.1765      28.7324    5760.2466 
  978500      978.489    372.32865    15.545103   -577.01034   -561.46524    16355.934    40994.087    46820.936   -38747.222      15.2149      13.1765      28.7324    5760.2466 
  979000      978.989    374.33986    15.629074   -577.09078   -561.46171    16197.763    43041.815     46511.17   -40959.695      15.2149      13.1765      28.7324    5760.2466 
  979500      979.489    367.63438    15.349113   -576.80676   -561.45765    16605.182    37246.406    53379.486   -40810.347      15.2149      13.1765      28.7324    5760.2466 
  980000      979.989    354.95783    14.819854   -576.27444   -561.45459    16278.974    37606.095    49881.427   -38650.599      15.2149      13.1765      28.7324    5760.2466 
  980500      980.489    379.69749     15.85276   -577.30321   -561.45045    17183.986    34896.616    53254.535   -36599.192      15.2149      13.1765      28.7324    5760.2466 
  981000      980.989    370.96188    15.488039   -576.93491   -561.44687    14594.452    38546.544    50251.894   -45015.082      15.2149      13.1765      28.7324    5760.2466 
  981500      981.489     368.5778    15.388501   -576.83009   -561.44159    15272.877    38779.437    47009.216   -39970.024      15.2149      13.1765      28.7324    5760.2466 
  982000      981.989    356.00722    14.863667   -576.30092   -561.43726    16064.994     43261.29     47666.07   -42732.378      15.2149      13.1765      28.7324    5760.2466 
  982500      982.489    387.61888    16.183486   -577.61844   -561.43496    13558.703    39553.007    50551.095   -49427.993      15.2149      13.1765      28.7324    5760.2466 
  983000      982.989    372.84358    15.566602   -576.99823   -561.43162    15720.165    39055.917    50846.148   -42741.571      15.2149      13.1765      28.7324    5760.2466 
  983500      983.489    385.79661    16.107405   -577.53515   -561.42774    15438.197    40502.284    52138.082   -46325.775      15.2149      13.1765      28.7324    5760.2466 
  984000      983.989    381.65681    15.934564    -577.3588   -561.42423    16178.128    38796.733    52732.784   -42995.133      15.2149      13.1765      28.7324    5760.2466 
  984500      984.489    366.50108    15.301796   -576.72148   -561.41968    15809.656    38491.993    51498.906    -42561.93      15.2149      13.1765      28.7324    5760.2466 
  985000      984.989    364.03555    15.198858   -576.61382   -561.41496     15404.85    39455.864    51341.792   -44583.107      15.2149      13.1765      28.7324    5760.2466 
  985500      985.489    366.72369     15.31109   -576.72341   -561.41232    16071.792    41133.979    52604.457   -45523.059      15.2149      13.1765      28.7324    5760.2466 
  986000      985.989    370.81053     15.48172   -576.89073   -561.40901    16375.226    37644.223     51387.73   -39906.274      15.2149      13.1765      28.7324    5760.2466 
  986500      986.489    369.88828    15.443216   -576.84763   -561.40442    16621.319    38405.775    51809.351   -40351.169      15.2149      13.1765      28.7324    5760.2466 
  987000      986.989    370.21681    15.456932   -576.85732   -561.40039    15254.912     42308.85    53497.019   -50041.133      15.2149      13.1765      28.7324    5760.2466 
  987500      987.489    381.49884    15.927968   -577.32445   -561.39648    15676.937     40094.24    52389.122   -45452.551      15.2149      13.1765      28.7324    5760.2466 
  988000      987.989    376.57528    15.722405    -577.1149   -561.39249    14197.932    40725.631    51170.428   -49302.261      15.2149      13.1765      28.7324    5760.2466 
  988500      988.489    370.06497    15.450592   -576.83751   -561.38692    16556.594    38950.205    50896.135    -40176.56      15.2149      13.1765      28.7324    5760.2466 
  989000      988.989    392.74381    16.397457   -577.78215   -561.38469    15977.131    39521.148    53639.778   -45229.532      15.2149      13.1765      28.7324    5760.2466 
  989500      989.489    370.85421    15.483544   -576.86347   -561.37993    14145.822    38426.248    51459.183   -47447.966      15.2149      13.1765      28.7324    5760.2466 
  990000      989.989    355.69343    14.850566   -576.22521   -561.37464    15278.309    38683.868    47524.177   -40373.118      15.2149      13.1765      28.7324    5760.2466 
  990500      990.489    380.38397    15.881421   -577.25369   -561.37227    15382.907    42500.251    49619.267   -45970.798      15.2149      13.1765      28.7324    5760.2466 
  991000      990.989    368.99994    15.406126   -576.77341   -561.36728    16222.533    36723.434    51383.751   -39439.585      15.2149      13.1765      28.7324    5760.2466 
  991500      991.489    379.80644    15.857309   -577.22019   -561.36288    15952.832    36759.656    53242.985   -42144.144      15.2149      13.1765      28.7324    5760.2466 
  992000      991.989     360.3156    15.043546   -576.40208   -561.35853    16397.664    37810.035    51220.456     -39837.5      15.2149      13.1765      28.7324    5760.2466 
  992500      992.489    372.51837    15.553024   -576.90919   -561.35617    16056.534    36236.619    50440.555   -38507.573      15.2149      13.1765      28.7324    5760.2466 
  993000      992.989     373.2238    15.582477   -576.93328    -561.3508    15595.356    38445.632    49395.061   -41054.625      15.2149      13.1765      28.7324    5760.2466 
  993500      993.489    359.58529    15.013055   -576.35817   -561.34512    15293.334    40093.644    52205.261   -46418.903      15.2149      13.1765      28.7324    5760.2466 
  994000      993.989    364.21108    15.206186   -576.54824   -561.34206    14531.822    42978.308    55817.055   -55199.898      15.2149      13.1765      28.7324    5760.2466 
  994500      994.489    377.31879    15.753447   -577.09042   -561.33697    15329.828    37104.498    45911.517   -37026.532      15.2149      13.1765      28.7324    5760.2466 
  995000      994.989    377.38256    15.756109   -577.08935   -561.33324    14040.333    39917.643     52196.42   -49993.064      15.2149      13.1765      28.7324    5760.2466 
  995500      995.489    365.44943    15.257889   -576.58586   -561.32797     15330.76    41086.587    49032.529   -44126.837      15.2149      13.1765      28.7324    5760.2466 
  996000      995.989    390.56257    16.306388   -577.62936   -561.32297     17670.53    36050.477    52374.299   -35413.185      15.2149      13.1765      28.7324    5760.2466 
  996500      996.489    354.44848    14.798588   -576.11606   -561.31747    17736.806     36880.97    51970.442   -35640.994      15.2149      13.1765      28.7324    5760.2466 
  997000      996.989    361.62108    15.098052   -576.41051   -561.31246    15380.739    40099.721    48363.661   -42321.164      15.2149      13.1765      28.7324    5760.2466 
  997500      997.489    380.38102    15.881298   -577.19084   -561.30954    15497.055    40688.817    46163.238    -40360.89      15.2149      13.1765      28.7324    5760.2466 
  998000      997.989    400.56837    16.724141   -578.02831   -561.30417    14894.076    40486.076    45922.886   -41726.736      15.2149      13.1765      28.7324    5760.2466 
  998500      998.489     357.7936     14.93825   -576.23692   -561.29867    16826.187    40380.837    50371.848   -40274.124      15.2149      13.1765      28.7324    5760.2466 
  999000      998.989    387.59716    16.182579   -577.47703   -561.29445    15445.946    36526.021    49773.386   -39961.568      15.2149      13.1765      28.7324    5760.2466 
  999500      999.489    380.01433    15.865988   -577.15529    -561.2893    16443.308    41915.574    46534.317   -39119.966      15.2149      13.1765      28.7324    5760.2466 
 1000000      999.989    370.60099    15.472972   -576.75684   -561.28387    13393.436    40597.898    45622.104   -46039.695      15.2149      13.1765      28.7324    5760.2466 
 1000011         1000    362.42352    15.131554   -576.41474   -561.28318    13848.359    40180.596    43170.371   -41805.891      15.2149      13.1765      28.7324    5760.2466 
Loop time of 914.069 on 28 procs for 1000000 steps with 324 atoms

Performance: 94.522 ns/day, 0.254 hours/ns, 1094.009 timesteps/s
87.7% CPU use with 28 MPI tasks x no OpenMP threads

MPI task timing breakdown:
Section |  min time  |  avg time  |  max time  |%varavg| %total
---------------------------------------------------------------
Pair    | 737.26     | 790.07     | 834.04     | 105.3 | 86.43
Neigh   | 0.00010319 | 0.0001464  | 0.000196   |   0.2 |  0.00
Comm    | 64.126     | 110.97     | 161.73     | 278.8 | 12.14
Output  | 0.1004     | 0.10293    | 0.12615    |   1.4 |  0.01
Modify  | 5.4982     | 7.778      | 10.832     |  60.9 |  0.85
Other   |            | 5.145      |            |       |  0.56

Nlocal:    11.5714 ave 15 max 6 min
Histogram: 1 3 2 2 1 1 6 3 4 5
Nghost:    663.714 ave 717 max 620 min
Histogram: 8 4 0 0 1 7 0 0 2 6
Neighs:    721.964 ave 956 max 392 min
Histogram: 3 2 1 2 1 3 4 3 4 5
FullNghs:  1443.93 ave 1866 max 757 min
Histogram: 1 3 2 2 1 1 6 1 4 7

Total # of neighbors = 40430
Ave neighs/atom = 124.784
Neighbor list builds = 2
Dangerous builds = 0

write_restart   POSCAR_1x1x1.rest

#unfix    1
#undump   1
Total wall time: 0:15:14
