LAMMPS (7 Dec 2015)
#----------- Initialize Simulation ------------ restart01
#processors	2 2 2
units		metal
boundary	p p p     ## periodic boundary condition  on x y z axis ##
atom_style atomic
#atom_modify map array sort 0 0.0

read_data	POSCAR_1x1x1.lammps
  triclinic box = (0 0 0) to (15.2149 13.1765 28.7324) with tilt (-7.60743 0 0)
  2 by 2 by 7 MPI processor grid
  reading atoms ...
  324 atoms

#----------- Define Potential -----------------
pair_style meam
pair_coeff * * MgAlZn.library.meam Mg Al Zn MgAlZn.parameter.meam Mg Al Zn 	#1=Mg 2=Al 3=Zn	#atoms/mass

#----------- Neighbor List --------------------
neighbor 2.0 bin
neigh_modify delay 10 check yes

#--------------  Run a simulation (minimization) ---------------------------------------
minimize       1.0e-4   1.0e-6   100   1000          #結構優化的條件
WARNING: Resetting reneighboring criteria during minimization (../min.cpp:168)
Neighbor list info ...
  2 neighbor list requests
  update every 1 steps, delay 0 steps, check yes
  max neighbors/atom: 2000, page size: 100000
  master list distance cutoff = 8
  ghost atom cutoff = 8
  binsize = 4 -> bins = 6 4 8
Memory usage per processor = 8.65345 Mbytes
Step Temp E_pair E_mol TotEng Press 
       0            0   -489.60222            0   -489.60222   -1497.0932 
      13            0   -504.13133            0   -504.13133   -7219.9215 
Loop time of 0.0230091 on 28 procs for 13 steps with 324 atoms

82.5% CPU use with 28 MPI tasks x no OpenMP threads

Minimization stats:
  Stopping criterion = energy tolerance
  Energy initial, next-to-last, final = 
         -489.60221929     -504.094884505     -504.131326187
  Force two-norm initial, final = 20.7024 1.57314
  Force max component initial, final = 2.91808 0.676651
  Final line search alpha, max atom move = 0.18254 0.123516
  Iterations, force evaluations = 13 25

MPI task timing breakdown:
Section |  min time  |  avg time  |  max time  |%varavg| %total
---------------------------------------------------------------
Pair    | 0.018378   | 0.019471   | 0.020813   |   0.5 | 84.62
Neigh   | 0          | 0          | 0          |   0.0 |  0.00
Comm    | 0.0013197  | 0.0025815  | 0.003717   |   1.3 | 11.22
Output  | 0          | 0          | 0          |   0.0 |  0.00
Modify  | 0          | 0          | 0          |   0.0 |  0.00
Other   |            | 0.0009564  |            |       |  4.16

Nlocal:    11.5714 ave 15 max 8 min
Histogram: 2 4 4 0 3 7 0 2 1 5
Nghost:    661.143 ave 709 max 625 min
Histogram: 7 3 2 1 6 1 0 0 2 6
Neighs:    720.857 ave 983 max 502 min
Histogram: 3 4 3 2 4 4 2 1 1 4
FullNghs:  1441.71 ave 1885 max 996 min
Histogram: 2 4 3 2 2 7 1 1 1 5

Total # of neighbors = 40368
Ave neighs/atom = 124.593
Neighbor list builds = 0
Dangerous builds = 0
velocity all  create 393.0 4928459 #rot yes dist gaussian

#--------------  Run a simulation (Relaxation)  ----------------------------------------
fix  1  all  nvt   temp  393.0  393.0  100				#damping constant
#fix  2  all  npt   temp  393.0  393.0  50 iso 0.0 0.0 1000.0
#fix  2  all deform 1 x final 0 15.6906 y final 0 13.5884 z final 0 25.2339 xy final -7.8452 units lattice
#fix  3  all  npt   temp  393.0  393.0  50 z 0.0 0.0 1000.0

#variable b equal 1
#fix 2 all efield  0.0  0.0  v_b
#compute pot all pe/atom


#----------- Output --------------------------
thermo	 500
timestep  0.001		#1.0 fs
thermo_style	custom step time temp ke pe etotal press pxx pyy pzz lx ly lz vol

dump 1 all custom 10000 dump.eq id type x y z
dump_modify 1 sort  id

run        1000000	#10000	 ps
Neighbor list info ...
  2 neighbor list requests
  update every 1 steps, delay 10 steps, check yes
  max neighbors/atom: 2000, page size: 100000
  master list distance cutoff = 8
  ghost atom cutoff = 8
  binsize = 4 -> bins = 6 4 8
Memory usage per processor = 7.54392 Mbytes
Step Time Temp KinEng PotEng TotEng Press Pxx Pyy Pzz Lx Ly Lz Volume 
      13            0          393    16.408154   -504.13133   -487.72317   -4177.3714    19446.051    25562.739   -57540.904      15.2149      13.1765      28.7324    5760.2466 
     500        0.487    204.21332    8.5261157   -496.24423   -487.71811   -1546.3947    24704.515    30292.036   -59635.736      15.2149      13.1765      28.7324    5760.2466 
    1000        0.987    212.99842    8.8929028   -496.61099   -487.71809   -2922.7845    22865.587    31146.437   -62780.377      15.2149      13.1765      28.7324    5760.2466 
    1500        1.487    205.73179    8.5895134   -496.30723   -487.71771    -1763.716    23410.566    29768.274   -58469.988      15.2149      13.1765      28.7324    5760.2466 
    2000        1.987    201.97303    8.4325813   -496.14911   -487.71652   -1191.9609    22760.969    32677.493   -59014.345      15.2149      13.1765      28.7324    5760.2466 
    2500        2.487    216.16936    9.0252929   -496.74166   -487.71637   -2703.4203    21188.851    28365.832   -57664.944      15.2149      13.1765      28.7324    5760.2466 
    3000        2.987     210.7198    8.7977681    -496.5127   -487.71493   -2554.9964    21982.981    27688.975   -57336.945      15.2149      13.1765      28.7324    5760.2466 
    3500        3.487    225.13922    9.3997938   -497.11355   -487.71375   -1859.5779    23151.677    28347.896   -57078.307      15.2149      13.1765      28.7324    5760.2466 
    4000        3.987    210.56088     8.791133   -496.50257   -487.71144   -2271.2399    20807.433    34451.818    -62072.97      15.2149      13.1765      28.7324    5760.2466 
    4500        4.487     209.0615    8.7285324    -496.4384   -487.70987   -3052.8478    20789.078    31235.103   -61182.724      15.2149      13.1765      28.7324    5760.2466 
    5000        4.987    212.82098    8.8854946   -496.59341   -487.70791    -1685.406    22637.942    29960.425   -57654.585      15.2149      13.1765      28.7324    5760.2466 
    5500        5.487    196.91126    8.2212473   -495.92685   -487.70561   -3198.5666    22733.171    28148.916   -60477.787      15.2149      13.1765      28.7324    5760.2466 
    6000        5.987    201.57159    8.4158208   -496.11898   -487.70315   -2554.1665    20203.082    29462.038   -57327.619      15.2149      13.1765      28.7324    5760.2466 
    6500        6.487    205.80804    8.5926969   -496.29317   -487.70048    -2960.901    19196.795      29601.8   -57681.298      15.2149      13.1765      28.7324    5760.2466 
    7000        6.987     208.3495    8.6988057   -496.39722   -487.69842   -2274.1551    23990.076    27146.611   -57959.152      15.2149      13.1765      28.7324    5760.2466 
    7500        7.487    201.30574    8.4047215   -496.09986   -487.69514   -1518.4804    23423.008    30840.657   -58819.106      15.2149      13.1765      28.7324    5760.2466 
    8000        7.987    206.57758    8.6248259    -496.3171   -487.69228   -1590.1743    22518.308    28939.737   -56228.568      15.2149      13.1765      28.7324    5760.2466 
    8500        8.487    202.62151    8.4596561     -496.148   -487.68834   -1977.5364    22481.988    29495.594   -57910.191      15.2149      13.1765      28.7324    5760.2466 
    9000        8.987    204.79979    8.5506016   -496.23565   -487.68505   -2317.3812     21847.99    32086.728   -60886.862      15.2149      13.1765      28.7324    5760.2466 
    9500        9.487     212.7369    8.8819838   -496.56324   -487.68126   -1573.9161    25668.828    30901.796   -61292.372      15.2149      13.1765      28.7324    5760.2466 
   10000        9.987    211.00362    8.8096178   -496.48718   -487.67756   -2804.0302    22593.396    29436.325   -60441.812      15.2149      13.1765      28.7324    5760.2466 
   10500       10.487    219.70226    9.1727949   -496.84693   -487.67413   -2081.8152    20927.543    31290.528   -58463.517      15.2149      13.1765      28.7324    5760.2466 
   11000       10.987    210.04026    8.7693964   -496.43805   -487.66866   -1999.5118    23572.955    29975.006   -59546.496      15.2149      13.1765      28.7324    5760.2466 
   11500       11.487    200.00992    8.3506196   -496.01458   -487.66396     -1823.79    21590.101    28759.827   -55821.298      15.2149      13.1765      28.7324    5760.2466 
   12000       11.987    216.38175    9.0341604   -496.69373   -487.65957   -809.17689    23551.807    31219.211   -57198.548      15.2149      13.1765      28.7324    5760.2466 
   12500       12.487    215.86823    9.0127202    -496.6673   -487.65458     -1963.62    20740.969    30532.267   -57164.096      15.2149      13.1765      28.7324    5760.2466 
   13000       12.987    212.40546     8.868146   -496.51757   -487.64943   -3243.4153    21633.768    30680.567   -62044.581      15.2149      13.1765      28.7324    5760.2466 
   13500       13.487    214.46989     8.954338   -496.59764    -487.6433   -3044.1589    19301.357    31241.376   -59675.209      15.2149      13.1765      28.7324    5760.2466 
   14000       13.987    220.87955    9.2219479   -496.86053   -487.63858   -2279.6984    21009.916    30588.254   -58437.265      15.2149      13.1765      28.7324    5760.2466 
   14500       14.487    221.14282    9.2329396   -496.86533   -487.63239   -2067.3348     25553.21    30358.441   -62113.655      15.2149      13.1765      28.7324    5760.2466 
   15000       14.987    206.77417    8.6330341   -496.25935   -487.62632   -1992.6364    22946.147    30518.161   -59442.217      15.2149      13.1765      28.7324    5760.2466 
   15500       15.487    211.61882    8.8353031     -496.455   -487.61969   -1822.1202    21701.916     29435.58   -56603.857      15.2149      13.1765      28.7324    5760.2466 
   16000       15.987    203.99499    8.5170004   -496.13013   -487.61313   -2095.5487    20893.624    30513.294   -57693.564      15.2149      13.1765      28.7324    5760.2466 
   16500       16.487     206.1989    8.6090159   -496.21543   -487.60641   -2444.6439    23106.027    34040.887   -64480.845      15.2149      13.1765      28.7324    5760.2466 
   17000       16.987    216.02832     9.019404   -496.61893   -487.59953   -2677.1816    23810.886    29520.537   -61362.968      15.2149      13.1765      28.7324    5760.2466 
   17500       17.487    205.86202    8.5949507   -496.18734   -487.59239   -2643.2609    22289.038    30267.202   -60486.023      15.2149      13.1765      28.7324    5760.2466 
   18000       17.987    210.31104    8.7807019    -496.3659   -487.58519   -1944.0316    20366.304    29593.836   -55792.236      15.2149      13.1765      28.7324    5760.2466 
   18500       18.487    202.54523    8.4564712   -496.03436   -487.57789   -2399.9165    20311.192     28174.44   -55685.381      15.2149      13.1765      28.7324    5760.2466 
   19000       18.987    207.42843    8.6603501   -496.23032   -487.56997   -2547.0917    23340.181    30910.056   -61891.512      15.2149      13.1765      28.7324    5760.2466 
   19500       19.487    209.15308     8.732356   -496.29461   -487.56226   -1948.3605    20985.747      30658.5   -57489.329      15.2149      13.1765      28.7324    5760.2466 
   20000       19.987    205.53989    8.5815016    -496.1357    -487.5542   -1994.9069    24465.667    29178.089   -59628.477      15.2149      13.1765      28.7324    5760.2466 
   20500       20.487    206.99326    8.6421813   -496.18795   -487.54577   -1490.8491    24360.439    33522.412   -62355.399      15.2149      13.1765      28.7324    5760.2466 
   21000       20.987    207.70393    8.6718522   -496.20971   -487.53785   -2395.4406    21603.561    30497.307   -59287.191      15.2149      13.1765      28.7324    5760.2466 
   21500       21.487    215.48677    8.9967939   -496.52561   -487.52881   -4390.3975    21938.195    27068.872    -62178.26      15.2149      13.1765      28.7324    5760.2466 
   22000       21.987    220.61936    9.2110849   -496.73187   -487.52078   -2506.5844    22080.134    30658.805   -60258.692      15.2149      13.1765      28.7324    5760.2466 
   22500       22.487    216.57005     9.042022    -496.5535   -487.51148   -1602.9309    24001.559    30871.142   -59681.493      15.2149      13.1765      28.7324    5760.2466 
   23000       22.987    215.74268    9.0074784   -496.50961   -487.50214   -2225.3789    21555.003    29843.366   -58074.506      15.2149      13.1765      28.7324    5760.2466 
   23500       23.487    210.40766    8.7847359   -496.27763    -487.4929    -1916.311    21976.368    30823.144   -58548.446      15.2149      13.1765      28.7324    5760.2466 
   24000       23.987    211.18576    8.8172225   -496.30071   -487.48349   -2441.7123    24110.227    28770.938   -60206.303      15.2149      13.1765      28.7324    5760.2466 
   24500       24.487    203.05986    8.4779578   -495.95165    -487.4737    -2849.432    22370.995      32167.4   -63086.691      15.2149      13.1765      28.7324    5760.2466 
   25000       24.987    225.16111    9.4007077   -496.86486   -487.46415   -2854.1938    19177.137     29053.99   -56793.709      15.2149      13.1765      28.7324    5760.2466 
   25500       25.487    216.90895    9.0561713   -496.50959   -487.45342   -826.63341    23593.453    32635.475   -58708.829      15.2149      13.1765      28.7324    5760.2466 
   26000       25.987    223.38856    9.3267019    -496.7704    -487.4437   -1880.4403    24028.775    30850.603   -60520.699      15.2149      13.1765      28.7324    5760.2466 
   26500       26.487    204.46302    8.5365411   -495.96874    -487.4322   -2444.7526    21728.713    30336.227   -59399.198      15.2149      13.1765      28.7324    5760.2466 
   27000       26.987    208.08399    8.6877202   -496.10957   -487.42185   -1293.4951    25553.168    29672.204   -59105.857      15.2149      13.1765      28.7324    5760.2466 
   27500       27.487    210.10967    8.7722943   -496.18387   -487.41158   -3295.6514    22782.243    27986.282    -60655.48      15.2149      13.1765      28.7324    5760.2466 
   28000       27.987    201.69886    8.4211344   -495.82132   -487.40019    -3014.762    22769.542    31247.076   -63060.904      15.2149      13.1765      28.7324    5760.2466 
   28500       28.487    215.33764    8.9905675    -496.3805   -487.38993   -2207.5793    24857.707    29087.872   -60568.317      15.2149      13.1765      28.7324    5760.2466 
   29000       28.987    224.81513    9.3862625   -496.76472   -487.37846   -1726.8783    23035.501    31648.707   -59864.843      15.2149      13.1765      28.7324    5760.2466 
   29500       29.487    223.64921    9.3375842   -496.70571   -487.36812   -1781.2144    24162.868    31229.303   -60735.815      15.2149      13.1765      28.7324    5760.2466 
   30000       29.987    211.07475    8.8125877   -496.16841   -487.35582   -1541.0574    26807.894    32819.735   -64250.801      15.2149      13.1765      28.7324    5760.2466 
   30500       30.487    214.25312    8.9452877   -496.28925   -487.34397    -2401.624    21869.091    33014.781   -62088.744      15.2149      13.1765      28.7324    5760.2466 
   31000       30.987    213.10764    8.8974629   -496.22954   -487.33208   -2256.9799    23398.818    33486.469   -63656.227      15.2149      13.1765      28.7324    5760.2466 
   31500       31.487    223.63718    9.3370819   -496.65808   -487.32099   -2481.5751    22273.517    30991.728   -60709.971      15.2149      13.1765      28.7324    5760.2466 
   32000       31.987    204.78146    8.5498361   -495.85847   -487.30863   -2686.9427    24386.381    28764.898   -61212.107      15.2149      13.1765      28.7324    5760.2466 
   32500       32.487    217.07781    9.0632216   -496.35973   -487.29651   -2476.8459    23014.901    30092.273   -60537.712      15.2149      13.1765      28.7324    5760.2466 
   33000       32.987    217.90105    9.0975925    -496.3819   -487.28431    -1226.092    23021.051    31108.405   -57807.731      15.2149      13.1765      28.7324    5760.2466 
   33500       33.487    214.31008    8.9476659   -496.22103   -487.27337   -3674.9587    18258.914    31470.594   -60754.383      15.2149      13.1765      28.7324    5760.2466 
   34000       33.987    217.45179    9.0788354   -496.33961   -487.26077   -2475.0415    20603.097     27769.95   -55798.172      15.2149      13.1765      28.7324    5760.2466 
   34500       34.487    218.86825    9.1379742   -496.38644   -487.24847   -3041.7458    22131.598    30452.924   -61709.759      15.2149      13.1765      28.7324    5760.2466 
   35000       34.987    216.70852    9.0478031   -496.28345   -487.23565     -2574.74    18676.814    34931.637   -61332.671      15.2149      13.1765      28.7324    5760.2466 
   35500       35.487    223.01255    9.3110031   -496.53402   -487.22301   -1646.4365    24258.512    31762.271   -60960.092      15.2149      13.1765      28.7324    5760.2466 
   36000       35.987    222.93814    9.3078961   -496.51889   -487.21099   -1562.8713    23618.788    31893.505   -60200.907      15.2149      13.1765      28.7324    5760.2466 
   36500       36.487    215.30489    8.9892003   -496.18746   -487.19826   -1292.3405     23716.68    32829.317   -60423.019      15.2149      13.1765      28.7324    5760.2466 
   37000       36.987     219.0451    9.1453579   -496.33131   -487.18595   -2171.8443    23913.819    28630.814   -59060.165      15.2149      13.1765      28.7324    5760.2466 
   37500       37.487    229.55123    9.5839995   -496.75702   -487.17302   -1481.5629    21970.701    29494.513   -55909.903      15.2149      13.1765      28.7324    5760.2466 
   38000       37.987     220.8775    9.2218624   -496.38162   -487.15976   -1427.0304    24147.073    32161.934   -60590.098      15.2149      13.1765      28.7324    5760.2466 
   38500       38.487    217.56942    9.0837467   -496.23121   -487.14746    -1933.923    25120.465    30970.796    -61893.03      15.2149      13.1765      28.7324    5760.2466 
   39000       38.987    212.86692    8.8874124   -496.02119   -487.13378   -264.29091    27261.961     31244.75   -59299.585      15.2149      13.1765      28.7324    5760.2466 
   39500       39.487    216.78649    9.0510586   -496.17198   -487.12092   -1845.8971    25883.617    27504.952    -58926.26      15.2149      13.1765      28.7324    5760.2466 
   40000       39.987    215.05266    8.9786695   -496.08723   -487.10856   -1585.7424    24516.036    30850.432   -60123.694      15.2149      13.1765      28.7324    5760.2466 
   40500       40.487    222.64231    9.2955452   -496.39067   -487.09513   -1501.7489    22822.369    31583.488   -58911.104      15.2149      13.1765      28.7324    5760.2466 
   41000       40.987    223.32409    9.3240099   -496.40613   -487.08212   -1439.4312    23734.549    31877.789   -59930.631      15.2149      13.1765      28.7324    5760.2466 
   41500       41.487    220.31669    9.1984482   -496.26867   -487.07022   -231.09276    25980.893    31145.985   -57820.156      15.2149      13.1765      28.7324    5760.2466 
   42000       41.987    227.63004    9.5037877   -496.56032   -487.05653   -1091.4381    24530.229    33010.661   -60815.204      15.2149      13.1765      28.7324    5760.2466 
   42500       42.487    228.29884    9.5317112   -496.57588   -487.04417   -1119.5688    26368.233    28937.481   -58664.421      15.2149      13.1765      28.7324    5760.2466 
   43000       42.987     225.7875      9.42686     -496.458   -487.03114   -547.18415    24184.917    32774.305   -58600.774      15.2149      13.1765      28.7324    5760.2466 
   43500       43.487    222.38447    9.2847801   -496.30314   -487.01836   -876.63146    23501.715    31111.958   -57243.567      15.2149      13.1765      28.7324    5760.2466 
   44000       43.987    223.71021    9.3401309   -496.34497   -487.00484    329.23947      25631.5    33418.303   -58062.084      15.2149      13.1765      28.7324    5760.2466 
   44500       44.487    223.26874    9.3216993   -496.31404   -486.99234   -1711.4109    24147.768     29810.49   -59092.491      15.2149      13.1765      28.7324    5760.2466 
   45000       44.987    222.24731    9.2790533     -496.258   -486.97895   -1306.3727    21028.829    31742.051   -56689.998      15.2149      13.1765      28.7324    5760.2466 
   45500       45.487    223.57952    9.3346744   -496.30198    -486.9673   -2025.6875    23994.539    28037.821   -58109.422      15.2149      13.1765      28.7324    5760.2466 
   46000       45.987    228.29026    9.5313528   -496.48571   -486.95436   -1372.7443    23338.936    30635.158   -58092.326      15.2149      13.1765      28.7324    5760.2466 
   46500       46.487    223.44611    9.3291043   -496.27131    -486.9422   -1118.8983    21980.764    31967.944   -57305.403      15.2149      13.1765      28.7324    5760.2466 
   47000       46.987    230.87852    9.6394154   -496.56855   -486.92913   -916.81238    24204.313     32863.75     -59818.5      15.2149      13.1765      28.7324    5760.2466 
   47500       47.487    222.02026     9.269574   -496.18618    -486.9166   -1681.7518    24816.527      30377.3   -60239.083      15.2149      13.1765      28.7324    5760.2466 
   48000       47.987    220.42803    9.2030964    -496.1074   -486.90431    149.96964    25257.269     29820.48    -54627.84      15.2149      13.1765      28.7324    5760.2466 
   48500       48.487    232.77894    9.7187599    -496.6109   -486.89214   -2103.5341    23808.253    30562.287   -60681.142      15.2149      13.1765      28.7324    5760.2466 
   49000       48.987    222.75484    9.3002433   -496.17979   -486.87954   -2168.9101    23204.379    30624.168   -60335.277      15.2149      13.1765      28.7324    5760.2466 
   49500       49.487    221.28241    9.2387677   -496.10597    -486.8672   -2041.8418    24393.033    29636.248   -60154.806      15.2149      13.1765      28.7324    5760.2466 
   50000       49.987    230.52988    9.6248593   -496.48001   -486.85515   -334.08099    27273.645    30316.841   -58592.728      15.2149      13.1765      28.7324    5760.2466 
   50500       50.487     225.7762     9.426388   -496.26898   -486.84259   -781.83101    22761.438    30611.866   -55718.797      15.2149      13.1765      28.7324    5760.2466 
   51000       50.987    222.74949    9.3000199   -496.13055   -486.83053   -551.83365    25989.761    29131.914   -56777.175      15.2149      13.1765      28.7324    5760.2466 
   51500       51.487    217.51667    9.0815445   -495.89971   -486.81816   -829.18507    27137.696    28286.029    -57911.28      15.2149      13.1765      28.7324    5760.2466 
   52000       51.987    219.28649    9.1554361   -495.96163   -486.80619   -1527.7996     23529.87    32835.604   -60948.873      15.2149      13.1765      28.7324    5760.2466 
   52500       52.487    223.47267    9.3302134   -496.12518   -486.79496   -735.66733    25386.569    33506.091   -61099.662      15.2149      13.1765      28.7324    5760.2466 
   53000       52.987    228.01312    9.5197817   -496.30253   -486.78274   -997.63072    23579.527     34839.65   -61412.069      15.2149      13.1765      28.7324    5760.2466 
   53500       53.487    230.83774    9.6377128   -496.40837   -486.77066   -258.78723    26533.925    33534.164   -60844.451      15.2149      13.1765      28.7324    5760.2466 
   54000       53.987    221.23063    9.2366058   -495.99549   -486.75889   -1021.4624    29001.438    31561.312   -63627.137      15.2149      13.1765      28.7324    5760.2466 
   54500       54.487     220.3267    9.1988661   -495.94635   -486.74748   -911.96293    26876.085    28870.539   -58482.514      15.2149      13.1765      28.7324    5760.2466 
   55000       54.987    231.49215    9.6650348   -496.40066   -486.73562    174.47993     28711.25    31242.955   -59430.766      15.2149      13.1765      28.7324    5760.2466 
   55500       55.487    229.75145    9.5923589   -496.31706   -486.72471   -2347.0906    25649.025     28761.82   -61452.117      15.2149      13.1765      28.7324    5760.2466 
   56000       55.987    235.21488    9.8204627    -496.5333   -486.71284   -1143.2394    25036.507    33698.681   -62164.906      15.2149      13.1765      28.7324    5760.2466 
   56500       56.487    234.83614    9.8046499   -496.50629   -486.70164   -443.44381    25484.229    33009.855   -59824.416      15.2149      13.1765      28.7324    5760.2466 
   57000       56.987    243.16136    10.152236   -496.84301   -486.69077   -1339.6959    24215.914    31688.109    -59923.11      15.2149      13.1765      28.7324    5760.2466 
   57500       57.487    236.91434    9.8914168   -496.57033   -486.67892   -879.51872    25035.364    31755.936   -59429.857      15.2149      13.1765      28.7324    5760.2466 
   58000       57.987    225.22547    9.4033945   -496.07099   -486.66759   -1607.2484    23334.647    31278.108     -59434.5      15.2149      13.1765      28.7324    5760.2466 
   58500       58.487    214.00264    8.9348298   -495.59053    -486.6557    427.79123    27725.207    33742.398   -60184.231      15.2149      13.1765      28.7324    5760.2466 
   59000       58.987    212.46492    8.8706285   -495.51646   -486.64583   -277.20658    25739.488    31593.095   -58164.203      15.2149      13.1765      28.7324    5760.2466 
   59500       59.487     237.1268    9.9002876   -496.53509    -486.6348   -1677.5455    23295.075    30491.231   -58818.943      15.2149      13.1765      28.7324    5760.2466 
   60000       59.987    224.86972    9.3885418   -496.01216   -486.62362   -695.20612    25235.745    30017.891   -57339.254      15.2149      13.1765      28.7324    5760.2466 
   60500       60.487    231.43768    9.6627609   -496.27554   -486.61278   -913.66204    23898.267    32247.739   -58886.992      15.2149      13.1765      28.7324    5760.2466 
   61000       60.987    230.23775    9.6126624   -496.21433   -486.60167   -1119.3744    24774.008    31162.309   -59294.439      15.2149      13.1765      28.7324    5760.2466 
   61500       61.487    219.34475    9.1578685    -495.7484   -486.59054   -1146.8963    26659.428    32244.858   -62344.975      15.2149      13.1765      28.7324    5760.2466 
   62000       61.987    229.99178     9.602393   -496.18304   -486.58065    -1095.796    25898.317    31194.411   -60380.116      15.2149      13.1765      28.7324    5760.2466 
   62500       62.487    227.33988    9.4916736   -496.06086   -486.56919   -223.48031    24487.037    31114.894   -56272.373      15.2149      13.1765      28.7324    5760.2466 
   63000       62.987    239.18172    9.9860825   -496.54576   -486.55968   -600.16419     26758.58    32971.445   -61530.517      15.2149      13.1765      28.7324    5760.2466 
   63500       63.487    228.94362    9.5586312   -496.10626   -486.54763   -612.70771    25145.691    31413.927    -58397.74      15.2149      13.1765      28.7324    5760.2466 
   64000       63.987    239.76829    10.010572   -496.54852   -486.53795   -1469.8708    24172.155    31658.076   -60239.844      15.2149      13.1765      28.7324    5760.2466 
   64500       64.487    226.95106      9.47544    -496.0026   -486.52716   -2146.3707    24384.225    30615.522   -61438.859      15.2149      13.1765      28.7324    5760.2466 
   65000       64.987    218.73917     9.132585   -495.64826   -486.51568   -1142.9937    25517.554    33500.264   -62446.799      15.2149      13.1765      28.7324    5760.2466 
   65500       65.487    229.78919    9.5939347   -496.09929   -486.50535   -858.13262    24040.019    30300.557   -56914.974      15.2149      13.1765      28.7324    5760.2466 
   66000       65.987    220.80675    9.2189085   -495.71334   -486.49443   -1135.6652     22707.99    34644.753   -60759.739      15.2149      13.1765      28.7324    5760.2466 
   66500       66.487    238.50368    9.9577736   -496.44249   -486.48471   -1429.7373    24591.511     29549.71   -58430.433      15.2149      13.1765      28.7324    5760.2466 
   67000       66.987    226.43514    9.4538996   -495.92741   -486.47351   -1262.6832    25729.694    28636.766    -58154.51      15.2149      13.1765      28.7324    5760.2466 
   67500       67.487    234.54451    9.7924743   -496.25629   -486.46382   -1092.0498    28942.198    29525.595   -61743.943      15.2149      13.1765      28.7324    5760.2466 
   68000       67.987    222.98269    9.3097562   -495.76153   -486.45178     -1292.97    25727.375    28918.379   -58524.663      15.2149      13.1765      28.7324    5760.2466 
   68500       68.487     246.5327    10.292993   -496.73559   -486.44259   -997.46416    25246.061    31017.963   -59256.416      15.2149      13.1765      28.7324    5760.2466 
   69000       68.987    229.52108    9.5827407   -496.01365   -486.43091   -705.83421    22178.802    31587.467   -55883.772      15.2149      13.1765      28.7324    5760.2466 
   69500       69.487    238.23225    9.9464409   -496.36734    -486.4209    -1360.797    25270.293    29620.275   -58972.959      15.2149      13.1765      28.7324    5760.2466 
   70000       69.987    229.51722    9.5825798   -495.99251   -486.40993   -423.45433    27300.467    29577.994   -58148.824      15.2149      13.1765      28.7324    5760.2466 
   70500       70.487    232.98562    9.7273888   -496.12706   -486.39967   -607.30629    26606.347    31269.989   -59698.255      15.2149      13.1765      28.7324    5760.2466 
   71000       70.987    227.87051    9.5138277   -495.90205   -486.38822    -1144.344    27270.444    28887.876   -59591.352      15.2149      13.1765      28.7324    5760.2466 
   71500       71.487    236.49039    9.8737168   -496.25159   -486.37787   -774.13367    28047.183    28733.442   -59103.026      15.2149      13.1765      28.7324    5760.2466 
   72000       71.987    229.99066    9.6023462   -495.96857   -486.36622   -562.01266    29564.868    30280.258   -61531.164      15.2149      13.1765      28.7324    5760.2466 
   72500       72.487    226.93144    9.4746208   -495.83083   -486.35621     -106.777    24852.063    33221.131   -58393.525      15.2149      13.1765      28.7324    5760.2466 
   73000       72.987      237.056    9.8973315   -496.24318   -486.34584   -1133.3743    23219.643    32189.165   -58808.931      15.2149      13.1765      28.7324    5760.2466 
   73500       73.487    241.22001    10.071183   -496.40703   -486.33584   -495.42332    26427.149    34698.386   -62611.806      15.2149      13.1765      28.7324    5760.2466 
   74000       73.987    228.69927    9.5484296   -495.87334   -486.32491   -769.73929    26966.217    31282.564   -60557.999      15.2149      13.1765      28.7324    5760.2466 
   74500       74.487    232.50304    9.7072405   -496.02126   -486.31402    -563.0421    26001.664    30710.395   -58401.185      15.2149      13.1765      28.7324    5760.2466 
   75000       74.987    244.97419    10.227924   -496.53128   -486.30335   -64.377696    27770.247    31888.131   -59851.512      15.2149      13.1765      28.7324    5760.2466 
   75500       75.487    238.25825    9.9475268   -496.24057   -486.29305   -1052.3632    26993.224     30338.37   -60488.683      15.2149      13.1765      28.7324    5760.2466 
   76000       75.987    229.27518    9.5724744   -495.85381   -486.28133   -596.41782    25370.741    30639.376    -57799.37      15.2149      13.1765      28.7324    5760.2466 
   76500       76.487    239.04638    9.9804317   -496.25138   -486.27095   -1636.1785    23704.768    30137.141   -58750.445      15.2149      13.1765      28.7324    5760.2466 
   77000       76.987    234.44988    9.7885232   -496.04763   -486.25911    -1186.057    26281.403    32006.815   -61846.389      15.2149      13.1765      28.7324    5760.2466 
   77500       77.487    226.04886    9.4377719   -495.68596   -486.24819   -638.36024    23007.564    33703.428   -58626.073      15.2149      13.1765      28.7324    5760.2466 
   78000       77.987     218.9559    9.1416336   -495.37875   -486.23712   -1042.4652    26924.064    33056.201    -63107.66      15.2149      13.1765      28.7324    5760.2466 
   78500       78.487    220.84215    9.2203865   -495.44659   -486.22621   -872.29738    24492.276    31906.073   -59015.241      15.2149      13.1765      28.7324    5760.2466 
   79000       78.987    249.05692    10.398382   -496.61494   -486.21656   -780.82326    24070.691    30233.176   -56646.337      15.2149      13.1765      28.7324    5760.2466 
   79500       79.487    234.37075    9.7852194   -495.99014   -486.20492   -639.14225    25952.564    30231.501   -58101.491      15.2149      13.1765      28.7324    5760.2466 
   80000       79.987    241.09043    10.065773   -496.25953   -486.19376   -222.50501    23537.438    33812.174   -58017.126      15.2149      13.1765      28.7324    5760.2466 
   80500       80.487    236.21353    9.8621576    -496.0445   -486.18234    -68.44577    23902.204    30138.751   -54246.292      15.2149      13.1765      28.7324    5760.2466 
   81000       80.987     241.8365    10.096922    -496.2686   -486.17167    495.17662    24649.198    32223.232     -55386.9      15.2149      13.1765      28.7324    5760.2466 
   81500       81.487    231.50754    9.6656774   -495.82509   -486.15941    119.38363    27704.209     31102.42   -58448.478      15.2149      13.1765      28.7324    5760.2466 
   82000       81.987    238.72476    9.9670038   -496.11482   -486.14781   -760.89838    26061.532     28870.05   -57214.277      15.2149      13.1765      28.7324    5760.2466 
   82500       82.487    224.96441    9.3924951   -495.52923   -486.13673   -1096.1989    27466.662    26894.211   -57649.469      15.2149      13.1765      28.7324    5760.2466 
   83000       82.987    237.57848    9.9191456   -496.04427   -486.12513   -1842.2803    28075.755    27273.517   -60876.112      15.2149      13.1765      28.7324    5760.2466 
   83500       83.487    224.47257    9.3719602   -495.48554   -486.11358   -2165.1007    21470.434    32433.038   -60398.774      15.2149      13.1765      28.7324    5760.2466 
   84000       83.987    251.36578    10.494779     -496.598   -486.10322   -490.61482    26923.577    31281.101   -59676.522      15.2149      13.1765      28.7324    5760.2466 
   84500       84.487    249.12753     10.40133   -496.49305   -486.09172   -1820.4181    22301.137    31369.115   -59131.506      15.2149      13.1765      28.7324    5760.2466 
   85000       84.987    247.12946    10.317909   -496.39786   -486.07996   -784.88935    25756.175    31841.564   -59952.407      15.2149      13.1765      28.7324    5760.2466 
   85500       85.487    219.31969    9.1568222   -495.22468   -486.06786   -1953.9914    23964.264    30576.485   -60402.723      15.2149      13.1765      28.7324    5760.2466 
   86000       85.987    243.44278    10.163986   -496.22005   -486.05607   -1167.8555    28935.179    28522.892   -60961.637      15.2149      13.1765      28.7324    5760.2466 
   86500       86.487    234.98605     9.810909    -495.8558   -486.04489    -1091.586    22091.555    32620.663   -57986.976      15.2149      13.1765      28.7324    5760.2466 
   87000       86.987    241.33316    10.075907   -496.10888   -486.03297   -1497.7448      25296.1    28444.408   -58233.742      15.2149      13.1765      28.7324    5760.2466 
   87500       87.487    234.83898    9.8047687   -495.82493   -486.02017   -842.98268    25101.176    31646.547   -59276.671      15.2149      13.1765      28.7324    5760.2466 
   88000       87.987    241.08441    10.065522   -496.07443   -486.00891   -697.47415     28112.27    31400.468    -61605.16      15.2149      13.1765      28.7324    5760.2466 
   88500       88.487    249.43226    10.414053   -496.41117   -485.99711   -1201.6913    25152.862    32110.212   -60868.148      15.2149      13.1765      28.7324    5760.2466 
   89000       88.987    236.24889    9.8636338   -495.84781   -485.98418   -966.04611    20710.632    31926.564   -55535.334      15.2149      13.1765      28.7324    5760.2466 
   89500       89.487    233.51113    9.7493295   -495.72107   -485.97174   -843.89215    27050.986     32673.21   -62255.873      15.2149      13.1765      28.7324    5760.2466 
   90000       89.987    233.65303    9.7552539   -495.71523   -485.95998    86.521078    25492.388    34443.044   -59675.869      15.2149      13.1765      28.7324    5760.2466 
   90500       90.487    245.37182    10.244526   -496.19248   -485.94795   -2211.4441    24654.786    30870.658   -62159.776      15.2149      13.1765      28.7324    5760.2466 
   91000       90.987    227.12621    9.4827525   -495.41798   -485.93523   -1064.6484    23620.236    31100.878    -57915.06      15.2149      13.1765      28.7324    5760.2466 
   91500       91.487    232.67368    9.7143649   -495.63799   -485.92362   -1230.6761    23384.187    34036.793   -61113.008      15.2149      13.1765      28.7324    5760.2466 
   92000       91.987     246.4955     10.29144   -496.20281   -485.91137   -239.96787    23981.898    34828.119   -59529.921      15.2149      13.1765      28.7324    5760.2466 
   92500       92.487    237.15039    9.9012722   -495.79958   -485.89831   -1367.2709    23881.779    30413.231   -58396.823      15.2149      13.1765      28.7324    5760.2466 
   93000       92.987    235.94531     9.850959   -495.73574   -485.88478   -40.212815    24814.098    31505.524   -56440.261      15.2149      13.1765      28.7324    5760.2466 
   93500       93.487    248.29394    10.366527   -496.23917   -485.87265   -963.18437     26348.35     29334.04   -58571.943      15.2149      13.1765      28.7324    5760.2466 
   94000       93.987    236.92847    9.8920068   -495.75139   -485.85938    -598.7302    21922.162    31141.507    -54859.86      15.2149      13.1765      28.7324    5760.2466 
   94500       94.487    231.25387    9.6550865   -495.50224   -485.84715    -1946.699     23209.32     30315.58   -59364.997      15.2149      13.1765      28.7324    5760.2466 
   95000       94.987    249.69403    10.424982    -496.2599   -485.83492     206.3262    29266.216    35558.542   -64205.779      15.2149      13.1765      28.7324    5760.2466 
   95500       95.487    249.24818    10.406368   -496.22858   -485.82221   -461.72111    25462.695    31431.796   -58279.654      15.2149      13.1765      28.7324    5760.2466 
   96000       95.987    238.58198    9.9610426   -495.76918   -485.80814   -951.86257    25643.015    33471.937   -61970.539      15.2149      13.1765      28.7324    5760.2466 
   96500       96.487    253.41282    10.580245   -496.37614    -485.7959   -1576.2923    26554.936    29871.255   -61155.068      15.2149      13.1765      28.7324    5760.2466 
   97000       96.987    248.55884    10.377587   -496.16019    -485.7826   -404.51617    25748.422    31205.383   -58167.353      15.2149      13.1765      28.7324    5760.2466 
   97500       97.487    235.72145    9.8416124   -495.61108   -485.76947   -230.73872    27704.773     34810.15   -63207.139      15.2149      13.1765      28.7324    5760.2466 
   98000       97.987    235.54335    9.8341766   -495.59021   -485.75603   -1480.3874    22829.804    30176.991   -57447.957      15.2149      13.1765      28.7324    5760.2466 
   98500       98.487    242.36966    10.119182   -495.86224   -485.74306    -1497.703    22205.843    32142.016   -58840.968      15.2149      13.1765      28.7324    5760.2466 
   99000       98.987    242.36934    10.119169   -495.84935   -485.73018   -1685.9715    25931.051    32125.441   -63114.407      15.2149      13.1765      28.7324    5760.2466 
   99500       99.487    237.09111    9.8987974   -495.61555   -485.71676    -718.0813    24169.852    32801.338   -59125.434      15.2149      13.1765      28.7324    5760.2466 
  100000       99.987    238.41323     9.953997   -495.65704   -485.70304    -1114.058    28075.801    29680.252   -61098.226      15.2149      13.1765      28.7324    5760.2466 
  100500      100.487    245.68277    10.257508   -495.94884   -485.69133    528.76378    26593.923    31885.425   -56893.057      15.2149      13.1765      28.7324    5760.2466 
  101000      100.987    239.23744    9.9884087   -495.66568   -485.67727   -346.52778    26641.729    32872.083   -60553.395      15.2149      13.1765      28.7324    5760.2466 
  101500      101.487    247.11062    10.317122   -495.98029   -485.66317   -491.60932     25812.39    30951.749   -58238.968      15.2149      13.1765      28.7324    5760.2466 
  102000      101.987    239.05063    9.9806092   -495.63001    -485.6494   -560.47446    25720.204    31900.946   -59302.573      15.2149      13.1765      28.7324    5760.2466 
  102500      102.487    236.13944    9.8590641   -495.49432   -485.63526   -884.78719     26301.17    27781.762   -56737.294      15.2149      13.1765      28.7324    5760.2466 
  103000      102.987    233.86882    9.7642633   -495.38643   -485.62217   -119.39773    26899.638    31593.521   -58851.352      15.2149      13.1765      28.7324    5760.2466 
  103500      103.487    249.22686    10.405477   -496.01398    -485.6085   -2257.4258    22583.322    28764.429   -58120.028      15.2149      13.1765      28.7324    5760.2466 
  104000      103.987    229.27549    9.5724873   -495.16715   -485.59466     469.1541    28182.673    32059.626   -58834.837      15.2149      13.1765      28.7324    5760.2466 
  104500      104.487    237.95011    9.9346615   -495.51534   -485.58068   -153.49911    29507.591    32451.459   -62419.548      15.2149      13.1765      28.7324    5760.2466 
  105000      104.987    230.57928    9.6269216   -495.19311   -485.56619    -1007.682    25771.146    29516.154   -58310.346      15.2149      13.1765      28.7324    5760.2466 
  105500      105.487    239.31592    9.9916856   -495.54428    -485.5526   -81.653275    27389.511    33111.172   -60745.643      15.2149      13.1765      28.7324    5760.2466 
  106000      105.987    242.29101    10.115898   -495.65412   -485.53823   -1842.4537    25184.926     33374.58   -64086.867      15.2149      13.1765      28.7324    5760.2466 
  106500      106.487    241.65311    10.089265   -495.61381   -485.52455   -1350.9435    28591.039    26636.922   -59280.791      15.2149      13.1765      28.7324    5760.2466 
  107000      106.987    240.74721    10.051443   -495.56187   -485.51043   -204.46697    25598.593    32240.343   -58452.337      15.2149      13.1765      28.7324    5760.2466 
  107500      107.487    235.51855    9.8331412   -495.32903   -485.49588    -296.0883    30960.309    28947.863   -60796.437      15.2149      13.1765      28.7324    5760.2466 
  108000      107.987    239.50802    9.9997058   -495.48189   -485.48218    324.64828     26524.86    33989.478   -59540.394      15.2149      13.1765      28.7324    5760.2466 
  108500      108.487    236.38035    9.8691225   -495.33689   -485.46777   -1358.1709    23213.314    32391.695   -59679.522      15.2149      13.1765      28.7324    5760.2466 
  109000      108.987    248.72844    10.384668   -495.83917    -485.4545    577.52434    25732.649    34870.891   -58870.967      15.2149      13.1765      28.7324    5760.2466 
  109500      109.487    249.43538    10.414183   -495.85465   -485.44047   -1385.2646    23607.093    30168.698   -57931.584      15.2149      13.1765      28.7324    5760.2466 
  110000      109.987     249.4435    10.414522   -495.84065   -485.42613   -558.90406     24847.52    30967.196   -57491.428      15.2149      13.1765      28.7324    5760.2466 
  110500      110.487    230.51368    9.6241827    -495.0352   -485.41102   -808.91195    26397.924    31635.242   -60459.902      15.2149      13.1765      28.7324    5760.2466 
  111000      110.987    233.30932    9.7409035   -495.13827   -485.39737   -867.81624    24283.588    36129.436   -63016.472      15.2149      13.1765      28.7324    5760.2466 
  111500      111.487     230.2735    9.6141549   -494.99665   -485.38249   -935.49097    22072.688        36649   -61528.161      15.2149      13.1765      28.7324    5760.2466 
  112000      111.987     255.4832    10.666686   -496.03559    -485.3689    372.70299    26334.016    34581.997   -59797.904      15.2149      13.1765      28.7324    5760.2466 
  112500      112.487    248.58209    10.378557   -495.73261   -485.35405   -89.203821    28217.706    32064.716   -60550.033      15.2149      13.1765      28.7324    5760.2466 
  113000      112.987    242.05427    10.106014   -495.44535   -485.33934   -422.71621    26962.449    34213.976   -62444.573      15.2149      13.1765      28.7324    5760.2466 
  113500      113.487    244.67185    10.215301   -495.53975   -485.32445   -523.06619    26767.086     34354.69   -62690.974      15.2149      13.1765      28.7324    5760.2466 
  114000      113.987    236.64594     9.880211    -495.1896   -485.30939   -1635.5368    25610.136    31409.577   -61926.324      15.2149      13.1765      28.7324    5760.2466 
  114500      114.487    247.66054    10.340082   -495.63392   -485.29384   -542.86705    28612.077    35185.198   -65425.877      15.2149      13.1765      28.7324    5760.2466 
  115000      114.987     232.0341     9.687662   -494.96716    -485.2795   -1647.9007    25393.081    32379.684   -62716.467      15.2149      13.1765      28.7324    5760.2466 
  115500      115.487    238.00473    9.9369418   -495.20119   -485.26425    794.22488    27681.557    31652.428   -56951.311      15.2149      13.1765      28.7324    5760.2466 
  116000      115.987    243.01894     10.14629   -495.39644   -485.25015   -545.74266    27076.216    33047.719   -61761.163      15.2149      13.1765      28.7324    5760.2466 
  116500      116.487    245.82432    10.263418   -495.49856   -485.23514    100.88099    25477.075    32456.573   -57631.005      15.2149      13.1765      28.7324    5760.2466 
  117000      116.987    272.38262    11.372254   -496.59407   -485.22182   -197.82805    26548.938    34567.395   -61709.817      15.2149      13.1765      28.7324    5760.2466 
  117500      117.487     249.3614    10.411094   -495.61648   -485.20538   -1080.7254    28168.936    30282.391   -61693.503      15.2149      13.1765      28.7324    5760.2466 
  118000      117.987    238.47397    9.9565332   -495.14649   -485.18996    -59.91132    26461.348    35153.699   -61794.781      15.2149      13.1765      28.7324    5760.2466 
  118500      118.487    239.19988    9.9868407   -495.16242   -485.17558    110.30348    27833.352    32543.957   -60046.399      15.2149      13.1765      28.7324    5760.2466 
  119000      118.987    245.41809    10.246457   -495.40653   -485.16008    575.02856     26440.71    31196.321   -55911.945      15.2149      13.1765      28.7324    5760.2466 
  119500      119.487    238.58671    9.9612401   -495.10664    -485.1454    97.030131     26156.21    32245.157   -58110.276      15.2149      13.1765      28.7324    5760.2466 
  120000      119.987    240.59151    10.044943   -495.17457   -485.12963   -107.87916        29051    30095.759   -59470.396      15.2149      13.1765      28.7324    5760.2466 
  120500      120.487    235.11989    9.8164968   -494.93094   -485.11444    535.46778    28796.872     30336.73   -57527.199      15.2149      13.1765      28.7324    5760.2466 
  121000      120.987    241.65365    10.089288   -495.18902   -485.09973   -2331.0593    25014.878    32207.768   -64215.824      15.2149      13.1765      28.7324    5760.2466 
  121500      121.487    256.81268    10.722193   -495.80723   -485.08503   -1078.7659    24274.342     31223.42    -58734.06      15.2149      13.1765      28.7324    5760.2466 
  122000      121.987    233.58038    9.7522206    -494.8208   -485.06858    47.234671    23235.608    34392.279   -57486.183      15.2149      13.1765      28.7324    5760.2466 
  122500      122.487    260.88218    10.892099   -495.94661   -485.05451   -150.35988    28242.627    30968.276   -59661.983      15.2149      13.1765      28.7324    5760.2466 
  123000      122.987    239.68483    10.007088   -495.04598   -485.03889   -429.56081    25935.365    30549.713   -57773.761      15.2149      13.1765      28.7324    5760.2466 
  123500      123.487    260.47419    10.875065   -495.89939   -485.02433   -96.851714    24946.861    31445.462   -56682.878      15.2149      13.1765      28.7324    5760.2466 
  124000      123.987    249.59304    10.420766   -495.42952   -485.00876   -1008.8916    24181.511    29097.915     -56306.1      15.2149      13.1765      28.7324    5760.2466 
  124500      124.487    247.40881    10.329572   -495.32272   -484.99315    431.02882    23532.363     33956.12   -56195.397      15.2149      13.1765      28.7324    5760.2466 
  125000      124.987    240.92431    10.058837   -495.03699   -484.97815   -613.26275    24415.676    33862.893   -60118.357      15.2149      13.1765      28.7324    5760.2466 
  125500      125.487    242.62014     10.12964   -495.09205   -484.96241    -809.5211     27213.81     33535.95   -63178.323      15.2149      13.1765      28.7324    5760.2466 
  126000      125.987    242.57388    10.127709   -495.07483   -484.94712   -170.12521    21994.745    32527.035   -55032.156      15.2149      13.1765      28.7324    5760.2466 
  126500      126.487    245.42191    10.246617   -495.17858   -484.93197   -1001.9923    25510.056    31163.915   -59679.948      15.2149      13.1765      28.7324    5760.2466 
  127000      126.987      240.246    10.030517    -494.9479   -484.91738    394.26806    24619.392    34009.934   -57446.521      15.2149      13.1765      28.7324    5760.2466 
  127500      127.487    246.35954    10.285764    -495.1869   -484.90113   -2005.7089    25915.704    31424.866   -63357.696      15.2149      13.1765      28.7324    5760.2466 
  128000      127.987    238.57308    9.9606711   -494.84631   -484.88564   -871.47031    24123.043    32199.214   -58936.668      15.2149      13.1765      28.7324    5760.2466 
  128500      128.487    250.51855    10.459407   -495.33011    -484.8707   -872.59927     24567.78    30532.235   -57717.813      15.2149      13.1765      28.7324    5760.2466 
  129000      128.987     257.5381     10.75248   -495.60876   -484.85627   -1241.6733     24088.45    30399.322   -58212.791      15.2149      13.1765      28.7324    5760.2466 
  129500      129.487    261.01006    10.897438   -495.73863   -484.84119   -1470.9711    24258.734    31381.157   -60052.804      15.2149      13.1765      28.7324    5760.2466 
  130000      129.987    242.58073    10.127995   -494.95323   -484.82524   -962.42019    24051.186    33832.973   -60771.419      15.2149      13.1765      28.7324    5760.2466 
  130500      130.487     248.5894    10.378863   -495.18897   -484.81011   -1640.3316    23072.185    32853.726   -60846.906      15.2149      13.1765      28.7324    5760.2466 
  131000      130.987    258.54316    10.794442    -495.5893   -484.79486   -1277.9091    25752.077    30661.719   -60247.524      15.2149      13.1765      28.7324    5760.2466 
  131500      131.487    254.38805    10.620962   -495.40018   -484.77921   -683.26727    23398.795     30909.95   -56358.546      15.2149      13.1765      28.7324    5760.2466 
  132000      131.987    253.02941    10.564238   -495.32767   -484.76343   -838.39623    22135.153    30065.239    -54715.58      15.2149      13.1765      28.7324    5760.2466 
  132500      132.487    256.98338     10.72932   -495.47732     -484.748   -1583.3629    26162.496    28177.459   -59090.043      15.2149      13.1765      28.7324    5760.2466 
  133000      132.987    255.86677      10.6827   -495.41548   -484.73278   -213.03752    22988.145    34524.262    -58151.52      15.2149      13.1765      28.7324    5760.2466 
  133500      133.487    239.63021    10.004807    -494.7215   -484.71669   -70.575264    23429.842    33210.985   -56852.552      15.2149      13.1765      28.7324    5760.2466 
  134000      133.987    248.60358    10.379455   -495.08113   -484.70167   -958.54258    26746.665     28264.21   -57886.503      15.2149      13.1765      28.7324    5760.2466 
  134500      134.487    263.08975    10.984267   -495.67071   -484.68645   -1356.5781    22032.509    29091.253   -55193.496      15.2149      13.1765      28.7324    5760.2466 
  135000      134.987    245.39916    10.245667   -494.91626   -484.67059   -954.11385     27060.61    30915.499    -60838.45      15.2149      13.1765      28.7324    5760.2466 
  135500      135.487    245.49083    10.249494   -494.90415   -484.65466   -109.97101    26205.731    33718.867   -60254.511      15.2149      13.1765      28.7324    5760.2466 
  136000      135.987    243.71265    10.175253   -494.81477   -484.63952    799.31046    27998.318    31551.563   -57151.949      15.2149      13.1765      28.7324    5760.2466 
  136500      136.487     245.0592    10.231473   -494.85489   -484.62342   -1279.5739    25722.692    28742.235   -58303.649      15.2149      13.1765      28.7324    5760.2466 
  137000      136.987    254.00691    10.605049   -495.21313   -484.60809    1232.9001      28694.7    36222.474   -61218.473      15.2149      13.1765      28.7324    5760.2466 
  137500      137.487    254.70307    10.634115   -495.22591   -484.59179   -857.92834    27311.459     27241.44   -57126.683      15.2149      13.1765      28.7324    5760.2466 
  138000      137.987     239.0758      9.98166   -494.55736    -484.5757   -908.65912    23170.917    31241.506   -57138.401      15.2149      13.1765      28.7324    5760.2466 
  138500      138.487    261.24696    10.907329    -495.4681   -484.56077   -817.91131    24024.956    34078.871   -60557.561      15.2149      13.1765      28.7324    5760.2466 
  139000      138.987    258.60525    10.797035   -495.34238   -484.54534   -901.60231    25253.924    32874.301   -60833.033      15.2149      13.1765      28.7324    5760.2466 
  139500      139.487    228.72103    9.5493377   -494.07712   -484.52778   -260.30923    26128.345    30120.203   -57029.475      15.2149      13.1765      28.7324    5760.2466 
  140000      139.987    252.80138    10.554717    -495.0677   -484.51299    562.47397    26668.272    33345.352   -58326.202      15.2149      13.1765      28.7324    5760.2466 
  140500      140.487    251.49934    10.500356   -494.99795   -484.49759    420.19666     27756.51    33718.359    -60214.28      15.2149      13.1765      28.7324    5760.2466 
  141000      140.987    239.65878       10.006   -494.48682   -484.48082    807.50674    23741.469    34415.283   -55734.232      15.2149      13.1765      28.7324    5760.2466 
  141500      141.487    248.69413    10.383235   -494.84875   -484.46552   -1718.9173    26083.241    33307.113   -64547.106      15.2149      13.1765      28.7324    5760.2466 
  142000      141.987    255.34118    10.660757   -495.11068   -484.44993    107.89149    27762.776     29956.61   -57395.712      15.2149      13.1765      28.7324    5760.2466 
  142500      142.487    248.45221    10.373135   -494.80664    -484.4335   -372.58079    26641.376    28944.114   -56703.232      15.2149      13.1765      28.7324    5760.2466 
  143000      142.987    266.85503    11.141472   -495.55962   -484.41815    508.86195    26605.465     34906.88   -59985.758      15.2149      13.1765      28.7324    5760.2466 
  143500      143.487    261.46785    10.916551   -495.31831   -484.40176   -1026.3972    26395.907    29043.183   -58518.282      15.2149      13.1765      28.7324    5760.2466 
  144000      143.987    261.08228    10.900453   -495.28604   -484.38559    948.81716    25088.653    35284.641   -57526.843      15.2149      13.1765      28.7324    5760.2466 
  144500      144.487    261.03918    10.898654   -495.26733   -484.36868   -487.12102    22112.263    31968.786   -55542.412      15.2149      13.1765      28.7324    5760.2466 
  145000      144.987    258.40866    10.788827   -495.14196   -484.35313   -379.34796    25277.073    34182.866   -60597.983      15.2149      13.1765      28.7324    5760.2466 
  145500      145.487     253.6768    10.591267   -494.92756   -484.33629    -786.8568    24649.041    30300.626   -57310.237      15.2149      13.1765      28.7324    5760.2466 
  146000      145.987    245.92559    10.267646   -494.58784    -484.3202    540.12696    27210.167     32576.88   -58166.666      15.2149      13.1765      28.7324    5760.2466 
  146500      146.487    265.76863    11.096113   -495.40076   -484.30464   -249.30724    25821.443    35157.876   -61727.241      15.2149      13.1765      28.7324    5760.2466 
  147000      146.987    262.05671    10.941137   -495.22893   -484.28779    965.69767     23189.61    34399.861   -54692.378      15.2149      13.1765      28.7324    5760.2466 
  147500      147.487    245.32761     10.24268   -494.51387   -484.27119    636.04504     26873.51    33889.028   -58854.403      15.2149      13.1765      28.7324    5760.2466 
  148000      147.987    246.83682    10.305691   -494.56021   -484.25452    745.99016    27456.466    32571.802   -57790.298      15.2149      13.1765      28.7324    5760.2466 
  148500      148.487    262.82124    10.973057   -495.21239   -484.23934   -490.54586    22994.864    33395.788    -57862.29      15.2149      13.1765      28.7324    5760.2466 
  149000      148.987    258.77158    10.803979   -495.02743   -484.22345   -617.09367    26995.519    31903.528   -60750.329      15.2149      13.1765      28.7324    5760.2466 
  149500      149.487    246.31146    10.283756   -494.48961   -484.20585    1230.4184    25461.573    34373.125   -56143.443      15.2149      13.1765      28.7324    5760.2466 
  150000      149.987     249.5063    10.417144   -494.60757   -484.19043   -1469.0477     24393.36    32509.315   -61309.818      15.2149      13.1765      28.7324    5760.2466 
  150500      150.487    262.50241    10.959745   -495.13387   -484.17413   -615.30039     24984.81    35321.762   -62152.473      15.2149      13.1765      28.7324    5760.2466 
  151000      150.987     247.3409    10.326736   -494.48472   -484.15798    54.696137    23412.266    34799.608   -58047.785      15.2149      13.1765      28.7324    5760.2466 
  151500      151.487     242.5508    10.126745   -494.26884    -484.1421   -326.57497    25212.029    34982.265   -61174.019      15.2149      13.1765      28.7324    5760.2466 
  152000      151.987    260.86498    10.891381   -495.01692   -484.12554   -1920.8442     23693.09     34289.74   -63745.363      15.2149      13.1765      28.7324    5760.2466 
  152500      152.487    262.40593    10.955717   -495.06526   -484.10954   -893.37182    24576.428    30612.718   -57869.261      15.2149      13.1765      28.7324    5760.2466 
  153000      152.987    262.55347    10.961877   -495.05562   -484.09374    585.51119    27123.448    30806.066   -56172.981      15.2149      13.1765      28.7324    5760.2466 
  153500      153.487    260.97869    10.896128   -494.97267   -484.07654   -736.63912    26298.014    32613.274   -61121.205      15.2149      13.1765      28.7324    5760.2466 
  154000      153.987    265.33212    11.077888   -495.13902   -484.06113    383.04978    26144.457    30874.209   -55869.516      15.2149      13.1765      28.7324    5760.2466 
  154500      154.487     260.4718    10.874965   -494.91926    -484.0443    857.78485    29717.701    30017.257   -57161.603      15.2149      13.1765      28.7324    5760.2466 
  155000      154.987    260.88884    10.892377   -494.91984   -484.02746   -851.71579    25994.261    32401.294   -60950.702      15.2149      13.1765      28.7324    5760.2466 
  155500      155.487    253.46768    10.582536   -494.59397   -484.01143   -397.69416    25845.589    35047.539    -62086.21      15.2149      13.1765      28.7324    5760.2466 
  156000      155.987    252.44814    10.539969   -494.53456   -483.99459   -155.05912    27273.266    33165.108    -60903.55      15.2149      13.1765      28.7324    5760.2466 
  156500      156.487    257.54676    10.752842   -494.73161   -483.97877   -388.84555    28755.498     27104.97   -57027.005      15.2149      13.1765      28.7324    5760.2466 
  157000      156.987    258.82558    10.806234   -494.76853   -483.96229    54.637208     26912.65    30135.355   -56884.093      15.2149      13.1765      28.7324    5760.2466 
  157500      157.487    260.70626    10.884754   -494.82993   -483.94517    344.19414     28741.48     30477.42   -58186.317      15.2149      13.1765      28.7324    5760.2466 
  158000      157.987    263.90633     11.01836   -494.94751   -483.92915   -682.33908    26557.028    30915.693   -59519.738      15.2149      13.1765      28.7324    5760.2466 
  158500      158.487    264.21651    11.031311   -494.94355   -483.91224   -785.81366    24672.039    31287.143   -58316.623      15.2149      13.1765      28.7324    5760.2466 
  159000      158.987    260.97725    10.896068   -494.79183   -483.89576    786.64693    27006.474    29172.518   -53819.052      15.2149      13.1765      28.7324    5760.2466 
  159500      159.487    261.96934    10.937489    -494.8158   -483.87832   -87.689882    26480.693    33898.152   -60641.915      15.2149      13.1765      28.7324    5760.2466 
  160000      159.987    246.90364    10.308481    -494.1701   -483.86162    65.080761    26974.234    33334.678    -60113.67      15.2149      13.1765      28.7324    5760.2466 
  160500      160.487    267.44288    11.166015   -495.01184   -483.84582   -55.514841    25035.722    34212.739   -59415.005      15.2149      13.1765      28.7324    5760.2466 
  161000      160.987    244.32805    10.200947   -494.02943   -483.82848   -653.29083    23772.424    30228.827   -55961.124      15.2149      13.1765      28.7324    5760.2466 
  161500      161.487    274.02532    11.440838   -495.25453   -483.81369   -440.56508    26844.114    33546.119   -61711.929      15.2149      13.1765      28.7324    5760.2466 
  162000      161.987    266.66921    11.133713   -494.93023   -483.79652   -775.74441     25965.24    26470.739   -54763.213      15.2149      13.1765      28.7324    5760.2466 
  162500      162.487    277.16072    11.571745    -495.3515   -483.77975    248.61857    26949.837    29975.631   -56179.613      15.2149      13.1765      28.7324    5760.2466 
  163000      162.987    255.44681    10.665166   -494.42704   -483.76188    509.81225    26344.598    31549.056   -56364.218      15.2149      13.1765      28.7324    5760.2466 
  163500      163.487    264.21831    11.031386   -494.77747   -483.74608    619.38859    26717.074    33469.239   -58328.147      15.2149      13.1765      28.7324    5760.2466 
  164000      163.987    258.62889    10.798022   -494.52712    -483.7291   -258.09565    25139.928    35453.126   -61367.342      15.2149      13.1765      28.7324    5760.2466 
  164500      164.487    277.49422    11.585669   -495.29914   -483.71347    66.420834    23568.824    33494.779   -56864.341      15.2149      13.1765      28.7324    5760.2466 
  165000      164.987    271.29973    11.327042   -495.02387   -483.69683   -1040.8495    28005.048    33205.943   -64333.539      15.2149      13.1765      28.7324    5760.2466 
  165500      165.487    252.68793     10.54998   -494.22916   -483.67918    -410.2241    25287.038    34306.681   -60824.392      15.2149      13.1765      28.7324    5760.2466 
  166000      165.987    276.21015    11.532057   -495.19503   -483.66298   -1394.6437    24765.673    31233.144   -60182.748      15.2149      13.1765      28.7324    5760.2466 
  166500      166.487    266.37835     11.12157   -494.76694   -483.64537     47.66076    24684.732    34376.379   -58918.128      15.2149      13.1765      28.7324    5760.2466 
  167000      166.987    262.06424    10.941451   -494.57059   -483.62914   -181.38001    26694.994    34223.076    -61462.21      15.2149      13.1765      28.7324    5760.2466 
  167500      167.487    276.49523     11.54396   -495.15615   -483.61219   -817.66808    24415.914      33900.1   -60769.018      15.2149      13.1765      28.7324    5760.2466 
  168000      167.987    270.34975     11.28738    -494.8841   -483.59672   -698.93101    28095.448    32634.933   -62827.174      15.2149      13.1765      28.7324    5760.2466 
  168500      168.487    263.87451    11.017032   -494.59638   -483.57935   -203.26409    26817.812    30916.244   -58343.848      15.2149      13.1765      28.7324    5760.2466 
  169000      168.987     279.4961    11.669249   -495.23165    -483.5624   -248.93023    27852.135    31675.617   -60274.542      15.2149      13.1765      28.7324    5760.2466 
  169500      169.487    268.60162    11.214394   -494.75941   -483.54501   -1779.9267    27113.405    28535.052   -60988.236      15.2149      13.1765      28.7324    5760.2466 
  170000      169.987    276.66702    11.551132   -495.07975   -483.52862   -135.16313    28657.559    31907.983   -60971.031      15.2149      13.1765      28.7324    5760.2466 
  170500      170.487    271.00444    11.314713   -494.82594   -483.51123   -1030.5379    28080.132    32073.685    -63245.43      15.2149      13.1765      28.7324    5760.2466 
  171000      170.987    268.19177    11.197282   -494.69157   -483.49429    306.25255    22950.474    34198.484   -56230.201      15.2149      13.1765      28.7324    5760.2466 
  171500      171.487    262.77196    10.970999   -494.44839   -483.47739    278.19789    26886.386    35053.375   -61105.167      15.2149      13.1765      28.7324    5760.2466 
  172000      171.987    263.58306    11.004863   -494.46532   -483.46045    312.55329    24070.725    36965.989   -60099.054      15.2149      13.1765      28.7324    5760.2466 
  172500      172.487    258.84081    10.806869   -494.25098   -483.44411    1209.3674    26824.538     32585.05   -55781.485      15.2149      13.1765      28.7324    5760.2466 
  173000      172.987    265.69238     11.09293   -494.51984   -483.42691    492.27307    26526.901    29030.888    -54080.97      15.2149      13.1765      28.7324    5760.2466 
  173500      173.487    266.40617    11.122731   -494.53366   -483.41093    392.41789    29319.886    31484.932   -59627.564      15.2149      13.1765      28.7324    5760.2466 
  174000      173.987     261.3083     10.90989   -494.30344   -483.39355    1477.4083    27966.197    35064.768    -58598.74      15.2149      13.1765      28.7324    5760.2466 
  174500      174.487    249.20464    10.404549   -493.78045    -483.3759    -452.0511    25984.019    31136.429   -58476.601      15.2149      13.1765      28.7324    5760.2466 
  175000      174.987    273.95731    11.437999   -494.79723   -483.35923    1567.0303    26307.418    33673.547   -55279.874      15.2149      13.1765      28.7324    5760.2466 
  175500      175.487    255.33714    10.660588   -494.00201   -483.34142     -1034.15    26023.625    34846.189   -63972.265      15.2149      13.1765      28.7324    5760.2466 
  176000      175.987    264.92965    11.061085   -494.38628    -483.3252   -425.50882    26308.394    30855.655   -58440.575      15.2149      13.1765      28.7324    5760.2466 
  176500      176.487    284.55121    11.880305   -495.19001    -483.3097   -811.55341    25748.687    33639.484   -61822.831      15.2149      13.1765      28.7324    5760.2466 
  177000      176.987    277.11732    11.569933   -494.86099   -483.29106    204.38655     23978.53    33411.416   -56776.787      15.2149      13.1765      28.7324    5760.2466 
  177500      177.487     254.7406    10.635682   -493.90916   -483.27348   -1287.9917    27563.374    31710.272   -63137.622      15.2149      13.1765      28.7324    5760.2466 
  178000      177.987    267.14892    11.153742    -494.4104   -483.25666   -687.03528    25302.408    32510.036   -59873.549      15.2149      13.1765      28.7324    5760.2466 
  178500      178.487    263.71344    11.010307   -494.25064   -483.24033   -202.43917    22477.616    35338.517   -58423.451      15.2149      13.1765      28.7324    5760.2466 
  179000      178.987    270.48043    11.292836   -494.51587   -483.22303   -753.53795    28036.353    31518.298   -61815.265      15.2149      13.1765      28.7324    5760.2466 
  179500      179.487    263.60294    11.005693   -494.21178   -483.20609   -290.76641    25375.797    32783.759   -59031.855      15.2149      13.1765      28.7324    5760.2466 
  180000      179.987    266.95407    11.145607   -494.33423   -483.18863   -841.01259    25600.343     31160.07   -59283.451      15.2149      13.1765      28.7324    5760.2466 
  180500      180.487    254.74087    10.635693   -493.80725   -483.17156   -1736.5828    27788.588    32482.263     -65480.6      15.2149      13.1765      28.7324    5760.2466 
  181000      180.987    262.77262    10.971027   -494.12554   -483.15451   -1182.7042    24430.872    32764.664   -60743.649      15.2149      13.1765      28.7324    5760.2466 
  181500      181.487    271.00086    11.314564   -494.45209   -483.13753    625.18508    29371.462    33595.486   -61091.393      15.2149      13.1765      28.7324    5760.2466 
  182000      181.987    275.06181    11.484113    -494.6054   -483.12128    461.75725    26224.179    32778.747   -57617.654      15.2149      13.1765      28.7324    5760.2466 
  182500      182.487    268.50706    11.210446   -494.31308   -483.10264   -476.16095    25055.195    31076.493   -57560.171      15.2149      13.1765      28.7324    5760.2466 
  183000      182.987    266.02356    11.106757   -494.19272   -483.08597   -471.35849    26062.189    34310.946   -61787.211      15.2149      13.1765      28.7324    5760.2466 
  183500      183.487    264.16993    11.029366   -494.09932   -483.06995   -466.23997    26151.565    34102.741   -61653.025      15.2149      13.1765      28.7324    5760.2466 
  184000      183.987    274.87257    11.476212   -494.52868   -483.05247   -801.23602    24908.935    32406.394   -59719.037      15.2149      13.1765      28.7324    5760.2466 
  184500      184.487    268.05497     11.19157   -494.22601   -483.03444    310.28745    27915.535    34257.262   -61241.935      15.2149      13.1765      28.7324    5760.2466 
  185000      184.987    275.87915    11.518238   -494.53678   -483.01854   -540.29679    25958.118     32719.01   -60298.018      15.2149      13.1765      28.7324    5760.2466 
  185500      185.487    272.09797     11.36037   -494.36093   -483.00056    813.40155    30192.652    28240.324   -55992.771      15.2149      13.1765      28.7324    5760.2466 
  186000      185.987    262.09215    10.942617   -493.92537   -482.98276    466.10687    29179.352    31868.627   -59649.659      15.2149      13.1765      28.7324    5760.2466 
  186500      186.487    270.26156    11.283698   -494.24987   -482.96617   -437.64703    26806.406    34915.461   -63034.808      15.2149      13.1765      28.7324    5760.2466 
  187000      186.987    264.86248    11.058281   -494.00695   -482.94867   -258.33398    27246.688    34019.052   -62040.742      15.2149      13.1765      28.7324    5760.2466 
  187500      187.487    256.93181    10.727167   -493.65816   -482.93099     1012.423    27271.357    30048.141   -54282.229      15.2149      13.1765      28.7324    5760.2466 
  188000      187.987    263.22493    10.989911   -493.90287   -482.91296    1044.2533     28318.23      32285.3   -57470.771      15.2149      13.1765      28.7324    5760.2466 
  188500      188.487    276.41489    11.540606   -494.43674   -482.89614    710.90402    26135.164    33715.721   -57718.173      15.2149      13.1765      28.7324    5760.2466 
  189000      188.987    254.48265    10.624912   -493.50268   -482.87776    165.80001    28983.921    30200.431   -58686.951      15.2149      13.1765      28.7324    5760.2466 
  189500      189.487    279.47973    11.668566   -494.53071   -482.86214    288.97993    21651.277     32834.24   -53618.578      15.2149      13.1765      28.7324    5760.2466 
  190000      189.987    266.74939    11.137061   -493.98047   -482.84341    1289.3497    26367.505    35656.605    -58156.06      15.2149      13.1765      28.7324    5760.2466 
  190500      190.487    269.52091    11.252775   -494.07942   -482.82664   -193.19266    30331.357    28162.656   -59073.591      15.2149      13.1765      28.7324    5760.2466 
  191000      190.987     276.1636    11.530114   -494.33949   -482.80938   -167.34226    27368.136    32391.752   -60261.915      15.2149      13.1765      28.7324    5760.2466 
  191500      191.487    272.57889    11.380448   -494.17182   -482.79137   -417.39241     27054.81     32439.94   -60746.928      15.2149      13.1765      28.7324    5760.2466 
  192000      191.987    281.46878    11.751611   -494.52568   -482.77407      889.088     28811.12    35264.753   -61408.609      15.2149      13.1765      28.7324    5760.2466 
  192500      192.487    278.20755    11.615451   -494.37141   -482.75596   -882.41761    24753.636     33232.16    -60633.05      15.2149      13.1765      28.7324    5760.2466 
  193000      192.987    285.98776    11.940282   -494.67904   -482.73876    354.01093    28171.146    31975.702   -59084.815      15.2149      13.1765      28.7324    5760.2466 
  193500      193.487    271.25656     11.32524   -494.04565   -482.72041   -769.82325    26554.284    30041.097   -58904.851      15.2149      13.1765      28.7324    5760.2466 
  194000      193.987    283.82362    11.849927   -494.55337   -482.70344   -1112.2524    26859.167    30518.494   -60714.418      15.2149      13.1765      28.7324    5760.2466 
  194500      194.487    289.95375    12.105867   -494.79167    -482.6858     672.4566    25801.577    31615.778   -55399.986      15.2149      13.1765      28.7324    5760.2466 
  195000      194.987    278.51422    11.628255   -494.29614   -482.66788    1104.4478    32132.504    32439.322   -61258.482      15.2149      13.1765      28.7324    5760.2466 
  195500      195.487    268.04457    11.191136   -493.84118   -482.65004    1232.2004    29041.082    30372.239    -55716.72      15.2149      13.1765      28.7324    5760.2466 
  196000      195.987    282.33029     11.78758   -494.42113   -482.63355   -192.12396    24304.456    35430.756   -60311.584      15.2149      13.1765      28.7324    5760.2466 
  196500      196.487    287.94109    12.021836   -494.63817   -482.61633   -908.54711    28086.024    30565.733   -61377.398      15.2149      13.1765      28.7324    5760.2466 
  197000      196.987    296.00271    12.358417   -494.95719   -482.59877    66.154796    25742.143    34455.274   -59998.953      15.2149      13.1765      28.7324    5760.2466 
  197500      197.487    303.12753    12.655886   -495.23765   -482.58176    577.89055    25013.169    35405.374   -58684.871      15.2149      13.1765      28.7324    5760.2466 
  198000      197.987    280.98111     11.73125    -494.2947   -482.56345    731.29869    27760.363    31053.011   -56619.478      15.2149      13.1765      28.7324    5760.2466 
  198500      198.487    278.78835      11.6397   -494.18507   -482.54537   -723.25457    23068.481    32003.958   -57242.202      15.2149      13.1765      28.7324    5760.2466 
  199000      198.987    292.65924    12.218824   -494.74718   -482.52836    69.979664    25777.713    29396.792   -54964.566      15.2149      13.1765      28.7324    5760.2466 
  199500      199.487    293.95818    12.273056   -494.78458   -482.51152   -425.61488    29672.968    30619.813   -61569.626      15.2149      13.1765      28.7324    5760.2466 
  200000      199.987    276.03025    11.524547   -494.01722   -482.49267    1992.6697    26620.307    34192.546   -54834.844      15.2149      13.1765      28.7324    5760.2466 
  200500      200.487    268.33581    11.203296   -493.67859    -482.4753   -1180.6082     27586.37    30947.115    -62075.31      15.2149      13.1765      28.7324    5760.2466 
  201000      200.987    281.73169    11.762587      -494.22   -482.45741    -279.3565    27198.521    32029.541   -60066.132      15.2149      13.1765      28.7324    5760.2466 
  201500      201.487     293.2137    12.241973   -494.68078    -482.4388    1277.4475    28400.439    34943.099   -59511.196      15.2149      13.1765      28.7324    5760.2466 
  202000      201.987    271.54255     11.33718    -493.7584   -482.42122    123.95368    28518.589    27082.182    -55228.91      15.2149      13.1765      28.7324    5760.2466 
  202500      202.487    285.26195    11.909979    -494.3147   -482.40473   -266.28691    25393.042    32811.997     -59003.9      15.2149      13.1765      28.7324    5760.2466 
  203000      202.987    295.49705    12.337305   -494.72286   -482.38555    -1458.181    24509.014    31860.182   -60743.739      15.2149      13.1765      28.7324    5760.2466 
  203500      203.487     275.1166      11.4864   -493.85407   -482.36767    1189.8637    28023.318    31873.998   -56327.725      15.2149      13.1765      28.7324    5760.2466 
  204000      203.987    274.75439    11.471278   -493.82147   -482.35019    143.53573    24037.267    32597.808   -56204.468      15.2149      13.1765      28.7324    5760.2466 
  204500      204.487    302.61222    12.634371   -494.96764   -482.33327     966.5576     24787.06    32980.413     -54867.8      15.2149      13.1765      28.7324    5760.2466 
  205000      204.987    264.30156    11.034862   -493.34963   -482.31477    867.43676    28040.006    30524.112   -55961.807      15.2149      13.1765      28.7324    5760.2466 
  205500      205.487     277.0929    11.568913   -493.86492   -482.29601    391.95736    28266.827    36162.032   -63252.987      15.2149      13.1765      28.7324    5760.2466 
  206000      205.987    271.96287    11.354729   -493.63277   -482.27804    1013.2977    27340.076    33192.891   -57493.073      15.2149      13.1765      28.7324    5760.2466 
  206500      206.487    278.95857    11.646807   -493.90719   -482.26038    848.60418    27152.393    36136.093   -60742.673      15.2149      13.1765      28.7324    5760.2466 
  207000      206.987    274.99806    11.481451   -493.72468   -482.24323   -1175.2292    25040.096    32946.464   -61512.248      15.2149      13.1765      28.7324    5760.2466 
  207500      207.487    269.30518    11.243768   -493.46869   -482.22493    970.98384    22754.598    36933.764    -56775.41      15.2149      13.1765      28.7324    5760.2466 
  208000      207.987    287.42117    12.000129   -494.20821   -482.20808    323.96906    24606.841    30304.828   -53939.762      15.2149      13.1765      28.7324    5760.2466 
  208500      208.487    282.33153    11.787631   -493.97783    -482.1902    470.08396    24866.158    32337.177   -55793.082      15.2149      13.1765      28.7324    5760.2466 
  209000      208.987    273.68064    11.426448   -493.59896   -482.17251   -1412.6336    25488.388    33244.369   -62970.658      15.2149      13.1765      28.7324    5760.2466 
  209500      209.487    287.98377    12.023618    -494.1767   -482.15308    132.00046    25590.351    30098.192   -55292.541      15.2149      13.1765      28.7324    5760.2466 
  210000      209.987    274.27307    11.451182   -493.58651   -482.13532    385.14842    27164.752    33075.408   -59084.715      15.2149      13.1765      28.7324    5760.2466 
  210500      210.487    284.33089    11.871107   -493.98885   -482.11775   -426.91384    23898.354    31556.053   -56735.148      15.2149      13.1765      28.7324    5760.2466 
  211000      210.987    282.92716    11.812499   -493.91249   -482.09999   -1270.4641    24311.389    33990.485   -62113.267      15.2149      13.1765      28.7324    5760.2466 
  211500      211.487     280.4123    11.707501   -493.78944   -482.08194   -390.67735    26878.157    34758.708   -62808.897      15.2149      13.1765      28.7324    5760.2466 
  212000      211.987    280.11922    11.695265   -493.75941   -482.06414   -1250.4965     22189.89    30270.138   -56211.518      15.2149      13.1765      28.7324    5760.2466 
[...]
  948500      948.487    373.30147     15.58572   -490.09852    -474.5128    3039.3878    26048.239    38067.422   -54997.497      15.2149      13.1765      28.7324    5760.2466 
  949000      948.987    347.96266    14.527798    -489.0391    -474.5113    3909.0722    29492.865    41867.428   -59633.076      15.2149      13.1765      28.7324    5760.2466 
  949500      949.487    375.69408    15.685614   -490.19584   -474.51023    2934.1677    24741.508    39472.782   -55411.787      15.2149      13.1765      28.7324    5760.2466 
  950000      949.987    364.98747    15.238602   -489.74858   -474.50998    3572.9646    29748.919    36382.257   -55412.282      15.2149      13.1765      28.7324    5760.2466 
  950500      950.487    374.44781     15.63358   -490.14355   -474.50997    3732.8641    31585.923    40322.792   -60710.123      15.2149      13.1765      28.7324    5760.2466 
  951000      950.987    382.81398    15.982877    -490.4929   -474.51003    3059.0381    30458.587    38361.649   -59643.122      15.2149      13.1765      28.7324    5760.2466 
  951500      951.487     360.6006    15.055445   -489.56344     -474.508    3893.0984    25770.035    40474.639   -54565.379      15.2149      13.1765      28.7324    5760.2466 
  952000      951.987    377.15597    15.746649   -490.25448   -474.50783    1593.5385    28824.248    36230.885   -60274.518      15.2149      13.1765      28.7324    5760.2466 
  952500      952.487    380.72054    15.895474   -490.40224   -474.50677    2926.5198    30127.766    39125.489   -60473.696      15.2149      13.1765      28.7324    5760.2466 
  953000      952.987    393.09281    16.412028   -490.91811   -474.50609    1705.4698    27700.491     39116.28   -61700.362      15.2149      13.1765      28.7324    5760.2466 
  953500      953.487    374.29254    15.627098   -490.13222   -474.50512    3051.9558    26492.464    39766.554    -57103.15      15.2149      13.1765      28.7324    5760.2466 
  954000      953.987    357.77375    14.937421   -489.44082    -474.5034     3418.844    28502.055    41210.416   -59455.938      15.2149      13.1765      28.7324    5760.2466 
  954500      954.487    368.33017    15.378163   -489.88178   -474.50362    1230.3479    25333.616    37772.997   -59415.569      15.2149      13.1765      28.7324    5760.2466 
  955000      954.987     375.7147    15.686475   -490.18788    -474.5014    2278.3583    28692.484    37728.282   -59585.691      15.2149      13.1765      28.7324    5760.2466 
  955500      955.487    364.26927    15.208616   -489.70826   -474.49964     2491.946    29756.894    32374.065   -54655.121      15.2149      13.1765      28.7324    5760.2466 
  956000      955.987     356.4507    14.882183    -489.3809   -474.49872    3157.9711    32591.096    35537.701   -58654.883      15.2149      13.1765      28.7324    5760.2466 
  956500      956.487    363.11271    15.160329   -489.65601   -474.49568    2139.2976    32251.188    33363.887   -59197.183      15.2149      13.1765      28.7324    5760.2466 
  957000      956.987    373.42628    15.590931   -490.08748   -474.49654    2389.6049    31170.915     36144.12    -60146.22      15.2149      13.1765      28.7324    5760.2466 
  957500      957.487    400.70105     16.72968   -491.22579   -474.49611    3153.6931    28656.291    38408.506   -57603.718      15.2149      13.1765      28.7324    5760.2466 
  958000      957.987     380.6353    15.891915   -490.38493   -474.49302    1959.2629    28571.777    35204.511   -57898.499      15.2149      13.1765      28.7324    5760.2466 
  958500      958.487    352.10301    14.700662   -489.19206    -474.4914    2311.6047    30641.071    36163.117   -59869.374      15.2149      13.1765      28.7324    5760.2466 
  959000      958.987    379.59611    15.848527   -490.33942   -474.49089    2409.7669    28378.042    35571.258   -56719.999      15.2149      13.1765      28.7324    5760.2466 
  959500      959.487    382.40126    15.965645    -490.4554   -474.48975    3192.9364     26416.48    37773.765   -54611.435      15.2149      13.1765      28.7324    5760.2466 
  960000      959.987     384.2085    16.041099    -490.5292   -474.48811    1809.5552    30035.588    37243.992   -61850.915      15.2149      13.1765      28.7324    5760.2466 
  960500      960.487    379.55031    15.846615   -490.33437   -474.48776    1146.5369     26755.18    38611.052   -61926.621      15.2149      13.1765      28.7324    5760.2466 
  961000      960.987    361.49811    15.092917   -489.57788   -474.48496    3481.0356    30179.642    34495.282   -54231.817      15.2149      13.1765      28.7324    5760.2466 
  961500      961.487     380.7367    15.896148   -490.38071   -474.48456    2394.9891    30401.828    39304.907   -62521.768      15.2149      13.1765      28.7324    5760.2466 
  962000      961.987    377.44545    15.758735   -490.24314    -474.4844    2045.8601    28029.023    35309.046   -57200.489      15.2149      13.1765      28.7324    5760.2466 
  962500      962.487    381.72761    15.937519   -490.41928   -474.48176    2101.9167    26187.179    35673.157   -55554.585      15.2149      13.1765      28.7324    5760.2466 
  963000      962.987    372.29479     15.54369   -490.02383   -474.48014    2423.1937    25947.622    35461.111   -54139.152      15.2149      13.1765      28.7324    5760.2466 
  963500      963.487    387.75488    16.189164    -490.6681   -474.47894    2370.3669     29122.01    34136.547   -56147.456      15.2149      13.1765      28.7324    5760.2466 
  964000      963.987    364.90261    15.235059   -489.71134   -474.47628      1298.18     32581.92     37475.93    -66163.31      15.2149      13.1765      28.7324    5760.2466 
  964500      964.487    368.37067    15.379854   -489.85499   -474.47514    2915.6568    28490.201     35810.67     -55553.9      15.2149      13.1765      28.7324    5760.2466 
  965000      964.987    382.14937    15.955129   -490.42918   -474.47406    1631.6194    26910.785    38749.467   -60765.394      15.2149      13.1765      28.7324    5760.2466 
  965500      965.487    381.17113    15.914286    -490.3865   -474.47222    2847.4938    28831.347    37673.022   -57961.887      15.2149      13.1765      28.7324    5760.2466 
  966000      965.987     333.9094     13.94106   -488.41054   -474.46948    2219.5244    27821.841    37685.773    -58849.04      15.2149      13.1765      28.7324    5760.2466 
  966500      966.487    357.67712    14.933387   -489.40172   -474.46833    2625.8858     28731.63    34403.619   -55257.591      15.2149      13.1765      28.7324    5760.2466 
  967000      966.987    380.71002    15.895034   -490.36134   -474.46631    4391.3937    27603.677    39389.295    -53818.79      15.2149      13.1765      28.7324    5760.2466 
  967500      967.487    373.81401    15.607119   -490.07187   -474.46475    2852.1364    25218.235    34969.137   -51630.963      15.2149      13.1765      28.7324    5760.2466 
  968000      967.987    385.65715    16.101582   -490.56506   -474.46348    2996.4359    29439.347    36689.903   -57139.942      15.2149      13.1765      28.7324    5760.2466 
  968500      968.487    383.32081    16.004037   -490.46386   -474.45982    2899.6021    31185.641    35051.689   -57538.524      15.2149      13.1765      28.7324    5760.2466 
  969000      968.987    379.68216     15.85212   -490.31063   -474.45851    2900.4958    29971.355    37714.116   -58983.985      15.2149      13.1765      28.7324    5760.2466 
  969500      969.487    391.13829    16.330425   -490.78642   -474.45599     2264.108    28189.276    37428.853   -58825.806      15.2149      13.1765      28.7324    5760.2466 
  970000      969.987     381.2037    15.915646   -490.37015   -474.45451    1830.9113    27884.493    39074.762   -61466.521      15.2149      13.1765      28.7324    5760.2466 
  970500      970.487    386.57561    16.139929   -490.59301   -474.45308    2728.7079    27979.307    36452.899   -56246.082      15.2149      13.1765      28.7324    5760.2466 
  971000      970.987    375.13767    15.662383   -490.11325   -474.45086    2520.2608    30150.753    34258.912   -56848.883      15.2149      13.1765      28.7324    5760.2466 
  971500      971.487    369.23365    15.415884   -489.86373   -474.44785     1641.297    29871.577    33958.342   -58906.027      15.2149      13.1765      28.7324    5760.2466 
  972000      971.987     356.3789    14.879185   -489.32346   -474.44428    3366.1539    30838.861    34145.205   -54885.604      15.2149      13.1765      28.7324    5760.2466 
  972500      972.487    378.23202    15.791575    -490.2346   -474.44302    2645.7337    28702.263    34824.881   -55589.943      15.2149      13.1765      28.7324    5760.2466 
  973000      972.987    370.57578     15.47192   -489.91274   -474.44082    2786.8757    31131.734    32450.542   -55221.648      15.2149      13.1765      28.7324    5760.2466 
  973500      973.487    373.84199    15.608287   -490.04541   -474.43712    537.40908    27600.255    34953.698   -60941.726      15.2149      13.1765      28.7324    5760.2466 
  974000      973.987    359.19969    14.996956   -489.43124   -474.43428    3010.8819    31717.939    35039.999   -57725.292      15.2149      13.1765      28.7324    5760.2466 
  974500      974.487    381.70905    15.936745   -490.37042   -474.43368    1763.7502    33995.251    29652.972   -58356.972      15.2149      13.1765      28.7324    5760.2466 
  975000      974.987    362.13807    15.119636   -489.54777   -474.42813    1099.5303    25453.107    37742.839   -59897.355      15.2149      13.1765      28.7324    5760.2466 
  975500      975.487    378.85548    15.817605   -490.24515   -474.42755    2030.6625    27456.854    36319.558   -57684.424      15.2149      13.1765      28.7324    5760.2466 
  976000      975.987    359.20537    14.997193   -489.42089    -474.4237    2373.1306    29534.657    35568.935     -57984.2      15.2149      13.1765      28.7324    5760.2466 
  976500      976.487    378.62858    15.808132   -490.22989   -474.42175    1333.5088    28398.021    33567.195    -57964.69      15.2149      13.1765      28.7324    5760.2466 
  977000      976.987    351.70396    14.684001   -489.10244   -474.41844    3080.9033    32033.292    43737.846   -66528.428      15.2149      13.1765      28.7324    5760.2466 
  977500      977.487    375.19175    15.664641   -490.08258   -474.41794    3080.2961    30156.293     34823.96   -55739.365      15.2149      13.1765      28.7324    5760.2466 
  978000      977.987     373.7658    15.605106   -490.01953   -474.41442    1939.3558    27890.308    37184.068   -59256.309      15.2149      13.1765      28.7324    5760.2466 
  978500      978.487     375.2856    15.668559    -490.0803   -474.41174    2460.5528    27773.196    38789.069   -59180.606      15.2149      13.1765      28.7324    5760.2466 
  979000      978.987    398.87328    16.653369   -491.06394   -474.41057    2945.6852    28006.814    39756.447   -58926.206      15.2149      13.1765      28.7324    5760.2466 
  979500      979.487    365.03061    15.240403    -489.6454   -474.40499     3418.031    31737.275    34228.534   -55711.717      15.2149      13.1765      28.7324    5760.2466 
  980000      979.987    372.42302    15.549044   -489.95316   -474.40411    3795.0741    31652.477    32896.491   -53163.746      15.2149      13.1765      28.7324    5760.2466 
  980500      980.487    380.91427    15.903562   -490.30479   -474.40123    3179.9721    27533.838      35241.8   -53235.721      15.2149      13.1765      28.7324    5760.2466 
  981000      980.987     362.2858    15.125804   -489.52185   -474.39605    1574.2175    23832.794    37216.112   -56326.254      15.2149      13.1765      28.7324    5760.2466 
  981500      981.487    390.03411    16.284324   -490.67831   -474.39399    2256.7581    27478.432    33245.369   -53953.526      15.2149      13.1765      28.7324    5760.2466 
  982000      981.987    366.77457    15.313215   -489.70204   -474.38882    2248.2416    27206.092    36615.108   -57076.475      15.2149      13.1765      28.7324    5760.2466 
  982500      982.487    379.43171    15.841664   -490.22872   -474.38706    1772.8249    27666.988    36201.686   -58550.199      15.2149      13.1765      28.7324    5760.2466 
  983000      982.987    370.68873    15.476635   -489.86131   -474.38468    1491.5414    28078.459     33623.54   -57227.375      15.2149      13.1765      28.7324    5760.2466 
  983500      983.487      380.217     15.87445   -490.25546   -474.38101    1472.9644    27146.203    35219.769   -57947.079      15.2149      13.1765      28.7324    5760.2466 
  984000      983.987    358.93593    14.985944   -489.36202   -474.37608    3264.8335    28751.125    34262.166   -53218.791      15.2149      13.1765      28.7324    5760.2466 
  984500      984.487    384.50004    16.053272   -490.42621   -474.37294    1568.3435    25021.956    41963.523   -62280.449      15.2149      13.1765      28.7324    5760.2466 
  985000      984.987    381.50938    15.928408   -490.30026   -474.37185    3104.9073    30381.106    36719.113   -57785.497      15.2149      13.1765      28.7324    5760.2466 
  985500      985.487    397.45587    16.594191   -490.96343   -474.36924     1168.252    25787.687    36090.308   -58373.239      15.2149      13.1765      28.7324    5760.2466 
  986000      985.987    349.44495    14.589686   -488.95227   -474.36259    2879.3525    28882.498    33632.719    -53877.16      15.2149      13.1765      28.7324    5760.2466 
  986500      986.487    384.50985    16.053681   -490.41466   -474.36098    2349.9315     28877.35    32633.268   -54460.824      15.2149      13.1765      28.7324    5760.2466 
  987000      986.987      381.611    15.932651   -490.29041   -474.35776    2251.5344    29873.804    36905.772   -60024.973      15.2149      13.1765      28.7324    5760.2466 
  987500      987.487    367.19016    15.330566   -489.68465   -474.35408    2326.3839    25323.224     39516.86   -57860.933      15.2149      13.1765      28.7324    5760.2466 
  988000      987.987    358.22651    14.956325   -489.30652    -474.3502    2786.2805    25963.407    38938.834   -56543.399      15.2149      13.1765      28.7324    5760.2466 
  988500      988.487    377.93534    15.779189   -490.12643   -474.34725     2877.475    29603.015    34323.209     -55293.8      15.2149      13.1765      28.7324    5760.2466 
  989000      988.987    356.92548    14.902005   -489.24393   -474.34192    3012.0792    28915.156    33238.297   -53117.216      15.2149      13.1765      28.7324    5760.2466 
  989500      989.487    382.11216    15.953575   -490.29186   -474.33829    1904.4253    28289.113    32403.876   -54979.713      15.2149      13.1765      28.7324    5760.2466 
  990000      989.987      365.607    15.264468   -489.59909   -474.33462    3530.9293    26483.064    36531.623   -52421.899      15.2149      13.1765      28.7324    5760.2466 
  990500      990.487    372.73368    15.562014   -489.89411   -474.33209    2797.1165    30141.003    37849.986   -59599.639      15.2149      13.1765      28.7324    5760.2466 
  991000      990.987    380.07799    15.868646    -490.1963   -474.32765    3597.8271    30216.905     36579.38   -56002.803      15.2149      13.1765      28.7324    5760.2466 
  991500      991.487    388.22368    16.208737   -490.53223   -474.32349    2578.0881    30115.874    38517.546   -60899.155      15.2149      13.1765      28.7324    5760.2466 
  992000      991.987    372.70906    15.560986   -489.88003   -474.31904    3219.5543    27336.711    37593.984   -55272.031      15.2149      13.1765      28.7324    5760.2466 
  992500      992.487    371.78132    15.522252   -489.83857   -474.31632    2942.3281    27271.385    37133.669    -55578.07      15.2149      13.1765      28.7324    5760.2466 
  993000      992.987    401.37066    16.757637   -491.07026   -474.31263    2314.6905    26957.156    36409.993   -56423.078      15.2149      13.1765      28.7324    5760.2466 
  993500      993.487    365.80775    15.272849    -489.5815   -474.30865      3112.39    29583.897    36129.772   -56376.499      15.2149      13.1765      28.7324    5760.2466 
  994000      993.987    368.15189    15.370719   -489.67498   -474.30426    3458.7921    29697.483    40286.456   -59607.563      15.2149      13.1765      28.7324    5760.2466 
  994500      994.487    388.53721    16.221827   -490.52342    -474.3016    1480.2975     26811.53    33024.524   -55395.162      15.2149      13.1765      28.7324    5760.2466 
  995000      994.987    375.25696    15.667363   -489.96454   -474.29717    2268.9156    29270.148     39603.05   -62066.451      15.2149      13.1765      28.7324    5760.2466 
  995500      995.487    408.25052    17.044878   -491.33841   -474.29353    1316.6064    25808.443    37189.915   -59048.538      15.2149      13.1765      28.7324    5760.2466 
  996000      995.987     368.1307    15.369835   -489.65774   -474.28791    1645.7335    26150.935    36067.505   -57281.239      15.2149      13.1765      28.7324    5760.2466 
  996500      996.487    377.03909    15.741769   -490.02649   -474.28472    2558.4758    27194.989    40444.068    -59963.63      15.2149      13.1765      28.7324    5760.2466 
  997000      996.987    385.20414    16.082668   -490.36203   -474.27936      2803.58    29258.279    36401.028   -57248.568      15.2149      13.1765      28.7324    5760.2466 
  997500      997.487    385.61808    16.099951   -490.37501   -474.27506    3766.5557    28963.494    34510.102   -52173.929      15.2149      13.1765      28.7324    5760.2466 
  998000      997.987    380.28601    15.877331   -490.14776   -474.27043    3087.2324    28380.286    34164.982   -53283.571      15.2149      13.1765      28.7324    5760.2466 
  998500      998.487    371.59061    15.514289   -489.78045   -474.26616    4354.9342    27918.199     39826.52   -54679.917      15.2149      13.1765      28.7324    5760.2466 
  999000      998.987    397.16362    16.581989   -490.84432   -474.26233    2239.9124    26298.842    34409.427   -53988.532      15.2149      13.1765      28.7324    5760.2466 
  999500      999.487     385.1325    16.079677   -490.33829   -474.25862    2083.6758    26917.458    33246.322   -53912.752      15.2149      13.1765      28.7324    5760.2466 
 1000000      999.987    367.10161    15.326869   -489.57902   -474.25215    2712.7228    29069.036    38908.441   -59839.309      15.2149      13.1765      28.7324    5760.2466 
 1000013         1000    382.73196    15.979452   -490.23256    -474.2531     1898.103    29379.755    37686.092   -61371.538      15.2149      13.1765      28.7324    5760.2466 
Loop time of 884.781 on 28 procs for 1000000 steps with 324 atoms

Performance: 97.651 ns/day, 0.246 hours/ns, 1130.223 timesteps/s
87.6% CPU use with 28 MPI tasks x no OpenMP threads

MPI task timing breakdown:
Section |  min time  |  avg time  |  max time  |%varavg| %total
---------------------------------------------------------------
Pair    | 734.42     | 771.2      | 812.16     |  72.0 | 87.16
Neigh   | 0.00011853 | 0.00015332 | 0.00026532 |   0.2 |  0.00
Comm    | 61.423     | 100.79     | 137.72     | 201.4 | 11.39
Output  | 0.099067   | 0.10196    | 0.12289    |   1.3 |  0.01
Modify  | 5.0295     | 7.568      | 11.327     |  64.4 |  0.86
Other   |            | 5.121      |            |       |  0.58

Nlocal:    11.5714 ave 15 max 9 min
Histogram: 5 6 0 2 0 7 3 0 1 4
Nghost:    661.214 ave 712 max 626 min
Histogram: 7 4 1 1 6 1 0 2 4 2
Neighs:    719.714 ave 983 max 489 min
Histogram: 1 5 2 4 4 4 2 2 1 3
FullNghs:  1439.43 ave 1871 max 1095 min
Histogram: 5 3 3 2 1 6 2 1 1 4

Total # of neighbors = 40304
Ave neighs/atom = 124.395
Neighbor list builds = 2
Dangerous builds = 0

write_restart   POSCAR_1x1x1.rest

#unfix    1
#undump   1
Total wall time: 0:14:44
