LAMMPS (7 Dec 2015)
#----------- Initialize Simulation ------------ restart01
#processors	2 2 2
units		metal
boundary	p p p     ## periodic boundary condition  on x y z axis ##
atom_style atomic
#atom_modify map array sort 0 0.0

read_data	POSCAR_1x1x1.lammps
  triclinic box = (0 0 0) to (15.2149 13.1765 28.7324) with tilt (-7.60743 0 0)
  2 by 2 by 7 MPI processor grid
  reading atoms ...
  324 atoms

#----------- Define Potential -----------------
pair_style meam
pair_coeff * * MgAlZn.library.meam Mg Al Zn MgAlZn.parameter.meam Mg Al Zn 	#1=Mg 2=Al 3=Zn	#atoms/mass

#----------- Neighbor List --------------------
neighbor 2.0 bin
neigh_modify delay 10 check yes

#--------------  Run a simulation (minimization) ---------------------------------------
minimize       1.0e-4   1.0e-6   100   1000          #結構優化的條件
WARNING: Resetting reneighboring criteria during minimization (../min.cpp:168)
Neighbor list info ...
  2 neighbor list requests
  update every 1 steps, delay 0 steps, check yes
  max neighbors/atom: 2000, page size: 100000
  master list distance cutoff = 8
  ghost atom cutoff = 8
  binsize = 4 -> bins = 6 4 8
Memory usage per processor = 8.65324 Mbytes
Step Temp E_pair E_mol TotEng Press 
       0            0   -591.82301            0   -591.82301    16940.216 
      13            0   -607.50503            0   -607.50503    11469.967 
Loop time of 0.0237031 on 28 procs for 13 steps with 324 atoms

88.8% CPU use with 28 MPI tasks x no OpenMP threads

Minimization stats:
  Stopping criterion = energy tolerance
  Energy initial, next-to-last, final = 
        -591.823014004     -607.451835166     -607.505025922
  Force two-norm initial, final = 24.4517 1.33948
  Force max component initial, final = 4.10689 0.356179
  Final line search alpha, max atom move = 0.303418 0.108071
  Iterations, force evaluations = 13 25

MPI task timing breakdown:
Section |  min time  |  avg time  |  max time  |%varavg| %total
---------------------------------------------------------------
Pair    | 0.017831   | 0.020065   | 0.021521   |   0.6 | 84.65
Neigh   | 0          | 0          | 0          |   0.0 |  0.00
Comm    | 0.0013057  | 0.0026923  | 0.0049326  |   1.6 | 11.36
Output  | 0          | 0          | 0          |   0.0 |  0.00
Modify  | 0          | 0          | 0          |   0.0 |  0.00
Other   |            | 0.0009456  |            |       |  3.99

Nlocal:    11.5714 ave 15 max 5 min
Histogram: 1 0 2 4 1 0 3 6 1 10
Nghost:    663.036 ave 722 max 621 min
Histogram: 11 1 0 0 6 2 0 2 3 3
Neighs:    722.25 ave 979 max 308 min
Histogram: 1 1 3 3 0 3 5 3 5 4
FullNghs:  1444.5 ave 1907 max 628 min
Histogram: 1 0 6 1 0 3 5 1 4 7

Total # of neighbors = 40446
Ave neighs/atom = 124.833
Neighbor list builds = 0
Dangerous builds = 0
velocity all  create 393.0 4928459 #rot yes dist gaussian

#--------------  Run a simulation (Relaxation)  ----------------------------------------
fix  1  all  nvt   temp  393.0  393.0  100				#damping constant
#fix  2  all  npt   temp  393.0  393.0  50 iso 0.0 0.0 1000.0
#fix  2  all deform 1 x final 0 15.6906 y final 0 13.5884 z final 0 25.2339 xy final -7.8452 units lattice
#fix  3  all  npt   temp  393.0  393.0  50 z 0.0 0.0 1000.0

#variable b equal 1
#fix 2 all efield  0.0  0.0  v_b
#compute pot all pe/atom


#----------- Output --------------------------
thermo	 500
timestep  0.001		#1.0 fs
thermo_style	custom step time temp ke pe etotal press pxx pyy pzz lx ly lz vol

dump 1 all custom 10000 dump.eq id type x y z
dump_modify 1 sort  id

run        1000000	#10000	 ps
Neighbor list info ...
  2 neighbor list requests
  update every 1 steps, delay 10 steps, check yes
  max neighbors/atom: 2000, page size: 100000
  master list distance cutoff = 8
  ghost atom cutoff = 8
  binsize = 4 -> bins = 6 4 8
Memory usage per processor = 7.54372 Mbytes
Step Time Temp KinEng PotEng TotEng Press Pxx Pyy Pzz Lx Ly Lz Volume 
      13            0          393    16.408154   -607.50503   -591.09687    14512.517    31208.666    45284.888   -32956.002      15.2149      13.1765      28.7324    5760.2466 
     500        0.487    201.76784    8.4240147   -599.51411   -591.09009    15440.843    35328.945    50481.648   -39488.064      15.2149      13.1765      28.7324    5760.2466 
    1000        0.987       210.23    8.7773185   -599.86663   -591.08931    15530.284    35809.926    49963.432   -39182.507      15.2149      13.1765      28.7324    5760.2466 
    1500        1.487    213.63108    8.9193169   -600.00871   -591.08939    16901.234    36688.284    52101.963   -38086.547      15.2149      13.1765      28.7324    5760.2466 
    2000        1.987    214.06881    8.9375928   -600.02564   -591.08805    16121.136    37493.534    47426.848   -36556.973      15.2149      13.1765      28.7324    5760.2466 
    2500        2.487    219.41758    9.1609091   -600.24916   -591.08825    15100.214    34287.419    53146.475   -42133.253      15.2149      13.1765      28.7324    5760.2466 
    3000        2.987    217.50706     9.081143    -600.1678   -591.08665    17492.325    38073.051    54089.909   -39685.985      15.2149      13.1765      28.7324    5760.2466 
    3500        3.487    226.26182    9.4466633   -600.53215   -591.08549    17079.388    33777.182    49821.316   -32360.333      15.2149      13.1765      28.7324    5760.2466 
    4000        3.987      221.745    9.2580814   -600.34229   -591.08421    17110.884    39144.358    49360.628   -37172.334      15.2149      13.1765      28.7324    5760.2466 
    4500        4.487    218.02609     9.102813   -600.18557   -591.08275    15968.101    36307.798    48472.948   -36876.442      15.2149      13.1765      28.7324    5760.2466 
    5000        4.987    210.12327    8.7728621   -599.85252   -591.07965     16268.57    36904.038    52463.281   -40561.609      15.2149      13.1765      28.7324    5760.2466 
    5500        5.487    219.19463    9.1516009   -600.22929   -591.07769    15473.033    34512.703    50276.024   -38369.628      15.2149      13.1765      28.7324    5760.2466 
    6000        5.987    229.39113    9.5773154   -600.65265   -591.07533    16676.806    35952.193    47872.235   -33794.009      15.2149      13.1765      28.7324    5760.2466 
    6500        6.487    210.80427    8.8012947   -599.87395   -591.07265    17708.477    36251.789    50073.409   -33199.768      15.2149      13.1765      28.7324    5760.2466 
    7000        6.987    220.41058    9.2023681   -600.27302   -591.07065    17696.119    36155.228    51424.571   -34491.442      15.2149      13.1765      28.7324    5760.2466 
    7500        7.487    213.75023    8.9242916    -599.9919    -591.0676    17166.547    37441.899    49673.768   -35616.027      15.2149      13.1765      28.7324    5760.2466 
    8000        7.987    214.03351     8.936119   -599.99993   -591.06381    17977.744    36959.403    49447.127   -32473.299      15.2149      13.1765      28.7324    5760.2466 
    8500        8.487    225.22866    9.4035278   -600.46446   -591.06093    16494.326    38442.713    52412.016   -41371.752      15.2149      13.1765      28.7324    5760.2466 
    9000        8.987    218.20614    9.1103306   -600.16796   -591.05763    15820.148    37394.367    49591.024   -39524.947      15.2149      13.1765      28.7324    5760.2466 
    9500        9.487    222.30598    9.2815028   -600.33534   -591.05384    15295.912     36194.33    45389.526   -35696.121      15.2149      13.1765      28.7324    5760.2466 
   10000        9.987     223.6937    9.3394418    -600.3888   -591.04936    16005.431    36342.755     46690.59   -35017.054      15.2149      13.1765      28.7324    5760.2466 
   10500       10.487    212.77124    8.8834178   -599.92831   -591.04489    15257.587    35969.586    48819.392   -39016.217      15.2149      13.1765      28.7324    5760.2466 
   11000       10.987    215.68835    9.0052101   -600.04579   -591.04058    17161.016    37687.091    50816.926   -37020.969      15.2149      13.1765      28.7324    5760.2466 
   11500       11.487    215.80112    9.0099183   -600.04634   -591.03642    16751.569    38810.489      48641.3   -37197.083      15.2149      13.1765      28.7324    5760.2466 
   12000       11.987    215.06079    8.9790088   -600.00981   -591.03081    16636.655    37205.785    51121.426   -38417.244      15.2149      13.1765      28.7324    5760.2466 
   12500       12.487    216.93169    9.0571206   -600.08398   -591.02686    16441.926    40546.053    48609.548   -39829.825      15.2149      13.1765      28.7324    5760.2466 
   13000       12.987    218.33555    9.1157334   -600.13704   -591.02131    14951.252    35354.044     48909.98   -39410.268      15.2149      13.1765      28.7324    5760.2466 
   13500       13.487     223.4884    9.3308702   -600.34663   -591.01576    16471.756      42635.4    47056.553   -40276.685      15.2149      13.1765      28.7324    5760.2466 
   14000       13.987    221.21568    9.2359818   -600.24653   -591.01055    16942.873    37109.837    46848.888   -33130.106      15.2149      13.1765      28.7324    5760.2466 
   14500       14.487    203.81183     8.509353   -599.51288   -591.00352    17107.072    37996.883    53697.375   -40373.042      15.2149      13.1765      28.7324    5760.2466 
   15000       14.987    222.53219    9.2909474   -600.28978   -590.99883    16847.649    40167.009    46778.962   -36403.023      15.2149      13.1765      28.7324    5760.2466 
   15500       15.487    207.98929    8.6837664   -599.67578   -590.99201    16709.368    38596.391    51653.879   -40122.167      15.2149      13.1765      28.7324    5760.2466 
   16000       15.987    216.49635     9.038945    -600.0243   -590.98535    16729.145    39319.306    50774.839   -39906.709      15.2149      13.1765      28.7324    5760.2466 
   16500       16.487    222.82641    9.3032313   -600.28321   -590.97998    15907.048    35589.882    47878.643    -35747.38      15.2149      13.1765      28.7324    5760.2466 
   17000       16.987     216.0518    9.0203845   -599.99368    -590.9733    17072.401    38429.207    51044.417    -38256.42      15.2149      13.1765      28.7324    5760.2466 
   17500       17.487    204.03783    8.5187889   -599.48396   -590.96517    18365.106    41479.302    52856.999   -39240.984      15.2149      13.1765      28.7324    5760.2466 
   18000       17.987    219.47831    9.1634446    -600.1222   -590.95875    17077.048    38402.276    52173.164   -39344.294      15.2149      13.1765      28.7324    5760.2466 
   18500       18.487     230.1341     9.608335    -600.5596   -590.95126    17366.487    37368.191    52612.754   -37881.485      15.2149      13.1765      28.7324    5760.2466 
   19000       18.987    209.20906    8.7346933    -599.6782    -590.9435    16838.152    35103.233    51726.609   -36315.385      15.2149      13.1765      28.7324    5760.2466 
   19500       19.487    222.58316    9.2930755   -600.22916   -590.93608    16926.718    38776.155    49412.173   -37408.174      15.2149      13.1765      28.7324    5760.2466 
   20000       19.987    223.90603    9.3483065   -600.27634   -590.92803    17485.008    39344.268    49037.253   -35926.498      15.2149      13.1765      28.7324    5760.2466 
   20500       20.487    200.91306    8.3883266   -599.30704   -590.91871    15881.577    38671.071    49291.036   -40317.375      15.2149      13.1765      28.7324    5760.2466 
   21000       20.987    209.07607    8.7291406   -599.63953   -590.91039    16949.476    39563.736    47656.711   -36372.019      15.2149      13.1765      28.7324    5760.2466 
   21500       21.487    221.62774    9.2531856   -600.15541   -590.90223    16262.471    36804.161    48599.324   -36616.072      15.2149      13.1765      28.7324    5760.2466 
   22000       21.987     227.6723    9.5055522   -600.39949   -590.89393    16295.922    39123.129    53488.653   -43724.017      15.2149      13.1765      28.7324    5760.2466 
   22500       22.487    219.45986    9.1626746    -600.0476   -590.88492    16627.227    41841.234    47208.743   -39168.295      15.2149      13.1765      28.7324    5760.2466 
   23000       22.987    229.49002    9.5814439   -600.45769   -590.87625    15493.149    39472.895    51152.142   -44145.589      15.2149      13.1765      28.7324    5760.2466 
   23500       23.487    222.30915    9.2816352   -600.14816   -590.86653    16222.095    39814.566      47691.3    -38839.58      15.2149      13.1765      28.7324    5760.2466 
   24000       23.987     217.0979    9.0640603   -599.92085   -590.85679    17140.439    39251.263    50448.474    -38278.42      15.2149      13.1765      28.7324    5760.2466 
   24500       24.487    218.82553    9.1361906   -599.98314   -590.84695      15246.2    38191.041    48156.916   -40609.356      15.2149      13.1765      28.7324    5760.2466 
   25000       24.987    220.28426    9.1970942   -600.03453   -590.83744    16357.933    37531.745    50194.156     -38652.1      15.2149      13.1765      28.7324    5760.2466 
   25500       25.487    210.80414    8.8012892   -599.62898   -590.82769    16168.101    38211.861      51865.1   -41572.659      15.2149      13.1765      28.7324    5760.2466 
   26000       25.987    228.18022    9.5267586   -600.34457   -590.81781    17159.437     37910.68    49671.501    -36103.87      15.2149      13.1765      28.7324    5760.2466 
   26500       26.487    212.15762    8.8577985   -599.66401   -590.80621    15281.403    38736.977    43368.283   -36261.051      15.2149      13.1765      28.7324    5760.2466 
   27000       26.987    215.84521     9.011759   -599.80766    -590.7959     16761.07    39683.573    49501.607    -38901.97      15.2149      13.1765      28.7324    5760.2466 
   27500       27.487    231.36713    9.6598152    -600.4463   -590.78648     16596.23    38569.406    47861.498   -36642.213      15.2149      13.1765      28.7324    5760.2466 
   28000       27.987    226.88254    9.4725791   -600.24804   -590.77546    16963.775    41933.381    45420.961   -36463.017      15.2149      13.1765      28.7324    5760.2466 
   28500       28.487     222.7812     9.301344   -600.06556   -590.76422     16642.03    37556.636     51645.42   -39275.965      15.2149      13.1765      28.7324    5760.2466 
   29000       28.987    227.85834    9.5133198   -600.26749   -590.75417    17401.034    35702.016    54313.908   -37812.821      15.2149      13.1765      28.7324    5760.2466 
   29500       29.487    211.59202    8.8341842   -599.57546   -590.74128    16458.724    38555.412    49547.338   -38726.578      15.2149      13.1765      28.7324    5760.2466 
   30000       29.987    234.88484    9.8066833   -600.53729   -590.73061     15801.78    36555.857    48859.252   -38009.768      15.2149      13.1765      28.7324    5760.2466 
   30500       30.487    218.84185    9.1368718   -599.85572   -590.71884     17683.86     38763.72    53289.931    -39002.07      15.2149      13.1765      28.7324    5760.2466 
   31000       30.987    216.87047    9.0545648   -599.76129   -590.70672    16333.532    33539.927    51639.667   -36178.998      15.2149      13.1765      28.7324    5760.2466 
   31500       31.487    233.32034    9.7413637   -600.43656   -590.69519    16001.617    39743.221    50212.317   -41950.688      15.2149      13.1765      28.7324    5760.2466 
   32000       31.987    208.64746    8.7112456   -599.39367   -590.68242    16090.283    39654.805     52552.37   -43936.327      15.2149      13.1765      28.7324    5760.2466 
   32500       32.487     220.2839    9.1970792   -599.86863   -590.67155    16450.235    38035.644    50448.807   -39133.745      15.2149      13.1765      28.7324    5760.2466 
   33000       32.987    225.57589    9.4180251   -600.07768   -590.65966    16584.632    35145.998     49702.89   -35094.993      15.2149      13.1765      28.7324    5760.2466 
   33500       33.487    217.53213    9.0821899   -599.72924   -590.64705    17783.897    39604.216    50362.903    -36615.43      15.2149      13.1765      28.7324    5760.2466 
   34000       33.987    222.75867    9.3004033   -599.93549   -590.63509     16424.64    37671.421    53052.254   -41449.755      15.2149      13.1765      28.7324    5760.2466 
   34500       34.487    224.27648    9.3637731   -599.98581   -590.62204    17150.267    38895.087    47086.328   -34530.615      15.2149      13.1765      28.7324    5760.2466 
   35000       34.987      218.197    9.1099489   -599.71944   -590.60949    16509.384    39609.222    51621.821   -41702.892      15.2149      13.1765      28.7324    5760.2466 
   35500       35.487     217.1401    9.0658221   -599.66276   -590.59694     16280.65    37797.449    52506.854   -41462.352      15.2149      13.1765      28.7324    5760.2466 
   36000       35.987    221.15633    9.2335039    -599.8181    -590.5846    16104.561    38210.526     50617.34   -40514.183      15.2149      13.1765      28.7324    5760.2466 
   36500       36.487    225.81544    9.4280265   -600.00112   -590.57309    17777.663    37089.116    51864.397   -35620.525      15.2149      13.1765      28.7324    5760.2466 
   37000       36.987    225.57987    9.4181913   -599.97735   -590.55916    17244.055    38755.319     49815.34   -36838.494      15.2149      13.1765      28.7324    5760.2466 
   37500       37.487    220.16596     9.192155   -599.73867   -590.54651    16835.201     37780.36    48245.253   -35520.009      15.2149      13.1765      28.7324    5760.2466 
   38000       37.987    206.05148    8.6028607   -599.13629   -590.53343    16804.621    37134.465    53093.188   -39813.789      15.2149      13.1765      28.7324    5760.2466 
   38500       38.487    221.28795     9.238999   -599.76008   -590.52108    14922.846    37927.419    52633.842   -45792.724      15.2149      13.1765      28.7324    5760.2466 
   39000       38.987    228.07024    9.5221669   -600.03082   -590.50865    18509.246    36119.507    51303.139   -31894.908      15.2149      13.1765      28.7324    5760.2466 
   39500       39.487    221.49077     9.247467   -599.74318   -590.49572     16479.47    40374.792    45661.696   -36598.077      15.2149      13.1765      28.7324    5760.2466 
   40000       39.987    224.07055    9.3551754   -599.83753   -590.48236    17024.546    39076.338    53057.771   -41060.471      15.2149      13.1765      28.7324    5760.2466 
   40500       40.487    226.31495    9.4488817   -599.91875   -590.46987    16817.601    37336.332    48126.459    -35009.99      15.2149      13.1765      28.7324    5760.2466 
   41000       40.987    223.27589    9.3219976   -599.77805   -590.45605    16262.947    39938.128    49968.533   -41117.819      15.2149      13.1765      28.7324    5760.2466 
   41500       41.487    221.74026    9.2578835   -599.70081   -590.44293    16518.775    38955.998    48207.404   -37607.075      15.2149      13.1765      28.7324    5760.2466 
   42000       41.987     230.2761    9.6142637    -600.0446   -590.43034    16828.741    38782.929    52867.271   -41163.976      15.2149      13.1765      28.7324    5760.2466 
   42500       42.487    225.58765    9.4185159   -599.83634   -590.41783    17140.725    38659.869    52286.575    -39524.27      15.2149      13.1765      28.7324    5760.2466 
   43000       42.987    211.26275    8.8204367    -599.2244   -590.40396    16676.351    37973.529    52860.272   -40804.749      15.2149      13.1765      28.7324    5760.2466 
   43500       43.487    221.86899    9.2632583   -599.65413   -590.39087    17441.244    35937.434    55262.978   -38876.679      15.2149      13.1765      28.7324    5760.2466 
   44000       43.987    223.97421    9.3511533   -599.72883   -590.37768    17710.366    39520.931    52347.678    -38737.51      15.2149      13.1765      28.7324    5760.2466 
   44500       44.487    226.88705    9.4727674   -599.83776   -590.36499     17022.15    36992.429    55382.773   -41308.751      15.2149      13.1765      28.7324    5760.2466 
   45000       44.987     227.9221    9.5159816   -599.86827   -590.35229    18140.524    39603.429    54682.221   -39864.078      15.2149      13.1765      28.7324    5760.2466 
   45500       45.487    221.03851    9.2285847   -599.56719   -590.33861    16565.658    37732.166    52790.399   -40825.592      15.2149      13.1765      28.7324    5760.2466 
   46000       45.987    230.74548    9.6338608   -599.95941   -590.32555    18165.305    38414.075     50532.56   -34450.718      15.2149      13.1765      28.7324    5760.2466 
   46500       46.487    215.93952    9.0156969    -599.3285    -590.3128    17435.072    34520.658    55237.097   -37452.537      15.2149      13.1765      28.7324    5760.2466 
   47000       46.987    240.22445    10.029617   -600.33084   -590.30122    17407.918    40291.124    51822.307   -39889.678      15.2149      13.1765      28.7324    5760.2466 
   47500       47.487    221.16756    9.2339726   -599.52201   -590.28804    17173.745    37797.447    52534.691   -38810.903      15.2149      13.1765      28.7324    5760.2466 
   48000       47.987    225.68346    9.4225163    -599.6974   -590.27488    14999.199     39978.07    47900.342   -42880.814      15.2149      13.1765      28.7324    5760.2466 
   48500       48.487     228.6411    9.5460007   -599.80942   -590.26342    17166.887    35020.376    52844.781   -36364.495      15.2149      13.1765      28.7324    5760.2466 
   49000       48.987    237.89296    9.9322754   -600.18197    -590.2497    16679.133    38141.906    51560.388   -39664.895      15.2149      13.1765      28.7324    5760.2466 
   49500       49.487    236.48345    9.8734268   -600.11074   -590.23731    18371.916    39560.487    53553.738   -37998.477      15.2149      13.1765      28.7324    5760.2466 
   50000       49.987    220.62805    9.2114474   -599.43568   -590.22423    16732.382    35197.776    54381.459   -39382.087      15.2149      13.1765      28.7324    5760.2466 
   50500       50.487    226.88435    9.4726546   -599.68477   -590.21212    16540.747    39555.255    50881.945   -40814.959      15.2149      13.1765      28.7324    5760.2466 
   51000       50.987    226.30735    9.4485644   -599.64809   -590.19953    16331.187    35583.921    49881.961   -36472.321      15.2149      13.1765      28.7324    5760.2466 
   51500       51.487    238.31075    9.9497185   -600.13727   -590.18755     16123.07    37871.467    50319.141   -39821.397      15.2149      13.1765      28.7324    5760.2466 
   52000       51.987    228.63124    9.5455891   -599.72123   -590.17565    17196.403    36496.708    49635.447   -34542.946      15.2149      13.1765      28.7324    5760.2466 
   52500       52.487    232.70125     9.715516   -599.87982   -590.16431    16173.792    35226.526    52998.786   -39703.935      15.2149      13.1765      28.7324    5760.2466 
   53000       52.987    246.44177    10.289197   -600.44099    -590.1518    17470.703    40216.857    52214.305   -40019.054      15.2149      13.1765      28.7324    5760.2466 
   53500       53.487    234.22102    9.7789682   -599.91847    -590.1395    17451.135     34519.52    54359.918   -36526.033      15.2149      13.1765      28.7324    5760.2466 
   54000       53.987    233.29034    9.7401113   -599.86768   -590.12757    16226.221    36829.343    52206.231    -40356.91      15.2149      13.1765      28.7324    5760.2466 
   54500       54.487    220.47669    9.2051283   -599.32056   -590.11543    17150.618    40768.997    52957.301   -42274.445      15.2149      13.1765      28.7324    5760.2466 
   55000       54.987     249.0434    10.397818    -600.5027   -590.10489    17459.759    35953.977      52660.1     -36234.8      15.2149      13.1765      28.7324    5760.2466 
   55500       55.487    230.50941    9.6240047   -599.71697   -590.09296    14737.412    35141.215    51286.891   -42215.871      15.2149      13.1765      28.7324    5760.2466 
   56000       55.987     230.8109    9.6365922   -599.71747   -590.08087     16451.89    38356.594    53465.251   -42466.176      15.2149      13.1765      28.7324    5760.2466 
   56500       56.487    225.18856    9.4018535   -599.47043   -590.06857    16014.457    37884.582    51570.123   -41411.335      15.2149      13.1765      28.7324    5760.2466 
   57000       56.987    222.99461    9.3102539   -599.36798   -590.05773    15495.662    35684.827    51952.626   -41150.468      15.2149      13.1765      28.7324    5760.2466 
   57500       57.487     232.3217    9.6996694   -599.74637    -590.0467    16019.351    36623.697    50846.325    -39411.97      15.2149      13.1765      28.7324    5760.2466 
   58000       57.987    236.81922    9.8874458   -599.92425   -590.03681    17002.951     34416.21    52314.741   -35722.097      15.2149      13.1765      28.7324    5760.2466 
   58500       58.487    236.09013    9.8570052   -599.88095   -590.02394    16918.517    36296.689     53395.76   -38936.898      15.2149      13.1765      28.7324    5760.2466 
   59000       58.987    219.78724     9.176343   -599.18886   -590.01252    17234.054      38054.6    53256.494   -39608.933      15.2149      13.1765      28.7324    5760.2466 
   59500       59.487    223.40893    9.3275524   -599.32818   -590.00062    16097.752    37583.736    50038.044   -39328.525      15.2149      13.1765      28.7324    5760.2466 
   60000       59.987    229.22645    9.5704396   -599.56066   -589.99022    16801.666    37185.457    54574.088   -41354.547      15.2149      13.1765      28.7324    5760.2466 
   60500       60.487    235.00403    9.8116597   -599.79112   -589.97946    16848.402    38479.943    50967.604   -38902.341      15.2149      13.1765      28.7324    5760.2466 
   61000       60.987    223.28968    9.3225735   -599.29098    -589.9684     17303.86    41408.914    48703.906   -38201.239      15.2149      13.1765      28.7324    5760.2466 
   61500       61.487     222.7973     9.302016   -599.25907   -589.95705    17490.478    37955.153    52959.934   -38443.654      15.2149      13.1765      28.7324    5760.2466 
   62000       61.987    230.47819    9.6227012   -599.56787   -589.94517    16252.119    36556.582    49876.231   -37676.455      15.2149      13.1765      28.7324    5760.2466 
   62500       62.487    249.34276    10.410316   -600.34626   -589.93595     17702.05    37594.766    51536.965   -36025.582      15.2149      13.1765      28.7324    5760.2466 
   63000       62.987    239.30723    9.9913224    -599.9152   -589.92388    16534.918    40272.163    47771.129   -38438.539      15.2149      13.1765      28.7324    5760.2466 
   63500       63.487    246.04656    10.272697   -600.18641   -589.91371     16136.88    36020.277    51418.515   -39028.153      15.2149      13.1765      28.7324    5760.2466 
   64000       63.987    232.40139    9.7029967   -599.60536   -589.90236    17778.456    36079.491     53685.66   -36429.782      15.2149      13.1765      28.7324    5760.2466 
   64500       64.487    229.39374    9.5774244   -599.46815   -589.89073    16420.344    35505.572    50576.661     -36821.2      15.2149      13.1765      28.7324    5760.2466 
   65000       64.987    228.04151    9.5209674    -599.4015   -589.88054    15751.483    34532.863    51764.293   -39042.708      15.2149      13.1765      28.7324    5760.2466 
   65500       65.487    229.28929    9.5730632   -599.44312   -589.87006    18191.731      39786.4    51272.896   -36484.102      15.2149      13.1765      28.7324    5760.2466 
   66000       65.987    234.42595    9.7875241   -599.64578   -589.85826    17817.145    42464.882    49986.183   -38999.629      15.2149      13.1765      28.7324    5760.2466 
   66500       66.487    226.60921     9.461167   -599.30948   -589.84831    16747.964    40395.702    50416.201    -40568.01      15.2149      13.1765      28.7324    5760.2466 
   67000       66.987    242.06148    10.106315   -599.94492   -589.83861    18231.796    38709.205    53601.388   -37615.204      15.2149      13.1765      28.7324    5760.2466 
   67500       67.487    231.78104    9.6770962   -599.50452   -589.82742    17554.178    38358.517    52776.299   -38472.282      15.2149      13.1765      28.7324    5760.2466 
   68000       67.987    245.36544    10.244259     -600.061   -589.81674    18627.299    40254.019    54641.012   -39013.136      15.2149      13.1765      28.7324    5760.2466 
   68500       68.487      224.369     9.367636   -599.17211   -589.80447    18044.287    38416.046    52896.102   -37179.285      15.2149      13.1765      28.7324    5760.2466 
   69000       68.987    225.77087    9.4261657   -599.22078   -589.79462    17071.503    37854.561    50471.026   -37111.077      15.2149      13.1765      28.7324    5760.2466 
   69500       69.487    241.66317    10.089685   -599.87453   -589.78484    18152.545    39737.154    52972.858   -38252.377      15.2149      13.1765      28.7324    5760.2466 
   70000       69.987    236.37007    9.8686932   -599.64222   -589.77353    14871.333    34256.232    52043.198   -41685.432      15.2149      13.1765      28.7324    5760.2466 
   70500       70.487    232.79175    9.7192944    -599.4827   -589.76341     17308.12    38581.117    50894.274    -37551.03      15.2149      13.1765      28.7324    5760.2466 
   71000       70.987    230.79965    9.6361225    -599.3887   -589.75258    16556.847    37909.745    48763.654    -37002.86      15.2149      13.1765      28.7324    5760.2466 
   71500       71.487    247.49789    10.333291   -600.07516   -589.74187    16589.545    38933.743    48554.375   -37719.482      15.2149      13.1765      28.7324    5760.2466 
   72000       71.987    237.86111    9.9309457   -599.66166   -589.73071    16295.676    37328.806    50965.517   -39407.296      15.2149      13.1765      28.7324    5760.2466 
   72500       72.487     228.4709    9.5388947   -599.25907   -589.72018    15976.794    37212.976    48146.302   -37428.896      15.2149      13.1765      28.7324    5760.2466 
   73000       72.987    233.54602    9.7507861      -599.46   -589.70921    15648.813     36621.24     52494.18   -42168.982      15.2149      13.1765      28.7324    5760.2466 
   73500       73.487    236.69188    9.8821289   -599.58141   -589.69928    16496.346    40407.906    52755.007   -43673.875      15.2149      13.1765      28.7324    5760.2466 
   74000       73.987    219.56607    9.1671089   -598.85434   -589.68724    16914.439    39352.499    50807.383   -39416.564      15.2149      13.1765      28.7324    5760.2466 
   74500       74.487    244.61815    10.213059   -599.89075    -589.6777    17256.891    39680.877    48372.576   -36282.781      15.2149      13.1765      28.7324    5760.2466 
   75000       74.987    233.33361    9.7419179   -599.40837   -589.66645    16890.894    37261.863    50894.412   -37483.591      15.2149      13.1765      28.7324    5760.2466 
   75500       75.487    225.72817    9.4243828   -599.07969   -589.65531    16064.993    37472.971     45402.66   -34680.652      15.2149      13.1765      28.7324    5760.2466 
   76000       75.987    240.10516    10.024637   -599.67059   -589.64596    15625.269    41317.361    46866.223   -41307.775      15.2149      13.1765      28.7324    5760.2466 
   76500       76.487    226.11998    9.4407414   -599.07533   -589.63459    17227.828    37697.355     50467.07   -36480.942      15.2149      13.1765      28.7324    5760.2466 
   77000       76.987    228.52461     9.541137   -599.16359   -589.62245    17412.041    37300.186    50352.598   -35416.661      15.2149      13.1765      28.7324    5760.2466 
   77500       77.487    240.28862    10.032297   -599.64573   -589.61343    16358.302    39018.265    52019.608   -41962.967      15.2149      13.1765      28.7324    5760.2466 
   78000       77.987    246.60473    10.296001    -599.8981    -589.6021    16320.469    35744.307    54211.245   -40994.144      15.2149      13.1765      28.7324    5760.2466 
   78500       78.487    229.04843    9.5630071   -599.15388   -589.59087    17959.903    37001.102     52437.93   -35559.322      15.2149      13.1765      28.7324    5760.2466 
   79000       78.987     252.9819    10.562254    -600.1438   -589.58154    17645.307    39074.656    51682.113   -37820.847      15.2149      13.1765      28.7324    5760.2466 
   79500       79.487    228.93564    9.5582981   -599.12715   -589.56885    15685.635    42087.593    47840.961   -42871.649      15.2149      13.1765      28.7324    5760.2466 
   80000       79.987    235.27659    9.8230393   -599.38149   -589.55845    15093.371    36258.765     51775.46   -42754.111      15.2149      13.1765      28.7324    5760.2466 
   80500       80.487    232.40054    9.7029612   -599.24923   -589.54626     14599.66    35194.627    46263.645   -37659.291      15.2149      13.1765      28.7324    5760.2466 
   81000       80.987    235.29949    9.8239951   -599.36035   -589.53635    17644.966    37881.812    47580.241   -32527.156      15.2149      13.1765      28.7324    5760.2466 
   81500       81.487    239.14191    9.9844205    -599.5095   -589.52508     16843.73      35295.1    51365.065   -36128.975      15.2149      13.1765      28.7324    5760.2466 
   82000       81.987    243.27547    10.157001   -599.67051   -589.51351    16777.134    35537.474    48227.927   -33433.999      15.2149      13.1765      28.7324    5760.2466 
   82500       82.487    246.74158    10.301714    -599.8042   -589.50249     18271.42     35058.34    52835.161    -33079.24      15.2149      13.1765      28.7324    5760.2466 
   83000       82.987    253.44328    10.581517     -600.073   -589.49148    15735.742    34985.517    51634.916   -39413.207      15.2149      13.1765      28.7324    5760.2466 
   83500       83.487    238.49519    9.9574191   -599.43737   -589.47995    17457.273    35800.651    55970.765   -39399.599      15.2149      13.1765      28.7324    5760.2466 
   84000       83.987     235.9239     9.850065    -599.3177   -589.46764    17319.293    34758.718    53262.373   -36063.214      15.2149      13.1765      28.7324    5760.2466 
   84500       84.487     234.9784    9.8105896   -599.26759     -589.457    15690.267    35096.845    51925.614    -39951.66      15.2149      13.1765      28.7324    5760.2466 
   85000       84.987    237.31928    9.9083236   -599.35381   -589.44549    16450.689    35003.872    49969.223   -35621.028      15.2149      13.1765      28.7324    5760.2466 
   85500       85.487    247.88024    10.349255   -599.78377   -589.43451    16193.799     34796.03    50263.056    -36477.69      15.2149      13.1765      28.7324    5760.2466 
   86000       85.987    237.55531    9.9181782   -599.34048    -589.4223     16510.25    34895.193    51246.361   -36610.804      15.2149      13.1765      28.7324    5760.2466 
   86500       86.487    245.95169    10.268736   -599.67919   -589.41046    15189.844    35958.418    53319.659   -43708.544      15.2149      13.1765      28.7324    5760.2466 
   87000       86.987     236.9027     9.890931   -599.28894   -589.39801    17095.049    37647.469    52425.414   -38787.737      15.2149      13.1765      28.7324    5760.2466 
   87500       87.487    252.13016    10.526693   -599.91387   -589.38718    17376.182    38667.759    51217.719   -37756.933      15.2149      13.1765      28.7324    5760.2466 
   88000       87.987    233.43024    9.7459521     -599.121   -589.37505    16936.154    37127.396    48493.874   -34812.807      15.2149      13.1765      28.7324    5760.2466 
   88500       88.487    230.33218    9.6166052    -598.9797    -589.3631    17459.086    37700.692    50298.274   -35621.709      15.2149      13.1765      28.7324    5760.2466 
   89000       88.987    250.02614    10.438848   -599.79114    -589.3523    17362.363    37159.313    52234.764   -37306.987      15.2149      13.1765      28.7324    5760.2466 
   89500       89.487    242.30498    10.116482   -599.45504   -589.33856    16641.773     34855.25    50342.934   -35272.864      15.2149      13.1765      28.7324    5760.2466 
   90000       89.987    239.61128    10.004017   -599.33086   -589.32684    17115.966    40478.956    50824.523   -39955.582      15.2149      13.1765      28.7324    5760.2466 
   90500       90.487    239.69831     10.00765   -599.32317   -589.31552    16825.754    37267.672    50704.862   -37495.273      15.2149      13.1765      28.7324    5760.2466 
   91000       90.987    246.44728    10.289427   -599.59326   -589.30383    17747.584    37619.185    54239.255   -38615.689      15.2149      13.1765      28.7324    5760.2466 
   91500       91.487    242.98397     10.14483   -599.43531   -589.29048    17599.971    34312.745     51145.38   -32658.212      15.2149      13.1765      28.7324    5760.2466 
   92000       91.987    232.28749    9.6982411   -598.97647   -589.27823    15787.606    35875.402     47763.17   -36275.753      15.2149      13.1765      28.7324    5760.2466 
   92500       92.487    244.75985    10.218975   -599.48531   -589.26634    17016.538    38176.228    51376.528   -38503.142      15.2149      13.1765      28.7324    5760.2466 
   93000       92.987    248.61977    10.380131   -599.63437   -589.25424    17937.947    37556.128    51363.811   -35106.097      15.2149      13.1765      28.7324    5760.2466 
   93500       93.487    237.82912    9.9296099   -599.17056   -589.24095    15580.326    33208.652    50208.813   -36676.485      15.2149      13.1765      28.7324    5760.2466 
   94000       93.987    238.10029    9.9409315    -599.1689   -589.22797    16741.653    37142.407    53915.772    -40833.22      15.2149      13.1765      28.7324    5760.2466 
   94500       94.487    252.85951    10.557144   -599.77298   -589.21584    17064.378    36655.203     53625.88    -39087.95      15.2149      13.1765      28.7324    5760.2466 
   95000       94.987    241.91892    10.100363   -599.30308   -589.20272    16450.585    35419.102     52074.66   -38142.008      15.2149      13.1765      28.7324    5760.2466 
   95500       95.487    231.19594    9.6526677   -598.84198   -589.18931    16285.658    39057.403    50629.462   -40829.892      15.2149      13.1765      28.7324    5760.2466 
   96000       95.987    234.61621    9.7954676   -598.97249   -589.17703    17421.744    36572.919    52329.799   -36637.487      15.2149      13.1765      28.7324    5760.2466 
   96500       96.487    240.73511    10.050938   -599.21537   -589.16443     16344.83    37509.747    51769.832   -40245.089      15.2149      13.1765      28.7324    5760.2466 
   97000       96.987    245.77672     10.26143   -599.41246   -589.15103    17304.103    36377.495    54483.006   -38948.191      15.2149      13.1765      28.7324    5760.2466 
   97500       97.487    252.25723    10.531998   -599.67079   -589.13879    16566.376    36709.921    52299.453   -39310.244      15.2149      13.1765      28.7324    5760.2466 
   98000       97.987    237.81329    9.9289492   -599.05504   -589.12609    17427.494    37464.073    52959.219   -38140.811      15.2149      13.1765      28.7324    5760.2466 
   98500       98.487    250.07948    10.441075   -599.55406   -589.11298    17273.764    40690.601    52977.265   -41846.574      15.2149      13.1765      28.7324    5760.2466 
   99000       98.987    228.04303    9.5210308   -598.61983    -589.0988     17515.36    36683.836    52908.366   -37046.123      15.2149      13.1765      28.7324    5760.2466 
   99500       99.487    230.81082    9.6365888   -598.72268   -589.08609    17405.312    38094.597    53137.723   -39016.383      15.2149      13.1765      28.7324    5760.2466 
  100000       99.987    249.97308    10.436633   -599.50938   -589.07275    16883.708    36859.695    50674.278   -36882.849      15.2149      13.1765      28.7324    5760.2466 
  100500      100.487    251.71801    10.509486   -599.56963   -589.06015    16686.308    38072.973    52559.057   -40573.105      15.2149      13.1765      28.7324    5760.2466 
  101000      100.987    247.90266    10.350191   -599.39643   -589.04624    17249.252    35949.031    48689.673   -32890.946      15.2149      13.1765      28.7324    5760.2466 
  101500      101.487    238.04666    9.9386927   -598.97003   -589.03134    17625.438     38892.47    47530.042   -33546.199      15.2149      13.1765      28.7324    5760.2466 
  102000      101.987    249.87901    10.432705   -599.45177   -589.01907    16036.437    40681.551    50979.243   -43551.482      15.2149      13.1765      28.7324    5760.2466 
  102500      102.487    238.25741    9.9474916   -598.95287   -589.00538    17449.381    39329.724    50267.813   -37249.396      15.2149      13.1765      28.7324    5760.2466 
  103000      102.987     253.2624    10.573965    -599.5667   -588.99273    17923.812    41976.237    49156.528   -37361.331      15.2149      13.1765      28.7324    5760.2466 
  103500      103.487    232.83129    9.7209454    -598.6993   -588.97836    16695.181    35717.766    50513.901   -36146.123      15.2149      13.1765      28.7324    5760.2466 
  104000      103.987    239.72239    10.008656   -598.97439   -588.96574    16347.481    39073.145    50390.308   -40421.009      15.2149      13.1765      28.7324    5760.2466 
  104500      104.487    238.15446    9.9431933   -598.89448   -588.95129    16810.359    36031.003     55303.62   -40903.544      15.2149      13.1765      28.7324    5760.2466 
  105000      104.987    244.38559    10.203349   -599.14123   -588.93789    16407.625     36967.82    50000.349   -37745.294      15.2149      13.1765      28.7324    5760.2466 
  105500      105.487    238.14781    9.9429156   -598.86622    -588.9233    16956.462    41282.254    49370.622    -39783.49      15.2149      13.1765      28.7324    5760.2466 
  106000      105.987    252.37968    10.537111   -599.44738   -588.91027    14719.298    38374.258    50539.904   -44756.267      15.2149      13.1765      28.7324    5760.2466 
  106500      106.487    247.30382    10.325188   -599.22139    -588.8962    16913.934    38485.863    52546.121   -40290.182      15.2149      13.1765      28.7324    5760.2466 
  107000      106.987    247.82478    10.346939   -599.22925   -588.88231     17137.91    35324.046    50169.282   -34079.597      15.2149      13.1765      28.7324    5760.2466 
  107500      107.487    245.32958    10.242762   -599.11106    -588.8683    16649.301    35933.604    49790.825   -35776.525      15.2149      13.1765      28.7324    5760.2466 
  108000      107.987    244.60987    10.212713   -599.06696   -588.85425    16218.436    39059.339    48809.169   -39213.198      15.2149      13.1765      28.7324    5760.2466 
  108500      108.487    245.01891    10.229791    -599.0705   -588.84071    17602.044    40299.815    53076.139   -40569.822      15.2149      13.1765      28.7324    5760.2466 
  109000      108.987    250.02341    10.438734   -599.26553    -588.8268    16452.208    37556.574    51356.011    -39555.96      15.2149      13.1765      28.7324    5760.2466 
  109500      109.487    246.68552    10.299374    -599.1117   -588.81233    18601.253    42628.698    52537.621   -39362.561      15.2149      13.1765      28.7324    5760.2466 
  110000      109.987    250.26199    10.448695   -599.24655   -588.79786    16518.777    37745.858    50134.175   -38323.704      15.2149      13.1765      28.7324    5760.2466 
  110500      110.487    240.75287     10.05168   -598.83565   -588.78397    14913.731    36937.798    50391.578   -42588.183      15.2149      13.1765      28.7324    5760.2466 
  111000      110.987    250.43364    10.455862   -599.22563   -588.76977    15883.469    36718.684    51739.796   -40808.072      15.2149      13.1765      28.7324    5760.2466 
  111500      111.487    244.95805     10.22725     -598.982   -588.75475    18628.021    41637.003    49739.816   -35492.755      15.2149      13.1765      28.7324    5760.2466 
  112000      111.987    241.11718     10.06689   -598.80793   -588.74104     16548.93    34714.309    52214.757   -37282.276      15.2149      13.1765      28.7324    5760.2466 
  112500      112.487    244.33711    10.201325   -598.92766   -588.72633    18046.229    37525.901    54304.238   -37691.451      15.2149      13.1765      28.7324    5760.2466 
  113000      112.987    233.26168    9.7389146   -598.44954   -588.71062    16561.669    40447.827    53286.065   -44048.885      15.2149      13.1765      28.7324    5760.2466 
  113500      113.487    251.38632    10.495637    -599.1927   -588.69706    17209.836    34956.583    54438.589   -37765.664      15.2149      13.1765      28.7324    5760.2466 
  114000      113.987    241.65294    10.089258   -598.77169   -588.68243    16904.349    36385.457    51056.851   -36729.259      15.2149      13.1765      28.7324    5760.2466 
  114500      114.487     245.1235    10.234158    -598.9022   -588.66804    16997.015    38064.263    48367.437   -35440.655      15.2149      13.1765      28.7324    5760.2466 
  115000      114.987    242.92091    10.142198   -598.79447   -588.65227    15858.485    40407.313    50173.021   -43004.879      15.2149      13.1765      28.7324    5760.2466 
  115500      115.487    231.53352    9.6667624   -598.30472   -588.63796    16482.148    38577.356    50993.834   -40124.746      15.2149      13.1765      28.7324    5760.2466 
  116000      115.987    257.47542    10.749863   -599.37434   -588.62447    17389.922    36754.311    52280.044   -36864.589      15.2149      13.1765      28.7324    5760.2466 
  116500      116.487    237.16582    9.9019164   -598.51086   -588.60895    16505.921    35131.405    51843.044   -37456.685      15.2149      13.1765      28.7324    5760.2466 
  117000      116.987    253.74424    10.594083   -599.18876   -588.59467    15807.004     36324.73    49667.585   -38571.305      15.2149      13.1765      28.7324    5760.2466 
  117500      117.487    236.00493     9.853448   -598.43235    -588.5789    16430.654    37007.795    50813.972   -38529.805      15.2149      13.1765      28.7324    5760.2466 
  118000      117.987    245.33248    10.242883    -598.8072   -588.56432    17434.651    37177.258     55133.44   -40006.745      15.2149      13.1765      28.7324    5760.2466 
  118500      118.487    244.30454    10.199965    -598.7498   -588.54984    15637.337    35998.277    50605.346   -39691.613      15.2149      13.1765      28.7324    5760.2466 
  119000      118.987    247.29131    10.324666   -598.85985   -588.53518    15013.091    35961.365    51946.414   -42868.506      15.2149      13.1765      28.7324    5760.2466 
  119500      119.487    251.47144    10.499191   -599.01878   -588.51959    15925.965    35656.306    51655.641   -39534.051      15.2149      13.1765      28.7324    5760.2466 
  120000      119.987     242.4656    10.123188   -598.62884   -588.50565     15667.34    36644.711    49891.567   -39534.259      15.2149      13.1765      28.7324    5760.2466 
  120500      120.487    244.00613    10.187507   -598.67795   -588.49045    16863.871    35112.081    46850.949   -31371.416      15.2149      13.1765      28.7324    5760.2466 
  121000      120.987    261.10698    10.901484   -599.37741   -588.47593    16940.624    37036.263    48188.427   -34402.819      15.2149      13.1765      28.7324    5760.2466 
  121500      121.487       264.08    11.025611   -599.48893   -588.46332    17686.912    40560.011    47675.597   -35174.872      15.2149      13.1765      28.7324    5760.2466 
  122000      121.987    251.10617    10.483941   -598.92928   -588.44534    17796.571    35625.892    49905.749   -32141.928      15.2149      13.1765      28.7324    5760.2466 
  122500      122.487    249.45443    10.414979   -598.84628    -588.4313    16281.067    35175.939    48917.101   -35249.839      15.2149      13.1765      28.7324    5760.2466 
  123000      122.987    253.43622    10.581223   -598.99808   -588.41686    16863.598    38892.255    48597.969    -36899.43      15.2149      13.1765      28.7324    5760.2466 
  123500      123.487    256.61236    10.713829   -599.11486   -588.40103    17743.856    35316.883    47206.192   -29291.506      15.2149      13.1765      28.7324    5760.2466 
  124000      123.987    252.28989    10.533362   -598.91989   -588.38653    16100.876    38530.823    50621.214   -40849.408      15.2149      13.1765      28.7324    5760.2466 
  124500      124.487    261.43552    10.915201    -599.2858    -588.3706    16120.805     38653.42    51256.611   -41547.615      15.2149      13.1765      28.7324    5760.2466 
  125000      124.987     254.5933    10.629532     -598.985   -588.35547    18766.301    38201.767     54338.71   -36241.574      15.2149      13.1765      28.7324    5760.2466 
  125500      125.487    245.32306     10.24249   -598.58231   -588.33982    18283.938    43459.512    54225.134   -42832.832      15.2149      13.1765      28.7324    5760.2466 
  126000      125.987    238.02246    9.9376821    -598.2614   -588.32372    18082.259    40341.103    52770.849   -38865.174      15.2149      13.1765      28.7324    5760.2466 
  126500      126.487    248.98887    10.395541   -598.70408   -588.30854    17653.114    38858.498    55308.649   -41207.806      15.2149      13.1765      28.7324    5760.2466 
  127000      126.987     253.9694    10.603483   -598.89603   -588.29254    16228.895    39264.672    51780.999   -42358.986      15.2149      13.1765      28.7324    5760.2466 
  127500      127.487    247.12699    10.317806   -598.59513   -588.27733    16667.815    38243.932     47477.39   -35717.879      15.2149      13.1765      28.7324    5760.2466 
  128000      127.987    260.82034    10.889517   -599.15159   -588.26208    18247.074    40783.554    52058.207   -38100.539      15.2149      13.1765      28.7324    5760.2466 
  128500      128.487    251.34274    10.493818   -598.74124   -588.24742    16953.714    42259.696    44596.233   -35994.785      15.2149      13.1765      28.7324    5760.2466 
  129000      128.987    248.90234    10.391928   -598.62352   -588.23159    16227.675    39139.319     49922.02   -40378.313      15.2149      13.1765      28.7324    5760.2466 
  129500      129.487    259.16749    10.820509    -599.0379   -588.21739    16806.143    39291.343    49176.577   -38049.492      15.2149      13.1765      28.7324    5760.2466 
  130000      129.987    255.66641    10.674335   -598.87566   -588.20133    17776.129    39571.773     50992.31   -37235.698      15.2149      13.1765      28.7324    5760.2466 
  130500      130.487    251.86227    10.515509   -598.70081    -588.1853    16457.581    36580.812    51936.223   -39144.293      15.2149      13.1765      28.7324    5760.2466 
  131000      130.987    262.74571    10.969903   -599.13959   -588.16969    17320.024    40587.707    52056.759   -40684.395      15.2149      13.1765      28.7324    5760.2466 
  131500      131.487    262.20982    10.947529   -599.10234   -588.15481    17443.226    37126.455    50766.718   -35563.494      15.2149      13.1765      28.7324    5760.2466 
  132000      131.987    253.02229    10.563941   -598.70293   -588.13898    17729.359    39443.585    50372.506   -36628.016      15.2149      13.1765      28.7324    5760.2466 
  132500      132.487     269.4823    11.251163   -599.37553   -588.12437    17527.095    38516.552    49170.705   -35105.972      15.2149      13.1765      28.7324    5760.2466 
  133000      132.987    254.99795    10.646426   -598.75365   -588.10723     16307.82    38213.909    48182.457   -37472.906      15.2149      13.1765      28.7324    5760.2466 
  133500      133.487    242.52891    10.125831   -598.21743    -588.0916    18423.956      36101.3    52701.737   -33531.169      15.2149      13.1765      28.7324    5760.2466 
  134000      133.987    253.21175     10.57185   -598.64821   -588.07636      17666.2    39870.681    49379.029   -36251.111      15.2149      13.1765      28.7324    5760.2466 
  134500      134.487    256.31358    10.701355    -598.7617   -588.06035    17168.914    40139.544    51081.636   -39714.436      15.2149      13.1765      28.7324    5760.2466 
  135000      134.987    260.91813      10.8936   -598.93884   -588.04524    17285.312    37763.882    53328.871   -39236.818      15.2149      13.1765      28.7324    5760.2466 
  135500      135.487    268.04364    11.191097   -599.22151   -588.03042    16993.886    38338.558    49362.412   -36719.311      15.2149      13.1765      28.7324    5760.2466 
  136000      135.987    254.12188    10.609849   -598.62313   -588.01328    16765.074    40894.824     51096.77    -41696.37      15.2149      13.1765      28.7324    5760.2466 
  136500      136.487    251.72941    10.509961   -598.50835   -587.99839    16106.219    36507.724    49436.348   -37625.413      15.2149      13.1765      28.7324    5760.2466 
  137000      136.987    262.46077    10.958007   -598.94092   -587.98291    17800.813    40087.138    51703.171    -38387.87      15.2149      13.1765      28.7324    5760.2466 
  137500      137.487    259.96844    10.853949   -598.82085    -587.9669    16531.539    38856.083    53034.219   -42295.685      15.2149      13.1765      28.7324    5760.2466 
  138000      137.987    266.53338    11.128042   -599.07884    -587.9508    17839.477     36303.07    50579.979   -33364.617      15.2149      13.1765      28.7324    5760.2466 
  138500      138.487    264.44413    11.040814   -598.97694   -587.93613    16633.827    37528.764    48932.582   -36559.866      15.2149      13.1765      28.7324    5760.2466 
  139000      138.987    258.63115    10.798116   -598.71763   -587.91952    17714.679    39171.038    53756.912   -39783.912      15.2149      13.1765      28.7324    5760.2466 
  139500      139.487    250.23345    10.447504   -598.34979   -587.90228    16263.646    36746.452    56121.429   -44076.944      15.2149      13.1765      28.7324    5760.2466 
  140000      139.987    264.48855    11.042669   -598.93024   -587.88757    18582.387    36298.651    54198.606   -34750.095      15.2149      13.1765      28.7324    5760.2466 
  140500      140.487     273.5951    11.422876   -599.29552   -587.87264    17259.229    39204.299     50583.42   -38010.032      15.2149      13.1765      28.7324    5760.2466 
  141000      140.987     250.5757    10.461793    -598.3177   -587.85591    17256.047    39691.831    54278.466   -42202.156      15.2149      13.1765      28.7324    5760.2466 
  141500      141.487    256.18949    10.696174   -598.53595   -587.83978    17140.739    39842.683    53437.129   -41857.594      15.2149      13.1765      28.7324    5760.2466 
  142000      141.987    267.42491    11.165264   -598.98904   -587.82377    17696.065    40092.833    51267.616   -38272.253      15.2149      13.1765      28.7324    5760.2466 
  142500      142.487    260.92527    10.893898   -598.70216   -587.80826    18516.723    40476.215    53854.357   -38780.403      15.2149      13.1765      28.7324    5760.2466 
  143000      142.987     267.4879    11.167894   -598.96011   -587.79222    16977.954    38941.201    51579.692   -39587.033      15.2149      13.1765      28.7324    5760.2466 
  143500      143.487    259.07548    10.816668   -598.59155   -587.77488    17051.391    37932.453    51349.334   -38127.615      15.2149      13.1765      28.7324    5760.2466 
  144000      143.987    248.43562    10.372442   -598.13098   -587.75854    17614.109    40686.587    52914.878   -40759.139      15.2149      13.1765      28.7324    5760.2466 
  144500      144.487    247.99794    10.354169   -598.09709   -587.74293    16840.772    34550.723    52915.211   -36943.618      15.2149      13.1765      28.7324    5760.2466 
  145000      144.987    253.96229    10.603187   -598.32939    -587.7262    16978.591    40992.772    51998.967   -42055.964      15.2149      13.1765      28.7324    5760.2466 
  145500      145.487    267.00491    11.147729   -598.85933    -587.7116    16375.507    38788.264    48689.981   -38351.724      15.2149      13.1765      28.7324    5760.2466 
  146000      145.987    268.84704     11.22464   -598.91988   -587.69524    15285.893    37741.679    49344.663   -41228.665      15.2149      13.1765      28.7324    5760.2466 
  146500      146.487    250.55419    10.460895   -598.13915   -587.67826    17778.518    36098.234     52078.84   -34841.519      15.2149      13.1765      28.7324    5760.2466 
  147000      146.987    249.10627    10.400443   -598.06336   -587.66292    15365.192    36147.895    50003.593   -40055.912      15.2149      13.1765      28.7324    5760.2466 
  147500      147.487    258.75773    10.803401   -598.45067   -587.64727    16459.813    39238.527    52335.331   -42194.421      15.2149      13.1765      28.7324    5760.2466 
  148000      147.987    238.94463    9.9761837   -597.60647   -587.63028    16229.668    36416.678    50978.575   -38706.248      15.2149      13.1765      28.7324    5760.2466 
  148500      148.487    246.96603    10.311085   -597.92518   -587.61409    16207.116    37681.297    53536.016   -42595.966      15.2149      13.1765      28.7324    5760.2466 
  149000      148.987    245.18671    10.236797   -597.83537   -587.59857    17386.863    42538.776    49887.269   -40265.455      15.2149      13.1765      28.7324    5760.2466 
  149500      149.487    274.25655    11.450493    -599.0332    -587.5827    16789.517    39870.557    54020.397   -43522.402      15.2149      13.1765      28.7324    5760.2466 
  150000      149.987    269.41093    11.248183   -598.81416   -587.56597    17633.528     40730.44    54571.203   -42401.059      15.2149      13.1765      28.7324    5760.2466 
  150500      150.487    272.80255    11.389787   -598.93961   -587.54983    17789.324     38317.65     51022.65   -35972.327      15.2149      13.1765      28.7324    5760.2466 
  151000      150.987    241.13259    10.067533   -597.60024    -587.5327    16005.398    38821.969     50704.93   -41510.705      15.2149      13.1765      28.7324    5760.2466 
  151500      151.487    266.66936     11.13372   -598.65166   -587.51794    16653.597    36607.763    50653.886   -37300.858      15.2149      13.1765      28.7324    5760.2466 
  152000      151.987    259.55619    10.836737   -598.33848   -587.50175    16465.628     39860.34    50680.135   -41143.592      15.2149      13.1765      28.7324    5760.2466 
  152500      152.487    264.03122    11.023575   -598.50834   -587.48477    16874.832    38694.154    50873.652   -38943.309      15.2149      13.1765      28.7324    5760.2466 
  153000      152.987     245.2663     10.24012   -597.70895   -587.46883    16861.788    37525.037    50099.567   -37039.239      15.2149      13.1765      28.7324    5760.2466 
  153500      153.487    261.70576    10.926484   -598.37925   -587.45277    16819.553    37022.266    51826.006   -38389.615      15.2149      13.1765      28.7324    5760.2466 
  154000      153.987    261.48478    10.917258   -598.35432   -587.43706    15947.051    37813.744    48038.668    -38011.26      15.2149      13.1765      28.7324    5760.2466 
  154500      154.487    263.81576    11.014579   -598.43519   -587.42062    17489.317    36246.652    50021.362   -33800.064      15.2149      13.1765      28.7324    5760.2466 
  155000      154.987    250.50449     10.45882   -597.86222    -587.4034    15468.348    35199.651    52261.938   -41056.544      15.2149      13.1765      28.7324    5760.2466 
  155500      155.487    266.63476    11.132275   -598.52042   -587.38814    16968.612    34202.823    52700.514   -35997.503      15.2149      13.1765      28.7324    5760.2466 
  156000      155.987    266.27912    11.117427    -598.4897   -587.37227    16303.323    35075.889    46107.651   -32273.572      15.2149      13.1765      28.7324    5760.2466 
  156500      156.487    243.59354     10.17028   -597.52677   -587.35649    16352.585     37879.93    50819.748   -39641.924      15.2149      13.1765      28.7324    5760.2466 
  157000      156.987    265.22565    11.073443   -598.41343   -587.33998    16833.494    36258.873     50456.66   -36215.049      15.2149      13.1765      28.7324    5760.2466 
  157500      157.487    254.36012    10.619796   -597.94285   -587.32305     19046.26    39084.223    53379.912   -35325.354      15.2149      13.1765      28.7324    5760.2466 
  158000      157.987    261.59385    10.921812   -598.22768   -587.30587    16358.347    33981.223    56401.604   -41307.785      15.2149      13.1765      28.7324    5760.2466 
  158500      158.487    262.78524    10.971553    -598.2621   -587.29055    18155.109    39040.038    52301.465   -36876.175      15.2149      13.1765      28.7324    5760.2466 
  159000      158.987    269.41628    11.248406   -598.52329   -587.27488     16351.33    36060.755    50376.484   -37383.249      15.2149      13.1765      28.7324    5760.2466 
  159500      159.487    277.17136    11.572189   -598.83041   -587.25822    16813.701    34139.983    52204.622   -35903.501      15.2149      13.1765      28.7324    5760.2466 
  160000      159.987    240.66601    10.048053   -597.28957   -587.24152    16959.313    40322.198    47522.755   -36967.015      15.2149      13.1765      28.7324    5760.2466 
  160500      160.487    256.79695    10.721537   -597.94698   -587.22544    17790.198    38281.919    51412.808   -36324.134      15.2149      13.1765      28.7324    5760.2466 
  161000      160.987    263.60846    11.005924   -598.21494   -587.20901    16252.983    37502.408    51146.957   -39890.416      15.2149      13.1765      28.7324    5760.2466 
  161500      161.487    256.19383    10.696356   -597.88836   -587.19201    17746.312    39762.189     54673.67   -41196.923      15.2149      13.1765      28.7324    5760.2466 
  162000      161.987     255.2692    10.657751    -597.8336   -587.17585    17167.123    37643.982    55809.077   -41951.688      15.2149      13.1765      28.7324    5760.2466 
  162500      162.487     257.3815    10.745942   -597.90464    -587.1587    17060.787     38069.86    51497.134   -38384.633      15.2149      13.1765      28.7324    5760.2466 
  163000      162.987     256.2736    10.699686   -597.84163   -587.14194    17031.369    38124.118    50585.273   -37615.282      15.2149      13.1765      28.7324    5760.2466 
  163500      163.487    274.19554    11.447945   -598.57525   -587.12731    16630.198    39846.664    53309.461   -43265.531      15.2149      13.1765      28.7324    5760.2466 
  164000      163.987    260.01256    10.855792    -597.9655   -587.10971    17316.878    41315.501    52234.172    -41599.04      15.2149      13.1765      28.7324    5760.2466 
  164500      164.487     272.2106    11.365072   -598.45818   -587.09311    18089.181    39420.502    51786.578   -36939.536      15.2149      13.1765      28.7324    5760.2466 
  165000      164.987    271.84053    11.349621   -598.42672    -587.0771    15225.836    33629.481    52657.321   -40609.295      15.2149      13.1765      28.7324    5760.2466 
  165500      165.487    257.91594    10.768255   -597.82794   -587.05968    18057.092    39535.382     51782.79   -37146.896      15.2149      13.1765      28.7324    5760.2466 
  166000      165.987    265.36521     11.07927   -598.12199   -587.04272      16852.3    42644.019    51073.536   -43160.655      15.2149      13.1765      28.7324    5760.2466 
  166500      166.487    257.58893    10.754602   -597.77974   -587.02513    16428.273    42483.377    50679.416   -43877.974      15.2149      13.1765      28.7324    5760.2466 
  167000      166.987     258.1054    10.776165   -597.78574   -587.00957    17305.597    38060.434    52809.692   -38953.335      15.2149      13.1765      28.7324    5760.2466 
  167500      167.487    263.22592    10.989952   -597.98308   -586.99313    16367.465    39216.799    51594.076   -41708.479      15.2149      13.1765      28.7324    5760.2466 
  168000      167.987     279.3018    11.661137   -598.63807   -586.97694    16709.103    38902.292    53269.652   -42044.636      15.2149      13.1765      28.7324    5760.2466 
  168500      168.487    282.78103    11.806398   -598.76663   -586.96023    16993.719    39073.514    53747.601   -41839.959      15.2149      13.1765      28.7324    5760.2466 
  169000      168.987    258.86969    10.808076   -597.75077    -586.9427    16091.103    40601.908     54854.67   -47183.269      15.2149      13.1765      28.7324    5760.2466 
  169500      169.487    259.87629    10.850102   -597.77641   -586.92631     17485.47    41746.768    51219.846   -40510.204      15.2149      13.1765      28.7324    5760.2466 
  170000      169.987    283.38289    11.831527   -598.74144   -586.90991    16741.411    42476.727    55175.706     -47428.2      15.2149      13.1765      28.7324    5760.2466 
  170500      170.487    270.42614    11.290569   -598.18326   -586.89269    17085.694    38275.117    51650.038   -38668.072      15.2149      13.1765      28.7324    5760.2466 
  171000      170.987    270.09535    11.276758   -598.15281   -586.87605    15425.753    37394.626     52034.75   -43152.117      15.2149      13.1765      28.7324    5760.2466 
  171500      171.487    261.76211    10.928837   -597.78804    -586.8592    16795.893    39240.486    53406.721   -42259.528      15.2149      13.1765      28.7324    5760.2466 
  172000      171.987    257.41666     10.74741   -597.59033   -586.84292    16239.677    36361.015    49189.569   -36831.553      15.2149      13.1765      28.7324    5760.2466 
  172500      172.487     265.5884    11.088588   -597.91476   -586.82617    17534.716     38944.82    53235.069   -39575.741      15.2149      13.1765      28.7324    5760.2466 
  173000      172.987     272.6472    11.383301   -598.19245   -586.80915    17125.568      37378.8    48741.052   -34743.148      15.2149      13.1765      28.7324    5760.2466 
  173500      173.487    279.30724    11.661364   -598.45442   -586.79306    18241.999    36428.006    56551.569   -38253.579      15.2149      13.1765      28.7324    5760.2466 
  174000      173.987    263.06131     10.98308   -597.75802   -586.77494    16687.884    36236.927    49655.541   -35828.815      15.2149      13.1765      28.7324    5760.2466 
  174500      174.487    264.13407    11.027869   -597.78614   -586.75827    17695.431    42633.177     49331.69   -38878.575      15.2149      13.1765      28.7324    5760.2466 
  175000      174.987    277.61997    11.590919   -598.33262    -586.7417    17158.785     37967.01    52311.776   -38802.431      15.2149      13.1765      28.7324    5760.2466 
  175500      175.487    251.18285    10.487142   -597.21042   -586.72327    16173.691    37324.104     53157.68    -41960.71      15.2149      13.1765      28.7324    5760.2466 
  176000      175.987    274.27269    11.451167   -598.15933   -586.70816    16779.245    41339.069     55314.69   -46316.024      15.2149      13.1765      28.7324    5760.2466 
  176500      176.487    272.83982    11.391343     -598.082   -586.69065    14525.026    39193.698    50305.582   -45924.204      15.2149      13.1765      28.7324    5760.2466 
  177000      176.987    260.64262    10.882097   -597.55435   -586.67226    16869.193    35994.162    52825.516   -38212.098      15.2149      13.1765      28.7324    5760.2466 
  177500      177.487    259.64908    10.840616   -597.49634   -586.65573    16529.486    41883.189    51416.893   -43711.624      15.2149      13.1765      28.7324    5760.2466 
  178000      177.987    269.44766    11.249716   -597.88897   -586.63926    17071.277     37184.56    52678.619   -38649.348      15.2149      13.1765      28.7324    5760.2466 
  178500      178.487    249.79257    10.429096    -597.0498   -586.62071     20057.18    40118.783    52942.464   -32889.706      15.2149      13.1765      28.7324    5760.2466 
  179000      178.987    269.40254    11.247833   -597.85187   -586.60404    17763.147    37514.012    50900.426   -35124.996      15.2149      13.1765      28.7324    5760.2466 
  179500      179.487    286.66119    11.968399    -598.5554     -586.587    16205.341    42347.695    54864.796   -48596.469      15.2149      13.1765      28.7324    5760.2466 
  180000      179.987    285.47216    11.918756   -598.49008   -586.57133    16775.982    36606.173    49068.008   -35346.234      15.2149      13.1765      28.7324    5760.2466 
  180500      180.487    278.25215    11.617313    -598.1707   -586.55339    16719.058    39047.213    51499.122   -40389.161      15.2149      13.1765      28.7324    5760.2466 
  181000      180.987    271.17985    11.322037   -597.85857   -586.53654    18943.192    40297.808    52291.336   -35759.569      15.2149      13.1765      28.7324    5760.2466 
  181500      181.487    288.77364    12.056596   -598.57698   -586.52039    16745.372     37731.44    51321.104   -38816.429      15.2149      13.1765      28.7324    5760.2466 
  182000      181.987    268.47946    11.209293   -597.71112   -586.50183    16784.692    39448.608     50809.79   -39904.321      15.2149      13.1765      28.7324    5760.2466 
  182500      182.487    272.63625    11.382843   -597.86843   -586.48559    16848.816    36572.872     52460.94   -38487.363      15.2149      13.1765      28.7324    5760.2466 
  183000      182.987    273.87895    11.434727   -597.90362   -586.46889    16773.778     40176.88    49323.014    -39178.56      15.2149      13.1765      28.7324    5760.2466 
  183500      183.487    259.16593    10.820444   -597.27192   -586.45148    15933.982    39062.006    51529.011   -42789.072      15.2149      13.1765      28.7324    5760.2466 
  184000      183.987    267.09227    11.151376   -597.58452   -586.43314    18283.136    39207.816    50377.595   -34736.003      15.2149      13.1765      28.7324    5760.2466 
  184500      184.487    275.36058    11.496587   -597.91366   -586.41708    17852.406    41309.224    54287.748   -42039.753      15.2149      13.1765      28.7324    5760.2466 
  185000      184.987    279.96917       11.689    -598.0894    -586.4004    16632.006    38577.037    51195.783   -39876.802      15.2149      13.1765      28.7324    5760.2466 
  185500      185.487    279.16299    11.655341   -598.03869   -586.38335    16479.251    39131.817    49375.791   -39069.855      15.2149      13.1765      28.7324    5760.2466 
  186000      185.987    290.37636    12.123511   -598.48959   -586.36608    16834.544    40877.611     52553.07    -42927.05      15.2149      13.1765      28.7324    5760.2466 
  186500      186.487    268.89007    11.226437   -597.57439   -586.34795    17198.418    37108.994    53786.457   -39300.198      15.2149      13.1765      28.7324    5760.2466 
  187000      186.987    267.57164    11.171391   -597.50307   -586.33168    17577.754    41502.592    54065.928   -42835.258      15.2149      13.1765      28.7324    5760.2466 
  187500      187.487    271.13699    11.320248   -597.63406   -586.31381    17265.039    36587.259    49842.826   -34634.968      15.2149      13.1765      28.7324    5760.2466 
  188000      187.987    286.18337     11.94845   -598.24582   -586.29737     16807.29    37839.444    55376.193   -42793.769      15.2149      13.1765      28.7324    5760.2466 
  188500      188.487    273.71555    11.427905   -597.70696   -586.27905    17858.644    39887.035    50181.217   -36492.319      15.2149      13.1765      28.7324    5760.2466 
  189000      188.987    268.82137    11.223568   -597.48436   -586.26079    16473.152    36700.979    52648.129   -39929.652      15.2149      13.1765      28.7324    5760.2466 
  189500      189.487    270.30241    11.285403   -597.52879   -586.24339    16759.503    35642.283    53141.531   -38505.306      15.2149      13.1765      28.7324    5760.2466 
  190000      189.987    276.30236    11.535907   -597.76253   -586.22663     16902.34    35253.057    56071.684    -40617.72      15.2149      13.1765      28.7324    5760.2466 
  190500      190.487    288.16479    12.031176   -598.24149   -586.21032    18583.352    38870.392     54214.47   -37334.807      15.2149      13.1765      28.7324    5760.2466 
  191000      190.987    276.13162    11.528779   -597.72085   -586.19207    17663.706    36887.328    50634.994   -34531.204      15.2149      13.1765      28.7324    5760.2466 
  191500      191.487    264.14708    11.028412   -597.20249   -586.17408    18905.297    39150.305    51714.876    -34149.29      15.2149      13.1765      28.7324    5760.2466 
  192000      191.987    275.91532    11.519748   -597.67595    -586.1562    17073.094    38218.266     49708.11   -36707.094      15.2149      13.1765      28.7324    5760.2466 
  192500      192.487    275.27242    11.492906    -597.6328   -586.13989    17889.098    41582.208    49883.072   -37797.987      15.2149      13.1765      28.7324    5760.2466 
  193000      192.987    287.82376    12.016938   -598.14034    -586.1234    17486.267     41261.08    50713.483   -39515.761      15.2149      13.1765      28.7324    5760.2466 
  193500      193.487    290.36018    12.122836   -598.22885   -586.10601    16731.695    40335.849    50060.587   -40201.351      15.2149      13.1765      28.7324    5760.2466 
  194000      193.987    276.85742    11.559082   -597.64815   -586.08907    17438.575    38828.635    51107.201    -37620.11      15.2149      13.1765      28.7324    5760.2466 
  194500      194.487    258.32571    10.785364    -596.8558   -586.07044     17696.81    41436.745    52138.191   -40484.506      15.2149      13.1765      28.7324    5760.2466 
  195000      194.987    268.56417     11.21283   -597.26603    -586.0532    17807.261    40194.171    54340.365   -41112.754      15.2149      13.1765      28.7324    5760.2466 
  195500      195.487    278.72386    11.637007   -597.67289   -586.03588    16969.323    40942.324     47021.32   -37055.676      15.2149      13.1765      28.7324    5760.2466 
  196000      195.987    277.78261    11.597709   -597.61599   -586.01828    15422.793    40087.481    47127.143   -40946.245      15.2149      13.1765      28.7324    5760.2466 
  196500      196.487    275.13944    11.487354   -597.48914   -586.00179    16871.606    40807.361    51243.698   -41436.241      15.2149      13.1765      28.7324    5760.2466 
  197000      196.987    282.51472    11.795279   -597.77929   -585.98401    16276.664    41027.636    51537.574   -43735.216      15.2149      13.1765      28.7324    5760.2466 
  197500      197.487    280.48255    11.710435   -597.67733   -585.96689    15425.829    42407.328     49344.63    -45474.47      15.2149      13.1765      28.7324    5760.2466 
  198000      197.987    281.31746    11.745293    -597.6949   -585.94961    15871.799    38259.585    52332.298   -42976.485      15.2149      13.1765      28.7324    5760.2466 
  198500      198.487    282.32076    11.787182   -597.71971   -585.93253    17320.675    39373.004    51009.982    -38420.96      15.2149      13.1765      28.7324    5760.2466 
  199000      198.987    266.76786    11.137832   -597.05216   -585.91433    17846.028    38268.967    54998.844   -39729.727      15.2149      13.1765      28.7324    5760.2466 
  199500      199.487    306.40666    12.792793   -598.69123   -585.89843    18384.118    38883.918    52593.308    -36324.87      15.2149      13.1765      28.7324    5760.2466 
  200000      199.987    283.57672    11.839619   -597.72051   -585.88089    16391.249    36118.085    49835.282   -36779.618      15.2149      13.1765      28.7324    5760.2466 
  200500      200.487    284.37382    11.872899   -597.73572   -585.86282    17426.205    38201.499    51330.473   -37253.358      15.2149      13.1765      28.7324    5760.2466 
  201000      200.987     276.1512    11.529596   -597.37436   -585.84476    17120.491    38220.837    55136.494   -41995.858      15.2149      13.1765      28.7324    5760.2466 
  201500      201.487    284.62346    11.883322   -597.71127   -585.82795    18131.464    42224.798    50593.788   -38424.195      15.2149      13.1765      28.7324    5760.2466 
  202000      201.987    276.58611    11.547754   -597.35709   -585.80934    17519.563    40347.557    47923.789   -35712.656      15.2149      13.1765      28.7324    5760.2466 
  202500      202.487    281.96914    11.772501   -597.56424   -585.79174     17084.01     41016.45    50915.289   -40679.709      15.2149      13.1765      28.7324    5760.2466 
  203000      202.987    274.86531    11.475909   -597.24939   -585.77348    18096.802    41914.296    53077.711   -40701.602      15.2149      13.1765      28.7324    5760.2466 
  203500      203.487    272.59393    11.381076   -597.13747   -585.75639     17412.39     40049.53    51479.434   -39291.795      15.2149      13.1765      28.7324    5760.2466 
  204000      203.987    281.34975    11.746641   -597.48579   -585.73915    16761.777    39779.623    52898.797   -42393.088      15.2149      13.1765      28.7324    5760.2466 
  204500      204.487    290.98258    12.148821   -597.86929   -585.72047    16877.844    37886.137    53657.579   -40910.186      15.2149      13.1765      28.7324    5760.2466 
  205000      204.987    279.06126    11.651094     -597.354   -585.70291    17556.521    37451.287     49933.06   -34714.783      15.2149      13.1765      28.7324    5760.2466 
  205500      205.487    280.10666    11.694741   -597.38062   -585.68588    16679.036    37382.466    50244.872   -37590.231      15.2149      13.1765      28.7324    5760.2466 
  206000      205.987    281.22378    11.741382   -597.40972   -585.66834    17051.869      41310.8    49220.621   -39375.814      15.2149      13.1765      28.7324    5760.2466 
  206500      206.487    282.14601    11.779886   -597.43014   -585.65025    17526.135    37006.691    47857.273   -32285.561      15.2149      13.1765      28.7324    5760.2466 
  207000      206.987    280.06541    11.693019   -597.32566   -585.63264    16034.115    36950.179    53176.698   -42024.531      15.2149      13.1765      28.7324    5760.2466 
  207500      207.487    296.61661    12.384048   -597.99992   -585.61588    16755.405    36808.366    52889.952   -39432.102      15.2149      13.1765      28.7324    5760.2466 
  208000      207.987    281.70547    11.761493    -597.3586   -585.59711    17110.825    39792.992    53082.166   -41542.683      15.2149      13.1765      28.7324    5760.2466 
  208500      208.487    279.85231    11.684121   -597.26358   -585.57946    17190.965    37068.128    49066.137   -34561.369      15.2149      13.1765      28.7324    5760.2466 
  209000      208.987    304.42256    12.709955   -598.27345    -585.5635    17404.777    41332.314    48345.633   -37463.617      15.2149      13.1765      28.7324    5760.2466 
  209500      209.487    294.20992    12.283566   -597.82868   -585.54512    16456.098    39743.241    46946.238   -37321.186      15.2149      13.1765      28.7324    5760.2466 
  210000      209.987    287.14943    11.988783   -597.51607   -585.52729    16966.412    43545.179    50105.227    -42751.17      15.2149      13.1765      28.7324    5760.2466 
  210500      210.487    278.34092    11.621019   -597.13101   -585.50999    16678.599    37028.501      47424.1   -34416.804      15.2149      13.1765      28.7324    5760.2466 
  211000      210.987    279.16283    11.655335   -597.14694   -585.49161    16585.706    37611.086    51006.341   -38860.309      15.2149      13.1765      28.7324    5760.2466 
  211500      211.487    288.56055    12.047699   -597.52221   -585.47451    17735.063    41368.063    49952.013   -38114.886      15.2149      13.1765      28.7324    5760.2466 
  212000      211.987    278.76046    11.638535   -597.09524   -585.45671    17203.145    40298.996    48014.008   -36703.568      15.2149      13.1765      28.7324    5760.2466 
[...]
  948500      948.487    380.94934    15.905026   -594.13231   -578.22729    18593.157    40868.333    52369.161   -37458.024      15.2149      13.1765      28.7324    5760.2466 
  949000      948.987    381.68353    15.935679   -594.16227   -578.22659    17165.436    44099.814    50212.591   -42816.098      15.2149      13.1765      28.7324    5760.2466 
  949500      949.487    366.84735    15.316253    -593.5398   -578.22354    17876.007    46837.035    49337.358   -42546.371      15.2149      13.1765      28.7324    5760.2466 
  950000      949.987    358.01402    14.947453   -593.16947   -578.22201    17915.082    42451.002    51908.556   -40614.311      15.2149      13.1765      28.7324    5760.2466 
  950500      950.487    371.86038    15.525553   -593.74541   -578.21986    17325.391    44076.901    50861.454   -42962.183      15.2149      13.1765      28.7324    5760.2466 
  951000      950.987    380.29865    15.877859    -594.0961   -578.21824     17740.48    44266.471    53347.348   -44392.381      15.2149      13.1765      28.7324    5760.2466 
  951500      951.487    379.96783    15.864047   -594.08151   -578.21746     17290.76    43924.716    53119.609   -45172.044      15.2149      13.1765      28.7324    5760.2466 
  952000      951.987    358.59207    14.971587   -593.18587   -578.21429    20637.204    45976.527     50766.89   -34831.804      15.2149      13.1765      28.7324    5760.2466 
  952500      952.487    384.76394     16.06429   -594.27755   -578.21326    20194.131    43419.602     55940.28    -38777.49      15.2149      13.1765      28.7324    5760.2466 
  953000      952.987    389.07863    16.244432   -594.45777   -578.21333    18922.021    40557.428    55544.166   -39335.531      15.2149      13.1765      28.7324    5760.2466 
  953500      953.487    362.42212    15.131496   -593.34129   -578.20979    18860.027    42411.868    56950.793   -42782.581      15.2149      13.1765      28.7324    5760.2466 
  954000      953.987    376.85513    15.734089   -593.94168   -578.20759    20151.268    41378.529    58549.767   -39474.493      15.2149      13.1765      28.7324    5760.2466 
  954500      954.487    372.36624    15.546673   -593.75147   -578.20479    17788.384    43064.801    51369.586   -41069.237      15.2149      13.1765      28.7324    5760.2466 
  955000      954.987    388.50754    16.220589    -594.4233   -578.20271    18653.393    41437.653    49673.918   -35151.391      15.2149      13.1765      28.7324    5760.2466 
  955500      955.487    384.00257    16.032501   -594.23352   -578.20102     17801.22    38823.151    49604.149   -35023.641      15.2149      13.1765      28.7324    5760.2466 
  956000      955.987    371.81881    15.523817   -593.72305   -578.19923     19044.46     39450.78    51272.043   -33589.443      15.2149      13.1765      28.7324    5760.2466 
  956500      956.487    377.28813    15.752167    -593.9505   -578.19833    18200.101    43295.677    49740.201   -38435.576      15.2149      13.1765      28.7324    5760.2466 
  957000      956.987    385.34575    16.088581   -594.28464   -578.19606    18075.252    41748.704    51753.941    -39276.89      15.2149      13.1765      28.7324    5760.2466 
  957500      957.487    368.85643    15.400135   -593.59211   -578.19198    17216.057    43444.617    54592.099   -46388.544      15.2149      13.1765      28.7324    5760.2466 
  958000      957.987    362.74531    15.144989   -593.33592   -578.19093    18812.636    41418.942    49661.502   -34642.534      15.2149      13.1765      28.7324    5760.2466 
  958500      958.487    354.94348    14.819255   -593.00782   -578.18856    18211.108    41899.953    51431.333   -38697.962      15.2149      13.1765      28.7324    5760.2466 
  959000      958.987    364.97621    15.238132   -593.42518   -578.18705    18114.095    34599.644    55585.006   -35842.365      15.2149      13.1765      28.7324    5760.2466 
  959500      959.487    369.45817    15.425258   -593.60826   -578.18301    19614.936    46304.231     54641.56   -42100.983      15.2149      13.1765      28.7324    5760.2466 
  960000      959.987    360.60329    15.055557   -593.23707   -578.18151    18781.308    42819.949    55313.127   -41789.152      15.2149      13.1765      28.7324    5760.2466 
  960500      960.487    350.60467    14.638105   -592.81708   -578.17898    19407.626    41424.002    51234.139   -34435.263      15.2149      13.1765      28.7324    5760.2466 
  961000      960.987    383.03877    15.992262   -594.16961   -578.17735    18803.128    40554.749    51719.681   -35865.048      15.2149      13.1765      28.7324    5760.2466 
  961500      961.487    383.53509    16.012984   -594.18745   -578.17447    19505.772    42987.493    59349.135   -43819.312      15.2149      13.1765      28.7324    5760.2466 
  962000      961.987    366.93783    15.320031   -593.49217   -578.17214    18671.913    44925.702    53211.865   -42121.829      15.2149      13.1765      28.7324    5760.2466 
  962500      962.487    372.28121    15.543123   -593.71246   -578.16934    19491.645     38720.99        49615   -29861.054      15.2149      13.1765      28.7324    5760.2466 
  963000      962.987    364.18949    15.205285   -593.37122   -578.16594    18283.058    41409.387    52682.498   -39242.711      15.2149      13.1765      28.7324    5760.2466 
  963500      963.487    373.70656    15.602633   -593.76856   -578.16593    19796.361    44104.033    52540.888   -37255.838      15.2149      13.1765      28.7324    5760.2466 
  964000      963.987    379.42969    15.841579   -594.00394   -578.16236    18067.374    43471.812    55507.419   -44777.109      15.2149      13.1765      28.7324    5760.2466 
  964500      964.487    370.34728    15.462379   -593.62108    -578.1587    18214.364     39446.93    53624.363   -38428.202      15.2149      13.1765      28.7324    5760.2466 
  965000      964.987    373.38331    15.589137    -593.7457   -578.15657    19289.034    43481.056    54021.203   -39635.158      15.2149      13.1765      28.7324    5760.2466 
  965500      965.487    370.79821    15.481206   -593.63453   -578.15333    17730.734    45912.619    51329.855   -44050.271      15.2149      13.1765      28.7324    5760.2466 
  966000      965.987    358.18771    14.954705   -593.10654   -578.15184    18527.263     40556.13    55826.444   -40800.784      15.2149      13.1765      28.7324    5760.2466 
  966500      966.487    364.48453    15.217603   -593.36578   -578.14818    17930.846    41409.763    48661.112   -36278.336      15.2149      13.1765      28.7324    5760.2466 
  967000      966.987    364.66199    15.225012   -593.37047   -578.14546    16018.128     38975.33    52703.883    -43624.83      15.2149      13.1765      28.7324    5760.2466 
  967500      967.487     374.2359    15.624733   -593.76554    -578.1408    18503.281    37893.161    52524.755   -34908.072      15.2149      13.1765      28.7324    5760.2466 
  968000      967.987     372.1069    15.535845    -593.6732   -578.13735    18916.977    40401.331    54056.865   -37707.264      15.2149      13.1765      28.7324    5760.2466 
  968500      968.487    364.09875    15.201497   -593.33668   -578.13519    18525.539    39208.522    54225.312   -37857.216      15.2149      13.1765      28.7324    5760.2466 
  969000      968.987    380.35463    15.880196   -594.01461   -578.13441    17654.359    43287.712    48632.482   -38957.117      15.2149      13.1765      28.7324    5760.2466 
  969500      969.487    381.83021    15.941803   -594.07168   -578.12988    19723.401    44431.209    53038.845    -38299.85      15.2149      13.1765      28.7324    5760.2466 
  970000      969.987    383.38479    16.006708   -594.13426   -578.12755    17789.471    44691.048    45425.172   -36747.806      15.2149      13.1765      28.7324    5760.2466 
  970500      970.487    371.15817    15.496235   -593.61934    -578.1231    19509.036    46426.434    49099.146   -36998.473      15.2149      13.1765      28.7324    5760.2466 
  971000      970.987    355.37028    14.837074   -592.95558    -578.1185    18408.088    42561.642    49039.684   -36377.061      15.2149      13.1765      28.7324    5760.2466 
  971500      971.487    375.94816    15.696222   -593.81241   -578.11619    17352.723    40529.916    52881.587   -41353.335      15.2149      13.1765      28.7324    5760.2466 
  972000      971.987    374.68311    15.643404   -593.75568   -578.11228     17333.65    39497.252     50564.19   -38060.491      15.2149      13.1765      28.7324    5760.2466 
  972500      972.487    380.29916     15.87788   -593.98678    -578.1089    18734.714    40662.284     49275.55   -33733.692      15.2149      13.1765      28.7324    5760.2466 
  973000      972.987    372.42869     15.54928   -593.65434   -578.10506    18337.272    42789.934    53298.311   -41076.429      15.2149      13.1765      28.7324    5760.2466 
  973500      973.487    355.25663    14.832329   -592.93325   -578.10092    19857.517    44842.992    49964.297   -35234.738      15.2149      13.1765      28.7324    5760.2466 
  974000      973.987    354.71956    14.809906   -592.90597   -578.09606    17857.866    38560.435    52042.514   -37029.351      15.2149      13.1765      28.7324    5760.2466 
  974500      974.487    355.45845    14.840755   -592.93437   -578.09362    19643.864    41113.753    55476.282   -37658.445      15.2149      13.1765      28.7324    5760.2466 
  975000      974.987    392.12117    16.371462   -594.46313   -578.09167    19505.196    37740.651    55056.481   -34281.544      15.2149      13.1765      28.7324    5760.2466 
  975500      975.487    367.73435    15.353287   -593.43931   -578.08602    19707.154    38917.397    56618.312   -36414.247      15.2149      13.1765      28.7324    5760.2466 
  976000      975.987    368.69918    15.393569   -593.47533   -578.08176     19406.81    41149.795    51965.787   -34895.152      15.2149      13.1765      28.7324    5760.2466 
  976500      976.487    380.15274    15.871767   -593.95159   -578.07983    19332.704    43401.445    54458.605   -39861.938      15.2149      13.1765      28.7324    5760.2466 
  977000      976.987    375.52845    15.678698   -593.75399    -578.0753     17574.73    38096.825     57510.95   -42883.584      15.2149      13.1765      28.7324    5760.2466 
  977500      977.487    385.01245    16.074665   -594.14501   -578.07035    19533.204     42656.04    52142.148   -36198.575      15.2149      13.1765      28.7324    5760.2466 
  978000      977.987    384.76222    16.064218   -594.13172    -578.0675    18861.233    40744.349    58721.355   -42882.004      15.2149      13.1765      28.7324    5760.2466 
  978500      978.487     394.7408    16.480834   -594.54528   -578.06445    19217.875    41513.818    56397.004   -40257.196      15.2149      13.1765      28.7324    5760.2466 
  979000      978.987    370.50564    15.468991   -593.52837   -578.05938    20295.992    44453.595      55536.6   -39102.219      15.2149      13.1765      28.7324    5760.2466 
  979500      979.487     382.8731    15.985345   -594.04039   -578.05504    18743.805    39795.812    51924.104   -35488.502      15.2149      13.1765      28.7324    5760.2466 
  980000      979.987    355.90851    14.859546    -592.9096   -578.05006    17672.234    39910.734     52736.54   -39630.573      15.2149      13.1765      28.7324    5760.2466 
  980500      980.487    395.46297    16.510985   -594.55936   -578.04837    19069.178    41189.905    55891.292   -39873.665      15.2149      13.1765      28.7324    5760.2466 
  981000      980.987    358.92832    14.985626   -593.02744   -578.04181    17963.747    47491.969    49914.024    -43514.75      15.2149      13.1765      28.7324    5760.2466 
  981500      981.487    371.08387    15.493132   -593.53239   -578.03926    17063.372    44676.396    54229.606   -47715.885      15.2149      13.1765      28.7324    5760.2466 
  982000      981.987    378.09433    15.785827   -593.82166   -578.03583    19316.207     36929.31     52238.49   -31219.179      15.2149      13.1765      28.7324    5760.2466 
  982500      982.487     355.9578    14.861604   -592.89249   -578.03089    18214.439     41380.99    54413.784   -41151.458      15.2149      13.1765      28.7324    5760.2466 
  983000      982.987    366.13722    15.286605   -593.31264   -578.02604    18226.219    45728.934    53813.623     -44863.9      15.2149      13.1765      28.7324    5760.2466 
  983500      983.487    381.29028    15.919261   -593.94021   -578.02095    17506.137    39969.047    52570.708   -40021.343      15.2149      13.1765      28.7324    5760.2466 
  984000      983.987    377.55199    15.763183    -593.7802   -578.01702    18097.132    41723.017    50223.308   -37654.928      15.2149      13.1765      28.7324    5760.2466 
  984500      984.487    367.90393    15.360367   -593.37294   -578.01258    17445.564    40215.536    51189.026    -39067.87      15.2149      13.1765      28.7324    5760.2466 
  985000      984.987    355.50509    14.842702   -592.84923   -578.00653    18587.359    41578.956    54581.214   -40398.093      15.2149      13.1765      28.7324    5760.2466 
  985500      985.487    391.74284    16.355666   -594.35926   -578.00359    18486.213    39195.053    50025.377   -33761.793      15.2149      13.1765      28.7324    5760.2466 
  986000      985.987    366.88876    15.317983   -593.31411   -577.99613    19640.373    40169.055    53296.843    -34544.78      15.2149      13.1765      28.7324    5760.2466 
  986500      986.487    373.37167     15.58865   -593.58185    -577.9932    20106.619    38622.645    56441.363   -34744.151      15.2149      13.1765      28.7324    5760.2466 
  987000      986.987    384.22471    16.041776   -594.03098    -577.9892    19111.542    44174.942    54955.485   -41795.801      15.2149      13.1765      28.7324    5760.2466 
  987500      987.487    370.74519    15.478993   -593.46272   -577.98373    18723.281    39503.058    54839.714   -38172.929      15.2149      13.1765      28.7324    5760.2466 
  988000      987.987    391.38094    16.340556   -594.32035    -577.9798    18473.335    39479.286    51343.493   -35402.774      15.2149      13.1765      28.7324    5760.2466 
  988500      988.487    376.03282    15.699756   -593.67672   -577.97696    18565.126    44279.836    54494.924   -43079.383      15.2149      13.1765      28.7324    5760.2466 
  989000      988.987    390.11981    16.287903   -594.25947   -577.97157     17893.71    42155.363    53777.357    -42251.59      15.2149      13.1765      28.7324    5760.2466 
  989500      989.487    373.14754    15.579293   -593.54444   -577.96514    19111.371    40835.983     51649.84   -35151.709      15.2149      13.1765      28.7324    5760.2466 
  990000      989.987    371.95343    15.529437   -593.49259   -577.96315    18045.213    42436.653    51054.225   -39355.238      15.2149      13.1765      28.7324    5760.2466 
  990500      990.487     359.9742    15.029292   -592.98624   -577.95694    18702.861    42701.557    55974.898   -42567.873      15.2149      13.1765      28.7324    5760.2466 
  991000      990.987    376.95526    15.738269   -593.69176   -577.95349    18446.723    39590.515    50629.271   -34879.618      15.2149      13.1765      28.7324    5760.2466 
  991500      991.487    362.93176    15.152774   -593.10017    -577.9474    17130.315     41060.43    52277.661   -41947.147      15.2149      13.1765      28.7324    5760.2466 
  992000      991.987    372.28005    15.543074   -593.48654   -577.94346    18562.956    41502.473    56529.127   -42342.733      15.2149      13.1765      28.7324    5760.2466 
  992500      992.487    378.18453    15.789593   -593.72893   -577.93934    17579.258    43104.135    47753.894   -38120.253      15.2149      13.1765      28.7324    5760.2466 
  993000      992.987    374.43424    15.633014   -593.56735   -577.93434    16727.954    42662.948    47606.055   -40085.141      15.2149      13.1765      28.7324    5760.2466 
  993500      993.487    369.83792    15.441113   -593.37031    -577.9292    17723.669    40195.707    51491.904   -38516.605      15.2149      13.1765      28.7324    5760.2466 
  994000      993.987    374.93241    15.653813   -593.57699   -577.92318    18892.239    43840.757    52562.023   -39726.063      15.2149      13.1765      28.7324    5760.2466 
  994500      994.487     360.2635    15.041371   -592.95985   -577.91848    17787.501    44013.607    50111.658   -40762.763      15.2149      13.1765      28.7324    5760.2466 
  995000      994.987    382.21201    15.957744    -593.8709   -577.91316    19357.342    42301.939    52707.905   -36937.817      15.2149      13.1765      28.7324    5760.2466 
  995500      995.487    381.08584    15.910725   -593.81946   -577.90873    19013.833    38753.773    54075.482   -35787.756      15.2149      13.1765      28.7324    5760.2466 
  996000      995.987    368.31329    15.377458   -593.27946     -577.902    18891.568    44520.567    54170.969   -42016.834      15.2149      13.1765      28.7324    5760.2466 
  996500      996.487    387.29752    16.170069   -594.06855   -577.89848    16974.215    40471.686    52542.958   -42091.998      15.2149      13.1765      28.7324    5760.2466 
  997000      996.987    383.59465     16.01547   -593.90796   -577.89249    19037.011    43396.099     57484.15   -43769.216      15.2149      13.1765      28.7324    5760.2466 
  997500      997.487    376.39812    15.715008   -593.60201     -577.887    18515.979    39177.862    58457.951   -42087.875      15.2149      13.1765      28.7324    5760.2466 
  998000      997.987    389.10014     16.24533   -594.12633     -577.881    19236.082     43792.49    56586.735   -42670.979      15.2149      13.1765      28.7324    5760.2466 
  998500      998.487    384.88752    16.069449   -593.94555    -577.8761    18092.198    40097.391    54218.183   -40038.979      15.2149      13.1765      28.7324    5760.2466 
  999000      998.987    384.84639    16.067732   -593.93836   -577.87063    18481.257    44160.356    56643.654   -45360.238      15.2149      13.1765      28.7324    5760.2466 
  999500      999.487    369.86606    15.442288   -593.30798   -577.86569    17967.936    42044.313    52426.678   -40567.183      15.2149      13.1765      28.7324    5760.2466 
 1000000      999.987    376.74413    15.729454   -593.58952   -577.86006    18407.402    44265.937    57057.696   -46101.428      15.2149      13.1765      28.7324    5760.2466 
 1000013         1000    370.56149    15.471323   -593.33019   -577.85887    18683.369    47061.399    54783.398   -45794.688      15.2149      13.1765      28.7324    5760.2466 
Loop time of 925.481 on 28 procs for 1000000 steps with 324 atoms

Performance: 93.357 ns/day, 0.257 hours/ns, 1080.520 timesteps/s
88.0% CPU use with 28 MPI tasks x no OpenMP threads

MPI task timing breakdown:
Section |  min time  |  avg time  |  max time  |%varavg| %total
---------------------------------------------------------------
Pair    | 727.25     | 795.58     | 852.2      | 116.7 | 85.96
Neigh   | 0          | 0          | 0          |   0.0 |  0.00
Comm    | 60.522     | 116.68     | 184.04     | 303.1 | 12.61
Output  | 0.098522   | 0.10134    | 0.12121    |   1.3 |  0.01
Modify  | 5.0298     | 8.0676     | 14.849     | 105.6 |  0.87
Other   |            | 5.055      |            |       |  0.55

Nlocal:    11.5714 ave 15 max 6 min
Histogram: 2 1 3 2 0 4 5 1 4 6
Nghost:    662.964 ave 724 max 620 min
Histogram: 10 2 0 0 4 4 0 1 4 3
Neighs:    724.714 ave 962 max 381 min
Histogram: 2 1 3 2 1 3 5 0 6 5
FullNghs:  1449.43 ave 1928 max 763 min
Histogram: 2 1 3 2 0 4 5 1 4 6

Total # of neighbors = 40584
Ave neighs/atom = 125.259
Neighbor list builds = 0
Dangerous builds = 0

write_restart   POSCAR_1x1x1.rest

#unfix    1
#undump   1
Total wall time: 0:15:25
