LAMMPS (7 Dec 2015)
#----------- Initialize Simulation ------------ restart01
#processors	2 2 2
units		metal
boundary	p p p     ## periodic boundary condition  on x y z axis ##
atom_style atomic
#atom_modify map array sort 0 0.0

read_data	POSCAR_1x1x1.lammps
  triclinic box = (0 0 0) to (15.2149 13.1765 28.7324) with tilt (-7.60743 0 0)
  2 by 2 by 7 MPI processor grid
  reading atoms ...
  324 atoms

#----------- Define Potential -----------------
pair_style meam
pair_coeff * * MgAlZn.library.meam Mg Al Zn MgAlZn.parameter.meam Mg Al Zn 	#1=Mg 2=Al 3=Zn	#atoms/mass

#----------- Neighbor List --------------------
neighbor 2.0 bin
neigh_modify delay 10 check yes

#--------------  Run a simulation (minimization) ---------------------------------------
minimize       1.0e-4   1.0e-6   100   1000          #結構優化的條件
WARNING: Resetting reneighboring criteria during minimization (../min.cpp:168)
Neighbor list info ...
  2 neighbor list requests
  update every 1 steps, delay 0 steps, check yes
  max neighbors/atom: 2000, page size: 100000
  master list distance cutoff = 8
  ghost atom cutoff = 8
  binsize = 4 -> bins = 6 4 8
Memory usage per processor = 8.65391 Mbytes
Step Temp E_pair E_mol TotEng Press 
       0            0   -496.58442            0   -496.58442    156.45166 
      13            0   -511.31369            0   -511.31369   -5672.6829 
Loop time of 0.0230262 on 28 procs for 13 steps with 324 atoms

86.8% CPU use with 28 MPI tasks x no OpenMP threads

Minimization stats:
  Stopping criterion = energy tolerance
  Energy initial, next-to-last, final = 
        -496.584418833     -511.266750028     -511.313690193
  Force two-norm initial, final = 20.1402 1.14918
  Force max component initial, final = 2.69585 0.268948
  Final line search alpha, max atom move = 0.255764 0.0687873
  Iterations, force evaluations = 13 25

MPI task timing breakdown:
Section |  min time  |  avg time  |  max time  |%varavg| %total
---------------------------------------------------------------
Pair    | 0.018109   | 0.019286   | 0.020906   |   0.4 | 83.76
Neigh   | 0          | 0          | 0          |   0.0 |  0.00
Comm    | 0.0012734  | 0.002769   | 0.0040002  |   1.4 | 12.03
Output  | 0          | 0          | 0          |   0.0 |  0.00
Modify  | 0          | 0          | 0          |   0.0 |  0.00
Other   |            | 0.0009715  |            |       |  4.22

Nlocal:    11.5714 ave 15 max 9 min
Histogram: 5 5 0 5 0 6 1 0 1 5
Nghost:    660.214 ave 706 max 623 min
Histogram: 4 5 3 1 6 1 0 0 2 6
Neighs:    721.179 ave 980 max 497 min
Histogram: 2 3 5 1 7 3 1 2 1 3
FullNghs:  1442.36 ave 1881 max 1102 min
Histogram: 5 4 1 5 0 6 1 0 1 5

Total # of neighbors = 40386
Ave neighs/atom = 124.648
Neighbor list builds = 0
Dangerous builds = 0
velocity all  create 393.0 4928459 #rot yes dist gaussian

#--------------  Run a simulation (Relaxation)  ----------------------------------------
fix  1  all  nvt   temp  393.0  393.0  100				#damping constant
#fix  2  all  npt   temp  393.0  393.0  50 iso 0.0 0.0 1000.0
#fix  2  all deform 1 x final 0 15.6906 y final 0 13.5884 z final 0 25.2339 xy final -7.8452 units lattice
#fix  3  all  npt   temp  393.0  393.0  50 z 0.0 0.0 1000.0

#variable b equal 1
#fix 2 all efield  0.0  0.0  v_b
#compute pot all pe/atom


#----------- Output --------------------------
thermo	 500
timestep  0.001		#1.0 fs
thermo_style	custom step time temp ke pe etotal press pxx pyy pzz lx ly lz vol

dump 1 all custom 10000 dump.eq id type x y z
dump_modify 1 sort  id

run        1000000	#10000	 ps
Neighbor list info ...
  2 neighbor list requests
  update every 1 steps, delay 10 steps, check yes
  max neighbors/atom: 2000, page size: 100000
  master list distance cutoff = 8
  ghost atom cutoff = 8
  binsize = 4 -> bins = 6 4 8
Memory usage per processor = 7.54438 Mbytes
Step Time Temp KinEng PotEng TotEng Press Pxx Pyy Pzz Lx Ly Lz Volume 
      13            0          393    16.408154   -511.31369   -494.90554   -2630.1328    19599.475    29118.445   -56608.319      15.2149      13.1765      28.7324    5760.2466 
     500        0.487    197.41907     8.242449   -503.14259   -494.90014   -407.34896      25264.8    33517.316   -60004.163      15.2149      13.1765      28.7324    5760.2466 
    1000        0.987    205.39496    8.5754505    -503.4751   -494.89965    180.29422    27039.934    34453.809    -60952.86      15.2149      13.1765      28.7324    5760.2466 
    1500        1.487    207.09649     8.646491   -503.54569    -494.8992   -948.36306    22051.444    33100.817    -57997.35      15.2149      13.1765      28.7324    5760.2466 
    2000        1.987    214.71755    8.9646781   -503.86364   -494.89896   -853.02435    24744.697    34482.785   -61786.556      15.2149      13.1765      28.7324    5760.2466 
    2500        2.487    206.41943     8.618223   -503.51583   -494.89761   -1016.5644    23666.324    34711.172   -61427.189      15.2149      13.1765      28.7324    5760.2466 
    3000        2.987    219.95211    9.1832266   -504.08041   -494.89718   -755.69838    23206.464    34104.344   -59577.903      15.2149      13.1765      28.7324    5760.2466 
    3500        3.487    214.58004    8.9589372   -503.85401   -494.89507   -1864.7497    21999.111    35036.302   -62629.662      15.2149      13.1765      28.7324    5760.2466 
    4000        3.987    215.37957    8.9923184    -503.8861   -494.89378   -1547.5283    20642.365    34234.075   -59519.024      15.2149      13.1765      28.7324    5760.2466 
    4500        4.487     212.8286    8.8858126    -503.7785   -494.89268   -1636.1583    21547.848    33299.961   -59756.284      15.2149      13.1765      28.7324    5760.2466 
    5000        4.987    216.00348    9.0183671   -503.90839   -494.89003   -1506.1182    23228.358    35456.228    -63202.94      15.2149      13.1765      28.7324    5760.2466 
    5500        5.487    201.18252    8.3995767   -503.28651   -494.88693   -1329.2019    22233.806    37558.885   -63780.296      15.2149      13.1765      28.7324    5760.2466 
    6000        5.987    210.86636    8.8038872   -503.68927   -494.88538    -713.2248        22167     35490.97   -59797.644      15.2149      13.1765      28.7324    5760.2466 
    6500        6.487    211.77099    8.8416562   -503.72498   -494.88332   -341.42953    21804.584    33922.812   -56751.685      15.2149      13.1765      28.7324    5760.2466 
    7000        6.987     217.9864    9.1011561   -503.98185   -494.88069   -62.094709    26243.346    32503.195   -58932.825      15.2149      13.1765      28.7324    5760.2466 
    7500        7.487    210.06938    8.7706123   -503.64718   -494.87657   -847.02516    23077.623    33710.299   -59328.997      15.2149      13.1765      28.7324    5760.2466 
    8000        7.987    212.61853     8.877042    -503.7506   -494.87356     277.8166      25791.2    33693.378   -58651.128      15.2149      13.1765      28.7324    5760.2466 
    8500        8.487    214.12008    8.9397331   -503.81022   -494.87049   -255.48563    20850.372    34294.946   -55911.775      15.2149      13.1765      28.7324    5760.2466 
    9000        8.987     210.7212    8.7978266   -503.66469   -494.86686    362.36738    24156.915    34239.124   -57308.937      15.2149      13.1765      28.7324    5760.2466 
    9500        9.487    219.49015    9.1639391   -504.02757   -494.86363   -954.90627    23099.805    35302.773   -61267.296      15.2149      13.1765      28.7324    5760.2466 
   10000        9.987    215.48213    8.9966004   -503.85627   -494.85967    243.16813     23682.58    34294.595    -57247.67      15.2149      13.1765      28.7324    5760.2466 
   10500       10.487     208.9931    8.7256766   -503.58076   -494.85508   -394.05172    21001.679     33251.25   -55435.084      15.2149      13.1765      28.7324    5760.2466 
   11000       10.987    189.14065    7.8968165   -502.74644   -494.84963   -134.97207    25176.847    35636.935   -61218.698      15.2149      13.1765      28.7324    5760.2466 
   11500       11.487    221.72312     9.257168   -504.10365   -494.84649   -750.16359    24010.121    34263.569   -60524.181      15.2149      13.1765      28.7324    5760.2466 
   12000       11.987    207.15225     8.648819   -503.49065   -494.84183   -243.54538    23758.561    33241.752   -57730.949      15.2149      13.1765      28.7324    5760.2466 
   12500       12.487    218.44477    9.1202934   -503.95732   -494.83702   -994.49703     22206.37    31939.139   -57129.001      15.2149      13.1765      28.7324    5760.2466 
   13000       12.987    211.51458    8.8309509   -503.66166   -494.83071    280.98863    24144.553    35446.669   -58748.256      15.2149      13.1765      28.7324    5760.2466 
   13500       13.487    211.53409    8.8317656   -503.65746   -494.82569   -1316.7927    26929.705    32081.297    -62961.38      15.2149      13.1765      28.7324    5760.2466 
   14000       13.987    218.06358    9.1043783   -503.92439   -494.82002    -324.7193    25273.514    31762.863   -58010.535      15.2149      13.1765      28.7324    5760.2466 
   14500       14.487    204.82795    8.5517772   -503.36537   -494.81359   -499.78491      25436.2    34019.169   -60954.724      15.2149      13.1765      28.7324    5760.2466 
   15000       14.987    214.49358    8.9553271   -503.76354   -494.80821   -763.23859    25072.729    36730.648   -64093.093      15.2149      13.1765      28.7324    5760.2466 
   15500       15.487    205.52282    8.5807887   -503.38246   -494.80167    -694.5824    21786.278    33179.123   -57049.148      15.2149      13.1765      28.7324    5760.2466 
   16000       15.987    223.92285    9.3490088   -504.14444   -494.79543    -166.8583    24963.182    32143.298   -57607.054      15.2149      13.1765      28.7324    5760.2466 
   16500       16.487    206.87038    8.6370506   -503.42527   -494.78822   -1225.1484    22402.412    36694.235   -62772.092      15.2149      13.1765      28.7324    5760.2466 
   17000       16.987    199.02353    8.3094366   -503.09093   -494.78149   -248.31762    22692.286    35675.487   -59112.725      15.2149      13.1765      28.7324    5760.2466 
   17500       17.487    218.35121    9.1163874   -503.89116   -494.77477    305.00391     23964.52    33260.023   -56309.531      15.2149      13.1765      28.7324    5760.2466 
   18000       17.987     219.0412    9.1451949   -503.91312   -494.76792   -1423.3883    24539.601     30601.49   -59411.256      15.2149      13.1765      28.7324    5760.2466 
   18500       18.487    220.51922     9.206904   -503.96708   -494.76018   -683.02346    22372.449    31633.853   -56055.372      15.2149      13.1765      28.7324    5760.2466 
   19000       18.987    206.38654    8.6168499   -503.36919   -494.75234    44.440595    25532.591    36056.668   -61455.937      15.2149      13.1765      28.7324    5760.2466 
   19500       19.487    204.05452    8.5194859   -503.26316   -494.74367   -594.01168    21149.901    34419.002   -57350.938      15.2149      13.1765      28.7324    5760.2466 
   20000       19.987     208.7794    8.7167543   -503.45213   -494.73538    449.81112     25596.14    36256.553    -60503.26      15.2149      13.1765      28.7324    5760.2466 
   20500       20.487    221.56207     9.250444   -503.97811   -494.72766    202.31047    24442.121    35383.489   -59218.678      15.2149      13.1765      28.7324    5760.2466 
   21000       20.987    224.53083    9.3743927   -504.09358   -494.71918   -1640.9935    23832.232    33468.246   -62223.458      15.2149      13.1765      28.7324    5760.2466 
   21500       21.487    214.49522    8.9553958   -503.66511   -494.70971   -665.54509     20858.93    34479.536   -57335.102      15.2149      13.1765      28.7324    5760.2466 
   22000       21.987    232.87256    9.7226683   -504.42502   -494.70235   -1746.9727    20932.645    31915.228   -58088.792      15.2149      13.1765      28.7324    5760.2466 
   22500       22.487     221.6908    9.2558187   -503.94834   -494.69252   -495.80891    24546.942    34075.539   -60109.907      15.2149      13.1765      28.7324    5760.2466 
   23000       22.987    212.36964    8.8666506   -503.54967   -494.68302   -764.93409    25089.999    29698.038   -57082.839      15.2149      13.1765      28.7324    5760.2466 
   23500       23.487     219.0639    9.1461426   -503.81999   -494.67385   -1102.6278    23502.688    32766.453   -59577.024      15.2149      13.1765      28.7324    5760.2466 
   24000       23.987    206.57071    8.6245394   -503.28827   -494.66373   -671.93768     23731.59      31805.6   -57553.004      15.2149      13.1765      28.7324    5760.2466 
   24500       24.487    206.56216    8.6241825   -503.27865   -494.65447    622.48247     24162.61    33641.537     -55936.7      15.2149      13.1765      28.7324    5760.2466 
   25000       24.987    223.53151    9.3326701   -503.97795   -494.64528    -226.9086    23508.944    33858.481   -58048.151      15.2149      13.1765      28.7324    5760.2466 
   25500       25.487    214.70057    8.9639691   -503.59811   -494.63414    -718.0924    23279.869    35047.525   -60481.672      15.2149      13.1765      28.7324    5760.2466 
   26000       25.987     213.7407    8.9238938   -503.54724   -494.62335   -120.32008    25412.426    35745.444   -61518.831      15.2149      13.1765      28.7324    5760.2466 
   26500       26.487    218.93713    9.1408501   -503.75481   -494.61396      406.533    23394.006    34677.396   -56851.804      15.2149      13.1765      28.7324    5760.2466 
   27000       26.987    222.25046    9.2791851   -503.88237   -494.60318   -80.515916    26084.443    36005.662   -62331.653      15.2149      13.1765      28.7324    5760.2466 
   27500       27.487    221.46992    9.2465964   -503.83932   -494.59272     226.2792    24479.093    35449.851   -59250.106      15.2149      13.1765      28.7324    5760.2466 
   28000       27.987    218.54851    9.1246246   -503.70662     -494.582   -1088.4584    23697.028    36254.957    -63217.36      15.2149      13.1765      28.7324    5760.2466 
   28500       28.487    215.82424    9.0108835     -503.582   -494.57112    434.91609    22300.179    35056.515   -56051.946      15.2149      13.1765      28.7324    5760.2466 
   29000       28.987    223.29994    9.3230019    -503.8828    -494.5598   -1187.5664    22654.901    32609.265   -58826.865      15.2149      13.1765      28.7324    5760.2466 
   29500       29.487    231.03818    9.6460811   -504.19486   -494.54878   -120.87489    25767.264    33136.354   -59266.242      15.2149      13.1765      28.7324    5760.2466 
   30000       29.987     216.8822    9.0550544   -503.59142   -494.53636   -935.97053    24891.964    35291.571   -62991.446      15.2149      13.1765      28.7324    5760.2466 
   30500       30.487    220.38129    9.2011451   -503.72648   -494.52534   -1486.0892    22632.605    35001.742   -62092.614      15.2149      13.1765      28.7324    5760.2466 
   31000       30.987    225.66465    9.4217308   -503.93514   -494.51341    540.32005    23715.295    32903.849   -54998.184      15.2149      13.1765      28.7324    5760.2466 
   31500       31.487    219.24219    9.1535865   -503.65517   -494.50158    462.30722    22838.396    35016.367    -56467.84      15.2149      13.1765      28.7324    5760.2466 
   32000       31.987     219.0072    9.1437753    -503.6338   -494.49003   -198.93647    23640.001    36115.313   -60352.123      15.2149      13.1765      28.7324    5760.2466 
   32500       32.487    207.21108    8.6512755   -503.12842   -494.47714   -1105.3282    23037.093    32552.236   -58905.314      15.2149      13.1765      28.7324    5760.2466 
   33000       32.987    221.41202    9.2441793   -503.71002   -494.46584    821.57969     26588.98    31127.427   -55251.668      15.2149      13.1765      28.7324    5760.2466 
   33500       33.487    203.16496    8.4823457   -502.93468   -494.45233   -550.49869    24196.905     38123.17   -63971.571      15.2149      13.1765      28.7324    5760.2466 
   34000       33.987    231.46641    9.6639603   -504.10607   -494.44211    134.96266    26268.709    32636.941   -58500.761      15.2149      13.1765      28.7324    5760.2466 
   34500       34.487     224.5615    9.3756731   -503.80496   -494.42928   -132.36842    22794.184    32962.321    -56153.61      15.2149      13.1765      28.7324    5760.2466 
   35000       34.987    228.32321    9.5327287   -503.94962    -494.4169   -984.64697    24773.878    29858.918   -57586.736      15.2149      13.1765      28.7324    5760.2466 
   35500       35.487    230.92115    9.6411953   -504.04583   -494.40464   -15.722912    25517.918    33255.596   -58820.682      15.2149      13.1765      28.7324    5760.2466 
   36000       35.987    216.44181    9.0366677   -503.42869   -494.39202   -35.677084    22879.603    36116.639   -59103.273      15.2149      13.1765      28.7324    5760.2466 
   36500       36.487    220.91847    9.2235728    -503.6025   -494.37892   -757.92254    21675.217    35962.189   -59911.174      15.2149      13.1765      28.7324    5760.2466 
   37000       36.987    219.13918    9.1492859   -503.51588   -494.36659   -278.00438     24056.45    35321.087    -60211.55      15.2149      13.1765      28.7324    5760.2466 
   37500       37.487    225.05749    9.3963815   -503.74971   -494.35333    264.62531     24316.05    32104.945   -55627.119      15.2149      13.1765      28.7324    5760.2466 
   38000       37.987    214.40717    8.9517195   -503.29194   -494.34022   -909.31744    22928.391     36849.84   -62506.183      15.2149      13.1765      28.7324    5760.2466 
   38500       38.487    217.39906     9.076634   -503.40416   -494.32753   -507.68528    24930.675    34607.106   -61060.837      15.2149      13.1765      28.7324    5760.2466 
   39000       38.987    226.02691    9.4368555   -503.75186   -494.31501   -862.89677    22395.085     35829.48   -60813.255      15.2149      13.1765      28.7324    5760.2466 
   39500       39.487    223.40612    9.3274348   -503.62942   -494.30199   -632.10571    23583.748    34549.998   -60030.063      15.2149      13.1765      28.7324    5760.2466 
   40000       39.987    221.84012    9.2620529   -503.55115    -494.2891   -804.63645    22407.257    35515.068   -60336.235      15.2149      13.1765      28.7324    5760.2466 
   40500       40.487    214.09217    8.9385678   -503.21475   -494.27619    155.42921    22434.201    36193.199   -58161.112      15.2149      13.1765      28.7324    5760.2466 
   41000       40.987    223.53149    9.3326691   -503.59595   -494.26328   -599.28731    20809.421    33184.115   -55791.398      15.2149      13.1765      28.7324    5760.2466 
   41500       41.487    233.73177    9.7585414    -504.0093   -494.25076   -384.81976    24528.636    33985.135   -59668.231      15.2149      13.1765      28.7324    5760.2466 
   42000       41.987    232.38539    9.7023286   -503.93976   -494.23743   -384.93769    25603.935     37381.38   -64140.129      15.2149      13.1765      28.7324    5760.2466 
   42500       42.487    226.16264    9.4425224   -503.66743   -494.22491   -598.88397    24925.202    34961.949   -61683.803      15.2149      13.1765      28.7324    5760.2466 
   43000       42.987    212.88767    8.8882788   -503.09874   -494.21046    1197.3142    27600.613    35251.133   -59259.803      15.2149      13.1765      28.7324    5760.2466 
   43500       43.487     225.1253    9.3992126   -503.59794   -494.19872   -988.47793    24313.696    33233.296   -60512.426      15.2149      13.1765      28.7324    5760.2466 
   44000       43.987     227.9238    9.5160526   -503.70193   -494.18587   -787.11396    25446.613    34693.981   -62501.936      15.2149      13.1765      28.7324    5760.2466 
   44500       44.487    223.72214    9.3406289   -503.51348   -494.17285   -683.30497    26079.097    32756.899   -60885.911      15.2149      13.1765      28.7324    5760.2466 
   45000       44.987    229.44044    9.5793739   -503.74037   -494.16099    289.10068    23173.178    33376.643   -55682.519      15.2149      13.1765      28.7324    5760.2466 
   45500       45.487    227.94462    9.5169221   -503.66542    -494.1485    369.29916    24390.225    36596.668   -59878.996      15.2149      13.1765      28.7324    5760.2466 
   46000       45.987    212.92142    8.8896881   -503.02427   -494.13458   -1169.8995    23326.014    35666.696   -62502.409      15.2149      13.1765      28.7324    5760.2466 
   46500       46.487    228.09462    9.5231848   -503.64592   -494.12274    397.80912    26412.787    32299.604   -57518.964      15.2149      13.1765      28.7324    5760.2466 
   47000       46.987    219.38111    9.1593866   -503.26966   -494.11027   -463.22535    24701.012    33739.888   -59830.576      15.2149      13.1765      28.7324    5760.2466 
   47500       47.487    221.82171    9.2612842   -503.35778    -494.0965   -1175.9372    21303.131    36385.527    -61216.47      15.2149      13.1765      28.7324    5760.2466 
   48000       47.987    220.09437    9.1891661   -503.27366    -494.0845   -678.97809    24766.566    29933.466   -56736.966      15.2149      13.1765      28.7324    5760.2466 
   48500       48.487    216.78364    9.0509397   -503.12317   -494.07223   -1144.5408    25404.223    33632.591   -62470.436      15.2149      13.1765      28.7324    5760.2466 
   49000       48.987    225.37433    9.4096099   -503.46975   -494.06014     93.15793    23896.359    35499.033   -59115.918      15.2149      13.1765      28.7324    5760.2466 
   49500       49.487    227.23864    9.4874467    -503.5359   -494.04845   -1168.3653    22008.859     35509.25   -61023.205      15.2149      13.1765      28.7324    5760.2466 
   50000       49.987     225.5886    9.4185555   -503.45455     -494.036    107.95745    25005.371    34900.824   -59582.323      15.2149      13.1765      28.7324    5760.2466 
   50500       50.487    214.22184    8.9439817   -502.96708    -494.0231   -657.47094    26232.139    33139.074   -61343.625      15.2149      13.1765      28.7324    5760.2466 
   51000       50.987    212.82851    8.8858089   -502.89681     -494.011    71.419037     22660.74    37200.249   -59646.732      15.2149      13.1765      28.7324    5760.2466 
   51500       51.487    221.64908    9.2540765   -503.25395   -493.99988    622.27875    27046.749    32335.844   -57515.756      15.2149      13.1765      28.7324    5760.2466 
   52000       51.987    226.48567    9.4560094   -503.44444   -493.98843   -305.51012    21939.732     35792.71   -58648.972      15.2149      13.1765      28.7324    5760.2466 
   52500       52.487     239.6314    10.004857   -503.98118   -493.97632   -1150.6266    24279.707      32982.5   -60714.087      15.2149      13.1765      28.7324    5760.2466 
   53000       52.987    212.89089    8.8884132   -502.85224   -493.96383   -1019.4134    23502.945    36660.707   -63221.893      15.2149      13.1765      28.7324    5760.2466 
   53500       53.487    227.20672    9.4861138   -503.43795   -493.95183    558.23325    25610.039     35224.43   -59159.769      15.2149      13.1765      28.7324    5760.2466 
   54000       53.987    236.31279    9.8663017   -503.80712   -493.94082   -143.12007     23557.76    34741.664   -58728.784      15.2149      13.1765      28.7324    5760.2466 
   54500       54.487     229.3744    9.5766166   -503.50512   -493.92851    -349.7701    25345.761    33224.272   -59619.343      15.2149      13.1765      28.7324    5760.2466 
   55000       54.987    222.92122    9.3071897   -503.22443   -493.91724   -159.33406    27372.254      30741.2   -58591.456      15.2149      13.1765      28.7324    5760.2466 
   55500       55.487    227.25592    9.4881681   -503.39389   -493.90572   -330.95531    25331.806    33363.053   -59687.726      15.2149      13.1765      28.7324    5760.2466 
   56000       55.987    230.51391    9.6241925   -503.51909    -493.8949   -410.14941    24255.619    34511.738   -59997.805      15.2149      13.1765      28.7324    5760.2466 
   56500       56.487     231.9847    9.6855995   -503.56874   -493.88314   -931.28991    23847.018    35117.008   -61757.896      15.2149      13.1765      28.7324    5760.2466 
   57000       56.987    223.52295    9.3323125   -503.20399   -493.87168   -81.537584    25302.086    36518.493   -62065.192      15.2149      13.1765      28.7324    5760.2466 
   57500       57.487    225.72908    9.4244207   -503.28494   -493.86052   -103.11427    27660.599    33919.426   -61889.368      15.2149      13.1765      28.7324    5760.2466 
   58000       57.987    227.05684    9.4798564   -503.32926    -493.8494    158.74232    21923.629    35855.735   -57303.137      15.2149      13.1765      28.7324    5760.2466 
   58500       58.487    226.96828    9.4761589   -503.31408   -493.83792   -208.94453    24023.129    35594.668    -60244.63      15.2149      13.1765      28.7324    5760.2466 
   59000       58.987     224.9882    9.3934882   -503.22049     -493.827    321.23314    24878.577    36436.962   -60351.839      15.2149      13.1765      28.7324    5760.2466 
   59500       59.487    227.41383    9.4947608   -503.31092   -493.81616    138.86006    25567.194    37239.997   -62390.611      15.2149      13.1765      28.7324    5760.2466 
   60000       59.987    213.68851    8.9217147   -502.72685   -493.80513   -292.58344    26975.665    34716.315   -62569.731      15.2149      13.1765      28.7324    5760.2466 
   60500       60.487    222.77176    9.3009496   -503.09491   -493.79396   -95.692887    24426.395     33314.06   -58027.533      15.2149      13.1765      28.7324    5760.2466 
   61000       60.987    237.48273    9.9151477   -503.69858   -493.78343   -387.09563    22216.791    37222.738   -60600.816      15.2149      13.1765      28.7324    5760.2466 
   61500       61.487    218.51415      9.12319   -502.89529    -493.7721     228.0842    25297.607    35995.602   -60608.956      15.2149      13.1765      28.7324    5760.2466 
   62000       61.987    225.81945    9.4281939   -503.18966   -493.76146   -785.04851    26701.818    34776.826    -63833.79      15.2149      13.1765      28.7324    5760.2466 
   62500       62.487    222.54718    9.2915733   -503.04167    -493.7501    192.46461    23910.037    36548.643   -59881.286      15.2149      13.1765      28.7324    5760.2466 
   63000       62.987    235.75464    9.8429983   -503.58219   -493.73919   -1527.4166    25536.026    33175.523   -63293.798      15.2149      13.1765      28.7324    5760.2466 
   63500       63.487     225.0848    9.3975213   -503.12625   -493.72873    702.48075    25985.351    35398.406   -59276.315      15.2149      13.1765      28.7324    5760.2466 
   64000       63.987    228.65486     9.546575   -503.26511   -493.71854    -530.9123    23141.069    34567.866   -59301.671      15.2149      13.1765      28.7324    5760.2466 
   64500       64.487    222.23543    9.2785575   -502.98585   -493.70729    18.986075    24143.937    36053.932   -60140.911      15.2149      13.1765      28.7324    5760.2466 
   65000       64.987    218.07785    9.1049743   -502.80127    -493.6963   -421.55912    25888.255    36352.047   -63504.979      15.2149      13.1765      28.7324    5760.2466 
   65500       65.487    224.24589     9.362496   -503.04881   -493.68631    40.263656    24916.552    36899.074   -61694.835      15.2149      13.1765      28.7324    5760.2466 
   66000       65.987    222.85099    9.3042578   -502.97952   -493.67526   -1724.3802    23342.098     33018.52   -61533.759      15.2149      13.1765      28.7324    5760.2466 
   66500       66.487    222.53022     9.290865   -502.95565   -493.66478    -79.30817    25108.585    36467.677   -61814.187      15.2149      13.1765      28.7324    5760.2466 
   67000       66.987    231.27402    9.6559278   -503.31046   -493.65453   -922.12366    27175.035     35339.95   -65281.356      15.2149      13.1765      28.7324    5760.2466 
   67500       67.487    222.54398    9.2914395   -502.93587   -493.64443     48.51433    23438.509    33361.362   -56654.328      15.2149      13.1765      28.7324    5760.2466 
   68000       67.987    219.72145    9.1735963   -502.80671   -493.63312     484.0735    26424.092    34610.377   -59582.249      15.2149      13.1765      28.7324    5760.2466 
   68500       68.487    240.63926    10.046936   -503.66986   -493.62292    -1321.723    23933.971    33212.886   -61112.026      15.2149      13.1765      28.7324    5760.2466 
   69000       68.987    227.27397    9.4889215   -503.10122    -493.6123   -929.14339    26784.635    32264.491   -61836.556      15.2149      13.1765      28.7324    5760.2466 
   69500       69.487    236.97468    9.8939363   -503.49508   -493.60114   -2266.1888    22392.015    32070.538   -61261.118      15.2149      13.1765      28.7324    5760.2466 
   70000       69.987    230.49506    9.6234055   -503.21414   -493.59074   -428.59705    26959.575    31635.389   -59880.755      15.2149      13.1765      28.7324    5760.2466 
   70500       70.487    219.43164    9.1614963   -502.74166   -493.58017   -29.226632    27708.622    32701.049   -60497.351      15.2149      13.1765      28.7324    5760.2466 
   71000       70.987    237.14665     9.901116    -503.4713   -493.57018     587.4724    24624.902    35389.526   -58252.011      15.2149      13.1765      28.7324    5760.2466 
   71500       71.487    224.08498    9.3557782    -502.9146   -493.55883   -639.75428    21412.872    36775.417   -60107.552      15.2149      13.1765      28.7324    5760.2466 
   72000       71.987    244.82635    10.221752   -503.77028   -493.54853   -1530.7671    25577.745     34910.96   -65081.006      15.2149      13.1765      28.7324    5760.2466 
   72500       72.487    234.90848    9.8076704   -503.34526   -493.53759   -533.50863    24180.201    35180.317   -60961.044      15.2149      13.1765      28.7324    5760.2466 
   73000       72.987    235.21224    9.8203523   -503.34758   -493.52723   -958.14043    24636.219    32673.569   -60184.209      15.2149      13.1765      28.7324    5760.2466 
   73500       73.487    225.75693    9.4255838   -502.94219   -493.51661   -755.72274    23596.028    35709.525   -61572.721      15.2149      13.1765      28.7324    5760.2466 
   74000       73.987    222.57548    9.2927549   -502.79875     -493.506   -1473.8943    25373.908    33482.622   -63278.213      15.2149      13.1765      28.7324    5760.2466 
   74500       74.487    225.15273    9.4003578   -502.89609   -493.49574   -850.56119    25188.585    34327.188   -62067.457      15.2149      13.1765      28.7324    5760.2466 
   75000       74.987    229.50615    9.5821175   -503.06782    -493.4857   -21.349935    26652.394    34773.576   -61490.019      15.2149      13.1765      28.7324    5760.2466 
   75500       75.487    217.08014    9.0633188   -502.53683   -493.47351   -655.09629    26579.546    32127.917   -60672.752      15.2149      13.1765      28.7324    5760.2466 
   76000       75.987    227.70672    9.5069894   -502.96985   -493.46286   -1451.8877    26060.709    31144.335   -61560.707      15.2149      13.1765      28.7324    5760.2466 
   76500       76.487    240.50976    10.041529   -503.49413    -493.4526    504.57364    27275.115    35321.008   -61082.402      15.2149      13.1765      28.7324    5760.2466 
   77000       76.987    215.71333    9.0062532   -502.44686   -493.44061   -1161.7829    27282.899    34583.801   -65352.048      15.2149      13.1765      28.7324    5760.2466 
   77500       77.487    247.75469    10.344013   -503.77497   -493.43096    -1482.725    23141.022    34281.418   -61870.614      15.2149      13.1765      28.7324    5760.2466 
   78000       77.987    222.44194    9.2871794   -502.70703   -493.41985   -1196.5226    23655.342    37030.757   -64275.667      15.2149      13.1765      28.7324    5760.2466 
   78500       78.487    231.17573    9.6518242   -503.06119   -493.40937    124.51975    25994.793    35468.068   -61089.302      15.2149      13.1765      28.7324    5760.2466 
   79000       78.987    229.94744    9.6005417   -502.99865   -493.39811   -664.56844     24981.91    36557.242   -63532.858      15.2149      13.1765      28.7324    5760.2466 
   79500       79.487    233.70976    9.7576224   -503.14467   -493.38705    498.82267    24722.049    35634.323   -58859.904      15.2149      13.1765      28.7324    5760.2466 
   80000       79.987    231.94565    9.6839691   -503.05998   -493.37601   -10.132238    24578.097    35925.684   -60534.178      15.2149      13.1765      28.7324    5760.2466 
   80500       80.487    233.46095    9.7472345    -503.1124   -493.36517   -1168.4863    21825.877    36476.857   -61808.192      15.2149      13.1765      28.7324    5760.2466 
   81000       80.987    225.23438    9.4037665   -502.75669   -493.35292    120.04792    24555.062    33160.969   -57355.887      15.2149      13.1765      28.7324    5760.2466 
   81500       81.487    231.49378    9.6651028   -503.00753   -493.34243   -1544.9252    24445.836    33992.306   -63072.917      15.2149      13.1765      28.7324    5760.2466 
   82000       81.987    233.03854    9.7295981   -503.06097   -493.33137    49.304237    24044.957    33944.416    -57841.46      15.2149      13.1765      28.7324    5760.2466 
   82500       82.487     239.5602    10.001884   -503.32234   -493.32046   -999.12862    27827.516    32118.733   -62943.636      15.2149      13.1765      28.7324    5760.2466 
   83000       82.987    238.72288    9.9669252   -503.27568   -493.30876   -857.48706    23275.531    33028.372   -58876.364      15.2149      13.1765      28.7324    5760.2466 
   83500       83.487    220.02304    9.1861878   -502.48342   -493.29723   -27.450814    24596.972    37690.068   -62369.392      15.2149      13.1765      28.7324    5760.2466 
   84000       83.987    235.17568    9.8188261   -503.10503    -493.2862    1454.5802    26826.825    35875.912   -58338.996      15.2149      13.1765      28.7324    5760.2466 
   84500       84.487    236.75737    9.8848634   -503.15909   -493.27423    275.89133    26781.186    35486.188     -61439.7      15.2149      13.1765      28.7324    5760.2466 
   85000       84.987    233.46915    9.7475767   -503.01115   -493.26357    629.12794    23830.576    33099.337   -55042.529      15.2149      13.1765      28.7324    5760.2466 
   85500       85.487    242.63106    10.130096   -503.38135   -493.25126   -425.46861    27688.301     30151.43   -59116.137      15.2149      13.1765      28.7324    5760.2466 
   86000       85.987    247.88482    10.349446   -503.58944      -493.24   -324.20039    22490.777    34507.259   -57970.637      15.2149      13.1765      28.7324    5760.2466 
   86500       86.487    238.63951    9.9634448   -503.19101   -493.22756    -407.8277    25278.169    35643.837   -62145.489      15.2149      13.1765      28.7324    5760.2466 
   87000       86.987    228.89756    9.5567082    -502.7722   -493.21549   -492.54637    24933.096    34557.749   -60968.484      15.2149      13.1765      28.7324    5760.2466 
   87500       87.487    247.34483    10.326901   -503.53099   -493.20409   -340.93963    23719.318    33022.826   -57764.963      15.2149      13.1765      28.7324    5760.2466 
   88000       87.987    215.69551    9.0055092   -502.19712   -493.19161   -515.51224    24122.017    36099.472   -61768.025      15.2149      13.1765      28.7324    5760.2466 
   88500       88.487    234.63788    9.7963724   -502.97616   -493.17979    1779.8455    25070.697     32759.51    -52490.67      15.2149      13.1765      28.7324    5760.2466 
   89000       88.987    229.81884    9.5951727   -502.76294   -493.16777   -1551.8286    26366.096    32019.972   -63041.555      15.2149      13.1765      28.7324    5760.2466 
   89500       89.487    231.58088    9.6687393   -502.82462   -493.15588   -1095.0773    22255.012     33320.97   -58861.214      15.2149      13.1765      28.7324    5760.2466 
   90000       89.987    230.62833    9.6289695   -502.77277   -493.14381   -902.12932    25558.211    33675.928   -61940.527      15.2149      13.1765      28.7324    5760.2466 
   90500       90.487    238.70691    9.9662585   -503.09806    -493.1318    94.887064    24883.082     35596.54   -60194.961      15.2149      13.1765      28.7324    5760.2466 
   91000       90.987    240.03934    10.021889   -503.14155   -493.11966    744.37198     22847.91    34339.422   -54954.216      15.2149      13.1765      28.7324    5760.2466 
   91500       91.487    254.01021    10.605187   -503.71287   -493.10768    80.368926    21191.477    33831.632   -54782.002      15.2149      13.1765      28.7324    5760.2466 
   92000       91.987    224.99513    9.3937776   -502.48854   -493.09476   -887.99477    23519.372    33161.931   -59345.287      15.2149      13.1765      28.7324    5760.2466 
   92500       92.487    231.48169    9.6645984   -502.74616   -493.08156   -504.15522    22850.328    32856.384   -57219.177      15.2149      13.1765      28.7324    5760.2466 
   93000       92.987    231.37474    9.6601328   -502.72925   -493.06912   -1429.9662    25931.158    32987.008   -63208.065      15.2149      13.1765      28.7324    5760.2466 
   93500       93.487    234.18064    9.7772822    -502.8346   -493.05732   -665.87501    22852.927    33450.687   -58301.239      15.2149      13.1765      28.7324    5760.2466 
   94000       93.987    236.53368    9.8755239    -502.9199   -493.04437   -392.70689     27132.33    34418.488   -62728.939      15.2149      13.1765      28.7324    5760.2466 
   94500       94.487    243.20071     10.15388   -503.18513   -493.03125    -1473.353    25905.984    30159.357   -60485.399      15.2149      13.1765      28.7324    5760.2466 
   95000       94.987    226.80567    9.4693697   -502.48742   -493.01805    594.39084    25754.014    35008.328    -58979.17      15.2149      13.1765      28.7324    5760.2466 
   95500       95.487    231.92106    9.6829424   -502.68885   -493.00591    486.62003    28045.462    34941.057   -61526.659      15.2149      13.1765      28.7324    5760.2466 
   96000       95.987    223.36339    9.3256508   -502.31887   -492.99322   -1538.2509    23276.867     33935.93    -61827.55      15.2149      13.1765      28.7324    5760.2466 
   96500       96.487    232.18078    9.6937861   -502.67414   -492.98035   -1434.6218    23466.403     33844.94   -61615.208      15.2149      13.1765      28.7324    5760.2466 
   97000       96.987    236.89826    9.8907458   -502.85815    -492.9674    -817.7388    23984.488    35708.391   -62146.095      15.2149      13.1765      28.7324    5760.2466 
   97500       97.487    245.62481    10.255088   -503.20965   -492.95456   -305.28858    24128.091    33670.029   -58713.985      15.2149      13.1765      28.7324    5760.2466 
   98000       97.987        233.3    9.7405147   -502.68198   -492.94147     1317.493    27091.265    34298.333   -57437.119      15.2149      13.1765      28.7324    5760.2466 
   98500       98.487    235.03073    9.8127744   -502.74095   -492.92818   -1336.1313    26524.134    36452.483   -66985.011      15.2149      13.1765      28.7324    5760.2466 
   99000       98.987    244.26997    10.198522   -503.11374   -492.91522    526.96945    23322.887    41494.361    -63236.34      15.2149      13.1765      28.7324    5760.2466 
   99500       99.487    242.54379    10.126452   -503.02833   -492.90188   -807.84708    24978.576    33658.257   -61060.374      15.2149      13.1765      28.7324    5760.2466 
  100000       99.987     239.7605    10.010247   -502.89867   -492.88842   -1047.2609    26952.402    31019.502   -61113.687      15.2149      13.1765      28.7324    5760.2466 
  100500      100.487    245.55987    10.252377   -503.12745   -492.87507   -681.08888    23997.485    35508.033   -61548.785      15.2149      13.1765      28.7324    5760.2466 
  101000      100.987    235.94941    9.8511303   -502.71205   -492.86092   -1843.6323    21188.992    33424.697   -60144.586      15.2149      13.1765      28.7324    5760.2466 
  101500      101.487    241.78307    10.094691   -502.94321   -492.84852   -371.58047    21957.666    32923.765   -55996.172      15.2149      13.1765      28.7324    5760.2466 
  102000      101.987    238.92832    9.9755025   -502.80935   -492.83385   -879.90449    24193.265    32977.222     -59810.2      15.2149      13.1765      28.7324    5760.2466 
  102500      102.487    247.95529    10.352388   -503.17287   -492.82049   -18.682136    22696.863    32549.561    -55302.47      15.2149      13.1765      28.7324    5760.2466 
  103000      102.987    240.60327    10.045434   -502.85245   -492.80701   -773.43499    25087.345    35884.682   -63292.331      15.2149      13.1765      28.7324    5760.2466 
  103500      103.487    227.90773    9.5153818   -502.30852   -492.79314    373.46486    26842.091    36567.836   -62289.532      15.2149      13.1765      28.7324    5760.2466 
  104000      103.987    243.08458    10.149031   -502.92958   -492.78055    2.4374407    26490.096    33332.819   -59815.603      15.2149      13.1765      28.7324    5760.2466 
  104500      104.487    243.95053    10.185185    -502.9516   -492.76641   -702.39825    24138.702    34956.706   -61202.602      15.2149      13.1765      28.7324    5760.2466 
  105000      104.987    247.20862    10.321214   -503.07369   -492.75247   -2110.5516    25218.714    32349.039   -63899.407      15.2149      13.1765      28.7324    5760.2466 
  105500      105.487    234.25639     9.780445   -502.51813   -492.73769    968.28535    25756.412    34003.627   -56855.183      15.2149      13.1765      28.7324    5760.2466 
  106000      105.987    237.08073    9.8983639   -502.62227   -492.72391   -583.26946    24168.152    38310.899    -64228.86      15.2149      13.1765      28.7324    5760.2466 
  106500      106.487    248.71069    10.383927   -503.09463   -492.71071    585.05128    24505.765    35768.287   -58518.898      15.2149      13.1765      28.7324    5760.2466 
  107000      106.987    244.62974    10.213543   -502.90932   -492.69578   -1143.3161    22385.206    33118.531   -58933.685      15.2149      13.1765      28.7324    5760.2466 
  107500      107.487    242.88954    10.140888   -502.82293   -492.68205   -1190.6594    25527.045    33192.468   -62291.491      15.2149      13.1765      28.7324    5760.2466 
  108000      107.987    244.18455    10.194956   -502.86226    -492.6673   -827.09897     27019.52    35109.516   -64610.333      15.2149      13.1765      28.7324    5760.2466 
  108500      108.487    244.74892    10.218519   -502.87254   -492.65402   -1347.8668     25077.94    31519.992   -60641.532      15.2149      13.1765      28.7324    5760.2466 
  109000      108.987    240.05715    10.022633   -502.66226   -492.63963    -482.8069    24095.837    36021.763   -61566.021      15.2149      13.1765      28.7324    5760.2466 
  109500      109.487    234.64793    9.7967919   -502.42214   -492.62535    -980.6557    25268.338    35546.885   -63757.191      15.2149      13.1765      28.7324    5760.2466 
  110000      109.987    243.34592    10.159942   -502.77049   -492.61055   -1188.6514    24262.137    32382.985   -60211.076      15.2149      13.1765      28.7324    5760.2466 
  110500      110.487    238.41677     9.954145   -502.55079   -492.59665   -394.39005    24324.651    32321.746   -57829.567      15.2149      13.1765      28.7324    5760.2466 
  111000      110.987    236.89288     9.890521   -502.47269   -492.58217      -70.273    24021.693    33858.235   -58090.747      15.2149      13.1765      28.7324    5760.2466 
  111500      111.487    240.33115    10.034072   -502.60161   -492.56754    -1746.173    24188.707    34245.419   -63672.645      15.2149      13.1765      28.7324    5760.2466 
  112000      111.987    248.79958    10.387638   -502.94098   -492.55334    302.09967    25200.052    35388.872   -59682.625      15.2149      13.1765      28.7324    5760.2466 
  112500      112.487    248.58502     10.37868   -502.91872   -492.54004   -567.81354     24259.81    33164.333   -59127.584      15.2149      13.1765      28.7324    5760.2466 
  113000      112.987     238.3168    9.9499712   -502.47295   -492.52298   -377.63752    26813.635    38175.717   -66122.264      15.2149      13.1765      28.7324    5760.2466 
  113500      113.487    257.26224    10.740963   -503.25129   -492.51032   -490.58827    25978.978    35573.613   -63024.356      15.2149      13.1765      28.7324    5760.2466 
  114000      113.987    254.05587    10.607094   -503.10212   -492.49502    29.478992    26989.129    33832.856   -60733.548      15.2149      13.1765      28.7324    5760.2466 
  114500      114.487    242.24269    10.113881   -502.59377   -492.47989   -1638.2089    23412.808    32695.999   -61023.434      15.2149      13.1765      28.7324    5760.2466 
  115000      114.987    253.41558    10.580361   -503.04616    -492.4658   -359.53906     26409.05    31331.037   -58818.705      15.2149      13.1765      28.7324    5760.2466 
  115500      115.487    245.23884    10.238973   -502.69016   -492.45119   -254.09085    24165.674    35718.054   -60646.001      15.2149      13.1765      28.7324    5760.2466 
  116000      115.987    249.19104    10.403982   -502.84085   -492.43687   -529.76268    25170.972    33487.506   -60247.765      15.2149      13.1765      28.7324    5760.2466 
  116500      116.487    240.41869    10.037727   -502.45853    -492.4208     803.8814    28276.371    31838.865   -57703.592      15.2149      13.1765      28.7324    5760.2466 
  117000      116.987    240.45903    10.039411    -502.4452   -492.40579    1064.9055    28509.874    36375.797   -61690.955      15.2149      13.1765      28.7324    5760.2466 
  117500      117.487    244.42893    10.205159   -502.59622   -492.39106   -712.58965    26375.391    33807.518   -62320.678      15.2149      13.1765      28.7324    5760.2466 
  118000      117.987    241.71465    10.091835   -502.46862   -492.37679   -734.88434    25668.899    36066.665   -63940.217      15.2149      13.1765      28.7324    5760.2466 
  118500      118.487    240.57008    10.044048   -502.40512   -492.36107   -1057.1483    24684.224    34700.734   -62556.402      15.2149      13.1765      28.7324    5760.2466 
  119000      118.987    244.47577    10.207115   -502.55407   -492.34696   -312.54922    26293.136     36168.87   -63399.654      15.2149      13.1765      28.7324    5760.2466 
  119500      119.487    240.79506    10.053441   -502.38554    -492.3321   -619.17625    23342.137    35315.349   -60515.015      15.2149      13.1765      28.7324    5760.2466 
  120000      119.987    240.81675    10.054346   -502.37038   -492.31603   -949.43696    25386.331    29981.736   -58216.377      15.2149      13.1765      28.7324    5760.2466 
  120500      120.487    243.58534    10.169938   -502.47136   -492.30142    1224.3873    28361.454    30771.693   -55459.985      15.2149      13.1765      28.7324    5760.2466 
  121000      120.987    253.05444    10.565283   -502.85188    -492.2866   -468.05837    24815.201    31329.758   -57549.134      15.2149      13.1765      28.7324    5760.2466 
  121500      121.487    243.47341    10.165265   -502.43639   -492.27112    47.270347    24743.634    35030.755   -59632.578      15.2149      13.1765      28.7324    5760.2466 
  122000      121.987    248.61096    10.379763   -502.63571   -492.25595    -108.7843    27851.315    33900.572   -62078.241      15.2149      13.1765      28.7324    5760.2466 
  122500      122.487    252.34963    10.535856   -502.77692   -492.24106   -834.04921    26557.129    32594.465   -61653.741      15.2149      13.1765      28.7324    5760.2466 
  123000      122.987    248.60503    10.379515   -502.60554   -492.22602   -745.75258    24207.749    33685.243   -60130.249      15.2149      13.1765      28.7324    5760.2466 
  123500      123.487    234.51554    9.7912648     -502.002   -492.21074   -297.76892     23584.37    38185.075   -62662.752      15.2149      13.1765      28.7324    5760.2466 
  124000      123.987    231.03221    9.6458319   -501.84109   -492.19525   -82.217598     24410.81     36578.13   -61235.593      15.2149      13.1765      28.7324    5760.2466 
  124500      124.487    237.61548    9.9206905   -502.10089    -492.1802   -84.495083    23007.315    32688.364   -55949.165      15.2149      13.1765      28.7324    5760.2466 
  125000      124.987    230.02385    9.6037319   -501.76909   -492.16536   -396.71322    25972.685    35576.738   -62739.562      15.2149      13.1765      28.7324    5760.2466 
  125500      125.487    253.16992    10.570104    -502.7219    -492.1518    1106.5932    26426.843    32373.792   -55480.855      15.2149      13.1765      28.7324    5760.2466 
  126000      125.987    231.37192    9.6600151   -501.79456   -492.13455    66.121376    25896.565    34798.251   -60496.452      15.2149      13.1765      28.7324    5760.2466 
  126500      126.487    247.61094    10.338011   -502.45767   -492.11966   -461.41099    22951.535    35713.628   -60049.396      15.2149      13.1765      28.7324    5760.2466 
  127000      126.987      250.195    10.445898   -502.55012   -492.10422   -1568.6761    27070.674    35041.759   -66818.461      15.2149      13.1765      28.7324    5760.2466 
  127500      127.487     235.0448    9.8133618   -501.90224   -492.08888    805.84817    25565.663    34625.823   -57773.941      15.2149      13.1765      28.7324    5760.2466 
  128000      127.987    248.75807    10.385905   -502.45892   -492.07301    133.64123    27660.396    33642.137   -60901.609      15.2149      13.1765      28.7324    5760.2466 
  128500      128.487    251.47049    10.499151   -502.55733   -492.05818    -1085.888    22734.448    35962.065   -61954.176      15.2149      13.1765      28.7324    5760.2466 
  129000      128.987    246.16153    10.277497   -502.32042   -492.04292   -139.23037    23842.636    34362.029   -58622.356      15.2149      13.1765      28.7324    5760.2466 
  129500      129.487    259.95058    10.853203   -502.88102   -492.02782    46.994333    26582.879    33580.488   -60022.384      15.2149      13.1765      28.7324    5760.2466 
  130000      129.987    255.59699    10.671437   -502.68361   -492.01217   -869.33847    25105.989    34785.989   -62499.994      15.2149      13.1765      28.7324    5760.2466 
  130500      130.487    246.91285    10.308865   -502.30457   -491.99571    404.87933    25618.508    35283.709    -59687.58      15.2149      13.1765      28.7324    5760.2466 
  131000      130.987     253.2891     10.57508   -502.55524   -491.98016    -348.1657    24105.367    34204.183   -59354.046      15.2149      13.1765      28.7324    5760.2466 
  131500      131.487    243.66922     10.17344   -502.13841   -491.96497    221.28207    24875.545    34525.656   -58737.355      15.2149      13.1765      28.7324    5760.2466 
  132000      131.987     259.6532    10.840788   -502.79021   -491.94942    1292.4111    27696.465    32306.038   -56125.269      15.2149      13.1765      28.7324    5760.2466 
  132500      132.487    244.20695    10.195891   -502.12954   -491.93365   -670.01543    24459.365    34026.287   -60495.698      15.2149      13.1765      28.7324    5760.2466 
  133000      132.987    227.10858    9.4820165   -501.39888   -491.91686    543.77583    25529.458    30983.105   -54881.236      15.2149      13.1765      28.7324    5760.2466 
  133500      133.487    242.23164     10.11342   -502.01557   -491.90215   -1303.9948    26517.225     32636.72    -63065.93      15.2149      13.1765      28.7324    5760.2466 
  134000      133.987    252.26817    10.532455   -502.41968   -491.88723    476.72174    23833.347    33826.521   -56229.703      15.2149      13.1765      28.7324    5760.2466 
  134500      134.487    258.03793    10.773349   -502.64425    -491.8709   -1149.2329     25367.83    33618.898   -62434.427      15.2149      13.1765      28.7324    5760.2466 
  135000      134.987    247.04908    10.314553   -502.16968   -491.85513    195.76972    25634.829    33406.623   -58454.143      15.2149      13.1765      28.7324    5760.2466 
  135500      135.487    244.85199    10.222822   -502.06297   -491.84015    680.80053    27650.165    32913.412   -58521.175      15.2149      13.1765      28.7324    5760.2466 
  136000      135.987    265.12307    11.069161    -502.8936   -491.82444   -783.34937     28251.93    35127.932   -65729.909      15.2149      13.1765      28.7324    5760.2466 
  136500      136.487    264.68037    11.050677   -502.85919   -491.80852   -1799.6954    23655.418    31463.343   -60517.847      15.2149      13.1765      28.7324    5760.2466 
  137000      136.987    253.00425    10.563187   -502.35546   -491.79227   -253.07414    22922.184    32665.355   -56346.761      15.2149      13.1765      28.7324    5760.2466 
  137500      137.487    259.45757     10.83262   -502.60932    -491.7767   -372.21729    26647.423    34895.873   -62659.947      15.2149      13.1765      28.7324    5760.2466 
  138000      137.987    258.85234    10.807351   -502.56933   -491.76198    404.87017    24452.441    35669.426   -58907.256      15.2149      13.1765      28.7324    5760.2466 
  138500      138.487    249.97673    10.436785   -502.18176   -491.74498   -420.92661    23261.781    33786.637   -58311.198      15.2149      13.1765      28.7324    5760.2466 
  139000      138.987    253.85718    10.598798   -502.32789   -491.72909    220.89869    29565.409    33822.427    -62725.14      15.2149      13.1765      28.7324    5760.2466 
  139500      139.487    258.03304    10.773145   -502.48651   -491.71336    1033.4004    29484.375     34312.77   -60696.944      15.2149      13.1765      28.7324    5760.2466 
  140000      139.987    253.89152    10.600232   -502.29787   -491.69764    959.46679    27023.699    32226.066   -56371.365      15.2149      13.1765      28.7324    5760.2466 
  140500      140.487     246.3743     10.28638   -501.96709   -491.68071    47.632706    22582.301    37406.473   -59845.876      15.2149      13.1765      28.7324    5760.2466 
  141000      140.987    247.59064    10.337163   -502.00374   -491.66658    1231.7235     26102.81    35964.158   -58371.798      15.2149      13.1765      28.7324    5760.2466 
  141500      141.487    246.88441    10.307678   -501.95791   -491.65023    192.72961    26585.201     34480.31   -60487.321      15.2149      13.1765      28.7324    5760.2466 
  142000      141.987    256.45235    10.707149   -502.34145    -491.6343   -680.73601    27105.246    31728.203   -60875.657      15.2149      13.1765      28.7324    5760.2466 
  142500      142.487    246.31892    10.284068   -501.90264   -491.61857   -836.88709    24029.595    37982.103    -64522.36      15.2149      13.1765      28.7324    5760.2466 
  143000      142.987    262.63072    10.965102   -502.56698   -491.60188   -94.219929     27016.63    32618.688   -59917.978      15.2149      13.1765      28.7324    5760.2466 
  143500      143.487    251.32028     10.49288   -502.07898    -491.5861    460.64419    26911.166    33874.445   -59403.679      15.2149      13.1765      28.7324    5760.2466 
  144000      143.987     262.7854     10.97156   -502.54225   -491.57069     491.9618    21720.616    36124.827   -56369.557      15.2149      13.1765      28.7324    5760.2466 
  144500      144.487    239.06459    9.9811923   -501.53443   -491.55324    723.09381    26618.611    34992.346   -59441.675      15.2149      13.1765      28.7324    5760.2466 
  145000      144.987    263.19918    10.988836    -502.5275   -491.53866   -463.51411     23990.02    31016.631   -56397.193      15.2149      13.1765      28.7324    5760.2466 
  145500      145.487    253.98184    10.604003   -502.12616   -491.52215    997.97766    28472.725    31834.439   -57313.231      15.2149      13.1765      28.7324    5760.2466 
  146000      145.987    239.85814    10.014323   -501.51933   -491.50501    1148.5643    25348.433    35499.383   -57402.123      15.2149      13.1765      28.7324    5760.2466 
  146500      146.487    246.10331    10.275066    -501.7648   -491.48974    283.80595    28858.702    33627.872   -61635.157      15.2149      13.1765      28.7324    5760.2466 
  147000      146.987    263.86516    11.016641   -502.49138   -491.47474      1491.77    24514.177    30462.317   -50501.184      15.2149      13.1765      28.7324    5760.2466 
  147500      147.487    254.34293    10.619079   -502.07614   -491.45707   -23.595669    24809.255    35501.545   -60381.587      15.2149      13.1765      28.7324    5760.2466 
  148000      147.987    265.81639    11.098107   -502.54027   -491.44216     478.0868     24610.13    35518.384   -58694.254      15.2149      13.1765      28.7324    5760.2466 
  148500      148.487    252.92362    10.559821   -501.98562    -491.4258    468.89298    28934.146    34492.086   -62019.553      15.2149      13.1765      28.7324    5760.2466 
  149000      148.987    256.45634    10.707315   -502.11697   -491.40966   -185.16766    23119.098    34103.911   -57778.513      15.2149      13.1765      28.7324    5760.2466 
  149500      149.487    265.28973    11.076118   -502.46969   -491.39357    1649.1846    27994.004    34385.201   -57431.651      15.2149      13.1765      28.7324    5760.2466 
  150000      149.987    272.63295    11.382706   -502.76043   -491.37772   -309.88888    25146.601     32154.89   -58231.158      15.2149      13.1765      28.7324    5760.2466 
  150500      150.487    262.63792    10.965403   -502.32616   -491.36076    565.45534    25702.631    35453.959   -59460.223      15.2149      13.1765      28.7324    5760.2466 
  151000      150.987    241.94397    10.101409   -501.44573   -491.34432     358.5643    23161.575    35479.693   -57565.575      15.2149      13.1765      28.7324    5760.2466 
  151500      151.487    254.94256    10.644114   -501.97258   -491.32847    -281.3489    24009.627    33604.318   -58457.992      15.2149      13.1765      28.7324    5760.2466 
  152000      151.987      255.449    10.665258   -501.97693   -491.31168    386.06114    24956.986    35839.189   -59637.991      15.2149      13.1765      28.7324    5760.2466 
  152500      152.487    253.74174    10.593978   -501.88969   -491.29571    762.21435     26672.77     36009.23   -60395.357      15.2149      13.1765      28.7324    5760.2466 
  153000      152.987    259.82229    10.847847   -502.12669   -491.27884    821.56348    25560.088    37470.668   -60566.065      15.2149      13.1765      28.7324    5760.2466 
  153500      153.487    275.21323    11.490435   -502.75507   -491.26463   -95.691511    22734.496    35393.909   -58415.479      15.2149      13.1765      28.7324    5760.2466 
  154000      153.987    251.83461    10.514353   -501.76132   -491.24696    955.85535    26484.673    36144.177   -59761.284      15.2149      13.1765      28.7324    5760.2466 
  154500      154.487     257.8245    10.764437   -501.99492   -491.23048    828.06055     24444.71    33939.167   -55899.695      15.2149      13.1765      28.7324    5760.2466 
  155000      154.987    269.55453    11.254178   -502.46855   -491.21438   -17.237588    26678.201     34613.36   -61343.274      15.2149      13.1765      28.7324    5760.2466 
  155500      155.487    247.93944    10.351726   -501.54892   -491.19719    1016.4275    25244.081    37057.574   -59252.373      15.2149      13.1765      28.7324    5760.2466 
  156000      155.987    248.40525    10.371174   -501.55239   -491.18121    686.03327     21612.91    35106.186   -54660.996      15.2149      13.1765      28.7324    5760.2466 
  156500      156.487    249.98337    10.437062   -501.60111   -491.16405    256.76052    24223.383    36784.367   -60237.469      15.2149      13.1765      28.7324    5760.2466 
  157000      156.987    243.70113    10.174773   -501.32271   -491.14794    199.04446    28152.384    33415.716   -60970.967      15.2149      13.1765      28.7324    5760.2466 
  157500      157.487    270.01428    11.273374   -502.40572   -491.13235   -436.36517    22924.446    34403.983   -58637.524      15.2149      13.1765      28.7324    5760.2466 
  158000      157.987    257.42234    10.747647   -501.86337   -491.11573       402.51    28200.522    33930.466   -60923.459      15.2149      13.1765      28.7324    5760.2466 
  158500      158.487    259.11469    10.818304   -501.91714   -491.09883     751.7325     26925.26    37447.019   -62117.081      15.2149      13.1765      28.7324    5760.2466 
  159000      158.987     255.4038    10.663371   -501.74587    -491.0825    1429.2132    27802.787    36455.337   -59970.485      15.2149      13.1765      28.7324    5760.2466 
  159500      159.487    266.88102    11.142557   -502.20909   -491.06653    -35.39695    24596.705    36146.731   -60849.627      15.2149      13.1765      28.7324    5760.2466 
  160000      159.987     257.6388    10.756685   -501.80528   -491.04859    169.21237    25514.066    36191.329   -61197.758      15.2149      13.1765      28.7324    5760.2466 
  160500      160.487    268.60506    11.214537   -502.24762   -491.03308    553.64823    23804.531     35107.83   -57251.416      15.2149      13.1765      28.7324    5760.2466 
  161000      160.987    260.06851    10.858127   -501.87479   -491.01667     1064.793    26579.015    35187.708   -58572.344      15.2149      13.1765      28.7324    5760.2466 
  161500      161.487    263.23516    10.990338   -501.99087   -491.00054    689.37469    24215.825    34149.502   -56297.203      15.2149      13.1765      28.7324    5760.2466 
  162000      161.987    264.65127    11.049462   -502.03301   -490.98355     750.5497    25458.919     33318.57    -56525.84      15.2149      13.1765      28.7324    5760.2466 
  162500      162.487    253.17421    10.570283   -501.53733   -490.96705    1056.2913    26135.643    38098.209   -61064.979      15.2149      13.1765      28.7324    5760.2466 
  163000      162.987    241.62054    10.087906   -501.03819   -490.95028    463.18963    27638.676    31253.304   -57502.411      15.2149      13.1765      28.7324    5760.2466 
  163500      163.487    274.78635    11.472612   -502.40746   -490.93484    86.120679    27920.014     30771.14   -58432.792      15.2149      13.1765      28.7324    5760.2466 
  164000      163.987    256.99347    10.729741   -501.64682   -490.91708    2300.8949    28763.427    36737.438    -58598.18      15.2149      13.1765      28.7324    5760.2466 
  164500      164.487    271.75065    11.345869   -502.24679   -490.90092    232.52945    26112.603    32523.707   -57938.722      15.2149      13.1765      28.7324    5760.2466 
  165000      164.987    266.15228    11.112131   -501.99676   -490.88463    137.75799    27240.404    31443.323   -58270.454      15.2149      13.1765      28.7324    5760.2466 
  165500      165.487    271.91804    11.352857    -502.2211   -490.86824    1167.2356     28255.82    37139.694   -61893.807      15.2149      13.1765      28.7324    5760.2466 
  166000      165.987    260.19608    10.863454   -501.71424   -490.85079    495.82291     20802.29    37431.885   -56746.706      15.2149      13.1765      28.7324    5760.2466 
  166500      166.487    273.48903    11.418448   -502.25286   -490.83441    541.86285    26280.175    31390.359   -56044.945      15.2149      13.1765      28.7324    5760.2466 
  167000      166.987    268.50229    11.210246   -502.02817   -490.81792    29.109039    23656.265    35876.758   -59445.696      15.2149      13.1765      28.7324    5760.2466 
  167500      167.487    249.22436    10.405373   -501.20538       -490.8     1022.117    26482.354    34070.292   -57486.295      15.2149      13.1765      28.7324    5760.2466 
  168000      167.987    269.16366    11.237859   -502.02159   -490.78373    782.14525    26487.578    36729.783   -60870.925      15.2149      13.1765      28.7324    5760.2466 
  168500      168.487     252.7075    10.550798   -501.31769   -490.76689   -676.13007    23088.458    35965.434   -61082.282      15.2149      13.1765      28.7324    5760.2466 
  169000      168.987    264.46162    11.041544   -501.79222   -490.75068    1752.3645     25378.88    38587.891   -58709.678      15.2149      13.1765      28.7324    5760.2466 
  169500      169.487    256.07368    10.691339   -501.42438   -490.73304   -25.021218    25378.324    35252.752    -60706.14      15.2149      13.1765      28.7324    5760.2466 
  170000      169.987    272.08248    11.359723   -502.07715   -490.71743     1090.855    26471.389    37849.258   -61048.082      15.2149      13.1765      28.7324    5760.2466 
  170500      170.487    273.88011    11.434776   -502.13528    -490.7005    200.09069    27123.346    32977.495   -59500.569      15.2149      13.1765      28.7324    5760.2466 
  171000      170.987    260.98056    10.896207   -501.57859   -490.68238   -47.601585    25657.269    33106.976    -58907.05      15.2149      13.1765      28.7324    5760.2466 
  171500      171.487    270.89655    11.310209   -501.97593   -490.66572    754.07838    25309.662     33095.37   -56142.797      15.2149      13.1765      28.7324    5760.2466 
  172000      171.987    266.27632     11.11731   -501.76644   -490.64913   -343.96288    23545.954    33211.081   -57788.923      15.2149      13.1765      28.7324    5760.2466 
  172500      172.487    271.33831    11.328653   -501.96095    -490.6323   -397.57211    25067.556    33421.408    -59681.68      15.2149      13.1765      28.7324    5760.2466 
  173000      172.987    264.76371    11.054157   -501.66968   -490.61552    1046.2896    26725.593    33291.198   -56877.922      15.2149      13.1765      28.7324    5760.2466 
  173500      173.487    280.04817    11.692299   -502.29078   -490.59848     960.2247    26524.859    36133.525    -59777.71      15.2149      13.1765      28.7324    5760.2466 
  174000      173.987    276.94684    11.562815    -502.1448   -490.58198   -184.87609     28508.34    36862.618   -65925.586      15.2149      13.1765      28.7324    5760.2466 
  174500      174.487    270.05142    11.274924   -501.84018   -490.56526    852.14625    24287.973    37836.932   -59568.466      15.2149      13.1765      28.7324    5760.2466 
  175000      174.987    264.26626    11.033388   -501.58151   -490.54813   -100.95723    23240.057    31746.511   -55289.439      15.2149      13.1765      28.7324    5760.2466 
  175500      175.487    269.34803    11.245557   -501.77682   -490.53127    2176.8417    26435.126    36962.544   -56867.144      15.2149      13.1765      28.7324    5760.2466 
  176000      175.987    262.18438    10.946467   -501.46081   -490.51434    1294.6077    28709.159    35710.712   -60536.048      15.2149      13.1765      28.7324    5760.2466 
  176500      176.487    271.87374    11.351008   -501.84918   -490.49817     1476.898    31004.281    36504.521   -63078.108      15.2149      13.1765      28.7324    5760.2466 
  177000      176.987    266.63472    11.132273    -501.6129   -490.48063    177.95394    26333.046    34649.665   -60448.849      15.2149      13.1765      28.7324    5760.2466 
  177500      177.487     261.2312    10.906671   -501.37035   -490.46368    889.40036    30679.964    34540.537   -62552.299      15.2149      13.1765      28.7324    5760.2466 
  178000      177.987    285.73572     11.92976    -502.3771   -490.44734    238.51521     24735.52    34766.011   -58785.986      15.2149      13.1765      28.7324    5760.2466 
  178500      178.487    281.09524    11.736015   -502.16619   -490.43018    791.95065    26410.349    35069.533    -59104.03      15.2149      13.1765      28.7324    5760.2466 
  179000      178.987    276.97571     11.56402   -501.97688   -490.41286    981.65222     24675.83    35792.649   -57523.522      15.2149      13.1765      28.7324    5760.2466 
  179500      179.487    254.18281    10.612394   -501.00702   -490.39463    -24.43493    25196.045    36865.167   -62134.517      15.2149      13.1765      28.7324    5760.2466 
  180000      179.987    260.57153    10.879129   -501.25728   -490.37815    626.45011    27687.613    32742.871   -58551.134      15.2149      13.1765      28.7324    5760.2466 
  180500      180.487     282.9449     11.81324   -502.17388   -490.36064   -443.83283    21431.556     35088.94   -57851.994      15.2149      13.1765      28.7324    5760.2466 
  181000      180.987    296.41537    12.375646   -502.72109   -490.34544    1444.9152    24717.068    33017.292   -53399.615      15.2149      13.1765      28.7324    5760.2466 
  181500      181.487    260.12119    10.860327    -501.1871   -490.32678    1853.8014    26497.979    37144.894   -58081.469      15.2149      13.1765      28.7324    5760.2466 
  182000      181.987    283.27085    11.826849   -502.13709   -490.31024    1018.9084    23937.332    38072.814   -58953.421      15.2149      13.1765      28.7324    5760.2466 
  182500      182.487    278.06952    11.609688   -501.90281   -490.29312    1049.6641    25460.473    35871.064   -58182.545      15.2149      13.1765      28.7324    5760.2466 
  183000      182.987    264.89295    11.059553   -501.33509   -490.27553    1257.0107    26379.959    35496.082   -58105.009      15.2149      13.1765      28.7324    5760.2466 
  183500      183.487    259.95417    10.853353   -501.11251   -490.25916     1053.647      24772.2    37898.865   -59510.124      15.2149      13.1765      28.7324    5760.2466 
  184000      183.987    266.29387    11.118042   -501.35948   -490.24143    896.31527    26645.546    35001.685   -58958.284      15.2149      13.1765      28.7324    5760.2466 
  184500      184.487    268.00906    11.189653   -501.41347   -490.22382    488.44384    25598.613    34093.876   -58227.158      15.2149      13.1765      28.7324    5760.2466 
  185000      184.987     279.9588    11.688567     -501.896   -490.20743   -270.26009    27261.084    34201.885    -62273.75      15.2149      13.1765      28.7324    5760.2466 
  185500      185.487    281.70382    11.761424   -501.95057   -490.18914    728.19342    25464.159    37744.255   -61023.834      15.2149      13.1765      28.7324    5760.2466 
  186000      185.987    276.21126    11.532104   -501.70405   -490.17194    1368.2198    26703.313    34868.632   -57467.286      15.2149      13.1765      28.7324    5760.2466 
  186500      186.487    277.59242    11.589769    -501.7445   -490.15473    453.21302    25164.819    37271.798   -61076.978      15.2149      13.1765      28.7324    5760.2466 
  187000      186.987    271.81905    11.348724   -501.48696   -490.13824    251.74687    24465.864    37340.726   -61051.349      15.2149      13.1765      28.7324    5760.2466 
  187500      187.487    268.44412    11.207817   -501.32811   -490.12029    930.17853    27878.497    34288.036   -59375.997      15.2149      13.1765      28.7324    5760.2466 
  188000      187.987    257.98549    10.771159   -500.87468   -490.10352    2260.7232    27397.391    36681.253   -57296.474      15.2149      13.1765      28.7324    5760.2466 
  188500      188.487    267.82826    11.182105    -501.2678   -490.08569    956.12822    25461.197    34160.528   -56753.341      15.2149      13.1765      28.7324    5760.2466 
  189000      188.987    264.38991     11.03855   -501.10771   -490.06916    1691.5351    26561.015    33125.406   -54611.815      15.2149      13.1765      28.7324    5760.2466 
  189500      189.487    277.45269    11.583935   -501.63601   -490.05208    2162.7708    25747.983    36606.775   -55866.445      15.2149      13.1765      28.7324    5760.2466 
  190000      189.987    278.06735    11.609598   -501.64451   -490.03491    136.86263    27641.884    33824.621   -61055.917      15.2149      13.1765      28.7324    5760.2466 
  190500      190.487    280.60106    11.715383   -501.73285   -490.01746    946.37392    23730.893    36936.862   -57828.633      15.2149      13.1765      28.7324    5760.2466 
  191000      190.987     282.9093    11.811754   -501.81212   -490.00036    855.63034     25822.41    34320.361    -57575.88      15.2149      13.1765      28.7324    5760.2466 
  191500      191.487    285.63345     11.92549    -501.9084   -489.98291   -218.80858    28877.537    30481.161   -60015.123      15.2149      13.1765      28.7324    5760.2466 
  192000      191.987    271.27594    11.326049   -501.29161   -489.96556    1138.3655    24083.407    35532.748   -56201.059      15.2149      13.1765      28.7324    5760.2466 
  192500      192.487    266.81358    11.139741    -501.0869   -489.94716     264.5351     23498.11     33681.16   -56385.665      15.2149      13.1765      28.7324    5760.2466 
  193000      192.987    272.19165    11.364281   -501.29397   -489.92969    1379.6029    27200.842    34074.596   -57136.629      15.2149      13.1765      28.7324    5760.2466 
  193500      193.487     278.6085    11.632191   -501.54599    -489.9138    550.88128    28290.269    34649.901   -61287.526      15.2149      13.1765      28.7324    5760.2466 
  194000      193.987    276.87718    11.559907   -501.45599   -489.89608    1892.5217    30738.088    34693.959   -59754.483      15.2149      13.1765      28.7324    5760.2466 
  194500      194.487    282.58917    11.798388   -501.67671   -489.87832    -655.0346    24891.905    32365.841    -59222.85      15.2149      13.1765      28.7324    5760.2466 
  195000      194.987     281.6219    11.758003   -501.61974   -489.86174    178.29258    24162.794     34104.75   -57732.666      15.2149      13.1765      28.7324    5760.2466 
  195500      195.487    288.80334    12.057836   -501.90157   -489.84374    128.32209     22558.62    36485.461   -58659.116      15.2149      13.1765      28.7324    5760.2466 
  196000      195.987    274.43274    11.457849   -501.28444   -489.82659    1813.7509    24883.541    33472.017   -52914.304      15.2149      13.1765      28.7324    5760.2466 
  196500      196.487    276.04266    11.525065   -501.33342   -489.80836    404.39567    27514.768    33899.941   -60201.522      15.2149      13.1765      28.7324    5760.2466 
  197000      196.987    281.03498    11.733499   -501.52393   -489.79043    880.09982    23077.279    35847.172   -56284.152      15.2149      13.1765      28.7324    5760.2466 
  197500      197.487     267.2897    11.159619    -500.9329   -489.77329    2029.7683    29122.493    34193.862    -57227.05      15.2149      13.1765      28.7324    5760.2466 
  198000      197.987     276.0934    11.527183   -501.28287   -489.75568    333.16031    25246.439    36844.618   -61091.576      15.2149      13.1765      28.7324    5760.2466 
  198500      198.487     272.6033    11.381468   -501.11932   -489.73786     478.2641    27511.693    30042.212   -56119.112      15.2149      13.1765      28.7324    5760.2466 
  199000      198.987    277.31649    11.578248   -501.29918   -489.72093   -144.65274     22411.78     37582.35   -60428.088      15.2149      13.1765      28.7324    5760.2466 
  199500      199.487    287.96541    12.022852   -501.72657   -489.70372    1835.0699     26561.63    34685.414   -55741.834      15.2149      13.1765      28.7324    5760.2466 
  200000      199.987    268.26997    11.200547   -500.88554   -489.68499    376.83231    27322.643    36145.174    -62337.32      15.2149      13.1765      28.7324    5760.2466 
  200500      200.487    287.97036    12.023058   -501.69057   -489.66751     1854.772    26938.746    34743.352   -56117.782      15.2149      13.1765      28.7324    5760.2466 
  201000      200.987    281.97575    11.772777   -501.42221   -489.64943    1352.3795    25668.262    32050.469   -53661.592      15.2149      13.1765      28.7324    5760.2466 
  201500      201.487     285.8772    11.935667   -501.56794   -489.63228     49.04351    24716.967    32321.643   -56891.479      15.2149      13.1765      28.7324    5760.2466 
  202000      201.987    274.16286    11.446581   -501.06116   -489.61458    1032.6552    27972.115    36843.564   -61717.714      15.2149      13.1765      28.7324    5760.2466 
  202500      202.487    300.19472    12.533438   -502.13124    -489.5978    1150.8729    26476.493    35345.275   -58369.149      15.2149      13.1765      28.7324    5760.2466 
  203000      202.987    278.34395    11.621146   -501.20073   -489.57959    2192.2939    30057.227    35764.322   -59244.667      15.2149      13.1765      28.7324    5760.2466 
  203500      203.487    278.14249    11.612735   -501.17374     -489.561   -68.518743    25290.305    35262.469    -60758.33      15.2149      13.1765      28.7324    5760.2466 
  204000      203.987     279.8029    11.682059   -501.22574   -489.54368    1730.4919    27962.683    35792.817   -58564.024      15.2149      13.1765      28.7324    5760.2466 
  204500      204.487    265.35408    11.078805   -500.60399   -489.52518    308.76828    24195.684    36161.903   -59431.283      15.2149      13.1765      28.7324    5760.2466 
  205000      204.987    298.11448    12.446586   -501.95409    -489.5075    148.00862    24671.605    34085.301    -58312.88      15.2149      13.1765      28.7324    5760.2466 
  205500      205.487    289.95434    12.105891    -501.5961   -489.49021   -4.1276707    25336.236      36858.4   -62207.019      15.2149      13.1765      28.7324    5760.2466 
  206000      205.987     278.9895    11.648098   -501.12019   -489.47209    613.09738    24824.048    40604.869   -63589.625      15.2149      13.1765      28.7324    5760.2466 
  206500      206.487    271.70176    11.343827   -500.79749   -489.45367    1253.9777    25982.748    39514.142   -61734.957      15.2149      13.1765      28.7324    5760.2466 
  207000      206.987    280.00568    11.690525   -501.12786   -489.43733    438.62998    25816.825    33554.468   -58055.403      15.2149      13.1765      28.7324    5760.2466 
  207500      207.487    275.68259    11.510031    -500.9277   -489.41767    1615.2775    23699.251    37145.661    -55999.08      15.2149      13.1765      28.7324    5760.2466 
  208000      207.987    284.38274    11.873271   -501.27434   -489.40107    967.77538    26099.506    34141.775   -57337.955      15.2149      13.1765      28.7324    5760.2466 
  208500      208.487    272.59329     11.38105   -500.76417   -489.38312    1885.3904    25698.592    35199.992   -55242.413      15.2149      13.1765      28.7324    5760.2466 
  209000      208.987    281.45012    11.750831   -501.11605   -489.36522    1223.9793    25969.332    38152.551   -60449.944      15.2149      13.1765      28.7324    5760.2466 
  209500      209.487    289.57394    12.090009   -501.43753   -489.34752    1129.1805    27131.076    36730.819   -60474.353      15.2149      13.1765      28.7324    5760.2466 
  210000      209.987     265.0506    11.066135    -500.3952   -489.32906    794.22233    26717.313    39053.113   -63387.759      15.2149      13.1765      28.7324    5760.2466 
  210500      210.487    288.52084    12.046041    -501.3583   -489.31225    1043.6939    23840.601    34091.722   -54801.241      15.2149      13.1765      28.7324    5760.2466 
  211000      210.987    265.72216    11.094173    -500.3872   -489.29303    714.25774    26205.276    37183.603   -61246.106      15.2149      13.1765      28.7324    5760.2466 
  211500      211.487    270.12647    11.278057   -500.55275   -489.27469    764.91763    24659.106    37184.456    -59548.81      15.2149      13.1765      28.7324    5760.2466 
  212000      211.987    291.93189    12.188456   -501.44642   -489.25796    1754.9933    24962.289    32888.648   -52585.958      15.2149      13.1765      28.7324    5760.2466 
[...]
  948500      948.487    367.94406    15.362042   -497.36928   -482.00724    3218.9478    26484.901    40464.533   -57292.591      15.2149      13.1765      28.7324    5760.2466 
  949000      948.987    381.34785    15.921664   -497.92742   -482.00576    3266.8204    28023.684    36821.115   -55044.338      15.2149      13.1765      28.7324    5760.2466 
  949500      949.487    389.43283    16.259221   -498.26308   -482.00386    4094.3366    34375.656    36539.463    -58632.11      15.2149      13.1765      28.7324    5760.2466 
  950000      949.987    369.77383    15.438437   -497.43951   -482.00107     2682.283    31462.773    39496.087   -62912.011      15.2149      13.1765      28.7324    5760.2466 
  950500      950.487     379.3664    15.838937   -497.83832   -481.99939    1760.1973    26038.025    38689.573   -59447.006      15.2149      13.1765      28.7324    5760.2466 
  951000      950.987    371.96429    15.529891   -497.52572   -481.99583     2496.438    29590.239      39355.6   -61456.524      15.2149      13.1765      28.7324    5760.2466 
  951500      951.487    390.19669    16.291113   -498.28492   -481.99381    3624.0417    30156.881    40467.893   -59752.649      15.2149      13.1765      28.7324    5760.2466 
  952000      951.987    358.76268     14.97871   -496.97119   -481.99248    4441.8768     32378.78    38728.249   -57781.398      15.2149      13.1765      28.7324    5760.2466 
  952500      952.487    374.36892    15.630287   -497.61915   -481.98886    3669.9632    27242.936    35646.776   -51879.822      15.2149      13.1765      28.7324    5760.2466 
  953000      952.987    370.98925    15.489182   -497.47624   -481.98706    2549.1786    30906.681    36545.874    -59805.02      15.2149      13.1765      28.7324    5760.2466 
  953500      953.487    371.08497    15.493179   -497.47611   -481.98294    3258.5722    27790.005    36257.996   -54272.285      15.2149      13.1765      28.7324    5760.2466 
  954000      953.987    366.22592    15.290308   -497.27062   -481.98032    4158.8542    25398.127    42335.838   -55257.402      15.2149      13.1765      28.7324    5760.2466 
  954500      954.487    392.68033    16.394807   -498.37295   -481.97814    3850.5519    29341.682    38320.066   -56110.093      15.2149      13.1765      28.7324    5760.2466 
  955000      954.987    387.03008    16.158903   -498.13402   -481.97512    3570.3803    29249.321    41709.515   -60247.695      15.2149      13.1765      28.7324    5760.2466 
  955500      955.487    369.34415    15.420498   -497.39092   -481.97042    2929.5992    24817.861    41789.736     -57818.8      15.2149      13.1765      28.7324    5760.2466 
  956000      955.987    370.93697    15.486999   -497.45659   -481.96959     2265.531    28375.727    43306.993   -64886.127      15.2149      13.1765      28.7324    5760.2466 
  956500      956.487    368.24836    15.374747    -497.3417   -481.96695    3102.5362    30078.056    40313.981   -61084.429      15.2149      13.1765      28.7324    5760.2466 
  957000      956.987     384.2724    16.043767   -498.00798   -481.96421    2666.3893    28585.213    40217.396   -60803.441      15.2149      13.1765      28.7324    5760.2466 
  957500      957.487    374.00392    15.615048   -497.57636   -481.96131    2186.9985    28502.269    39320.544   -61261.818      15.2149      13.1765      28.7324    5760.2466 
  958000      957.987    377.99929    15.781859   -497.73903   -481.95717    2168.5068    30337.315    35357.725    -59189.52      15.2149      13.1765      28.7324    5760.2466 
  958500      958.487    386.56184    16.139354   -498.09491   -481.95556    3038.9259    29958.507    40519.601    -61361.33      15.2149      13.1765      28.7324    5760.2466 
  959000      958.987    393.65344    16.435435   -498.38802   -481.95258     1994.266    27073.691    45951.141   -67042.033      15.2149      13.1765      28.7324    5760.2466 
  959500      959.487      369.461    15.425376   -497.37402   -481.94864    4001.8972    30579.862    35768.817   -54342.987      15.2149      13.1765      28.7324    5760.2466 
  960000      959.987     370.6988    15.477055   -497.42259   -481.94554    3198.0723    30508.952     36313.68   -57228.415      15.2149      13.1765      28.7324    5760.2466 
  960500      960.487    364.86105    15.233323    -497.1753   -481.94198    2963.9256    29378.367    40496.743   -60983.333      15.2149      13.1765      28.7324    5760.2466 
  961000      960.987    374.19047    15.622836    -497.5633   -481.94047    3159.6236    31646.362    37268.422   -59435.913      15.2149      13.1765      28.7324    5760.2466 
  961500      961.487    363.86076     15.19156   -497.12921   -481.93765    3650.1612    31998.118    36741.722   -57789.357      15.2149      13.1765      28.7324    5760.2466 
  962000      961.987     369.4621    15.425422   -497.36032    -481.9349    3361.6487    27990.057     38648.52   -56553.631      15.2149      13.1765      28.7324    5760.2466 
  962500      962.487     386.2653    16.126973   -498.05877   -481.93179    3037.4889     28879.98    38427.509   -58195.022      15.2149      13.1765      28.7324    5760.2466 
  963000      962.987    369.80979    15.439939   -497.36691   -481.92698    3625.8741    28554.373    42759.107   -60435.857      15.2149      13.1765      28.7324    5760.2466 
  963500      963.487    355.18658    14.829404   -496.75289   -481.92349    3795.9386    29010.385    40754.094   -58376.664      15.2149      13.1765      28.7324    5760.2466 
  964000      963.987    367.78992    15.355607   -497.27641   -481.92081    4921.5084    30411.632    37222.339   -52869.446      15.2149      13.1765      28.7324    5760.2466 
  964500      964.487    373.23767    15.583056   -497.49918   -481.91612    3613.1206    29725.491    39886.205   -58772.335      15.2149      13.1765      28.7324    5760.2466 
  965000      964.987    378.05764    15.784295   -497.69769   -481.91339    2640.4487    29197.352    37628.164    -58904.17      15.2149      13.1765      28.7324    5760.2466 
  965500      965.487    364.61609    15.223096   -497.13282   -481.90972    3321.0526    28339.407    41173.502   -59549.751      15.2149      13.1765      28.7324    5760.2466 
  966000      965.987    373.86132    15.609094   -497.51428   -481.90519    2541.6372    27230.738    40120.999   -59726.826      15.2149      13.1765      28.7324    5760.2466 
  966500      966.487    367.32797     15.33632   -497.23709   -481.90077    3289.7842    25522.749    37649.657   -53303.053      15.2149      13.1765      28.7324    5760.2466 
  967000      966.987    375.05919    15.659106   -497.55798   -481.89887    2348.1148    31958.375    38715.459   -63629.489      15.2149      13.1765      28.7324    5760.2466 
  967500      967.487     373.0518    15.575296   -497.47181   -481.89652    3656.9225    29620.481    44870.243   -63519.956      15.2149      13.1765      28.7324    5760.2466 
  968000      967.987    381.74911    15.938417   -497.82968   -481.89127    4807.1598    29237.162    41224.664   -56040.347      15.2149      13.1765      28.7324    5760.2466 
  968500      968.487     369.9631    15.446339   -497.33445   -481.88811    3971.7529    34336.665    35061.659   -57483.065      15.2149      13.1765      28.7324    5760.2466 
  969000      968.987    362.78791    15.146768   -497.03011   -481.88335    3151.9836    27901.849    42376.173   -60822.071      15.2149      13.1765      28.7324    5760.2466 
  969500      969.487     370.2153    15.456869   -497.33806   -481.88119    3779.4863    33542.954    39384.522   -61589.016      15.2149      13.1765      28.7324    5760.2466 
  970000      969.987    387.37304    16.173222   -498.05093   -481.87771    2469.2145    26540.794    36246.588   -55379.738      15.2149      13.1765      28.7324    5760.2466 
  970500      970.487    377.94142    15.779442   -497.65201   -481.87257    2931.7468     24704.43     41450.57    -57359.76      15.2149      13.1765      28.7324    5760.2466 
  971000      970.987    362.94658    15.153392   -497.02165   -481.86826    2335.8988    29688.788    38347.079   -61028.171      15.2149      13.1765      28.7324    5760.2466 
  971500      971.487    355.53825    14.844087   -496.70786   -481.86377    3363.2605     30894.04    41006.488   -61810.746      15.2149      13.1765      28.7324    5760.2466 
  972000      971.987    359.66724    15.016477   -496.87807    -481.8616    4001.4173    27761.075    43328.563   -59085.386      15.2149      13.1765      28.7324    5760.2466 
  972500      972.487    354.70381    14.809248   -496.66575    -481.8565    3560.4853    29559.637    38239.339    -57117.52      15.2149      13.1765      28.7324    5760.2466 
  973000      972.987     377.3878    15.756328   -497.60972   -481.85339    2279.1411    23333.139     42077.71   -58573.426      15.2149      13.1765      28.7324    5760.2466 
  973500      973.487    398.70208    16.646221    -498.4961   -481.84988    4267.6643    28311.405    41205.411   -56713.823      15.2149      13.1765      28.7324    5760.2466 
  974000      973.987    378.75434    15.813383    -497.6574   -481.84402     4061.156    27561.164     41132.77   -56510.466      15.2149      13.1765      28.7324    5760.2466 
  974500      974.487    385.70938    16.103763   -497.94528   -481.84152    3717.8769    32092.176    38628.734   -59567.279      15.2149      13.1765      28.7324    5760.2466 
  975000      974.987    366.31325    15.293954   -497.12994   -481.83599    2541.2534    27142.325    41455.402   -60973.967      15.2149      13.1765      28.7324    5760.2466 
  975500      975.487    354.80817    14.813605   -496.64504   -481.83144    4185.2899     29714.39    39624.669    -56783.19      15.2149      13.1765      28.7324    5760.2466 
  976000      975.987    365.47538    15.258972   -497.08743   -481.82845    3116.9654    30342.281    39559.299   -60550.684      15.2149      13.1765      28.7324    5760.2466 
  976500      976.487     363.8919    15.192861   -497.01646    -481.8236    3366.9214    24559.626    36017.614   -50476.476      15.2149      13.1765      28.7324    5760.2466 
  977000      976.987    382.78904    15.981835   -497.80157   -481.81974    4749.3357    27819.658    43138.047   -56709.698      15.2149      13.1765      28.7324    5760.2466 
  977500      977.487    380.75645    15.896973   -497.71232   -481.81535    2695.3118    30968.108    37745.098    -60627.27      15.2149      13.1765      28.7324    5760.2466 
  978000      977.987    371.21504    15.498609   -497.30896   -481.81035    3394.3211    30900.843    35336.879   -56054.758      15.2149      13.1765      28.7324    5760.2466 
  978500      978.487    380.59679    15.890307   -497.69611    -481.8058    4119.8422    27413.977    41403.187   -56457.638      15.2149      13.1765      28.7324    5760.2466 
  979000      978.987    364.92277    15.235901   -497.03701   -481.80111    2240.0201    27646.012    36969.536   -57895.488      15.2149      13.1765      28.7324    5760.2466 
  979500      979.487    378.42749    15.799736   -497.59683   -481.79709     4284.378    29542.604    41910.245   -58599.715      15.2149      13.1765      28.7324    5760.2466 
  980000      979.987    389.20687    16.249786    -498.0426   -481.79281    2420.7538    30901.458    42796.145   -66435.342      15.2149      13.1765      28.7324    5760.2466 
  980500      980.487    385.37631    16.089857   -497.87692   -481.78706    4629.4494    33079.149    34159.582   -53350.384      15.2149      13.1765      28.7324    5760.2466 
  981000      980.987    389.14744    16.247305   -498.02972   -481.78241    2529.0649    30644.895    34308.397   -57366.097      15.2149      13.1765      28.7324    5760.2466 
  981500      981.487     362.6353    15.140396   -496.91854   -481.77814    3930.1209    29921.345    44169.018   -62300.001      15.2149      13.1765      28.7324    5760.2466 
  982000      981.987    387.73723    16.188427   -497.96288   -481.77445    3088.5486    27753.547     39150.06   -57637.962      15.2149      13.1765      28.7324    5760.2466 
  982500      982.487    375.10504     15.66102   -497.43014   -481.76912    3708.3092    32693.381    40526.496   -62094.949      15.2149      13.1765      28.7324    5760.2466 
  983000      982.987    374.73807    15.645699   -497.41061   -481.76491     4537.871    27696.174    42889.388    -56971.95      15.2149      13.1765      28.7324    5760.2466 
  983500      983.487    397.43222    16.593203   -498.35347   -481.76027    4020.4784    29633.571    35202.508   -52774.644      15.2149      13.1765      28.7324    5760.2466 
  984000      983.987     383.6621    16.018287    -497.7731   -481.75482    4539.1595    29496.969    40626.456   -56505.946      15.2149      13.1765      28.7324    5760.2466 
  984500      984.487     380.5012    15.886316   -497.63622   -481.74991    3772.9034    30741.368    41185.629   -60608.286      15.2149      13.1765      28.7324    5760.2466 
  985000      984.987    372.59754     15.55633   -497.30082   -481.74449    5888.1524    29788.877     40774.46    -52898.88      15.2149      13.1765      28.7324    5760.2466 
  985500      985.487    395.58914    16.516253   -498.25795    -481.7417    4106.6085    29690.213    42904.665   -60275.052      15.2149      13.1765      28.7324    5760.2466 
  986000      985.987    386.19247    16.123932   -497.86052   -481.73659    4711.9494    31575.132    38367.732   -55807.016      15.2149      13.1765      28.7324    5760.2466 
  986500      986.487    383.84073    16.025744    -497.7572   -481.73146    3056.5363    31278.285    39601.463    -61710.14      15.2149      13.1765      28.7324    5760.2466 
  987000      986.987    389.24748    16.251482   -497.97771   -481.72623    4267.6993    26685.782    40272.749   -54155.433      15.2149      13.1765      28.7324    5760.2466 
  987500      987.487    375.41966    15.674156   -497.39504   -481.72088    4744.6934    30490.233    42077.133   -58333.285      15.2149      13.1765      28.7324    5760.2466 
  988000      987.987    380.53507     15.88773   -497.60402   -481.71629    2983.0494    28397.975    38673.644   -58122.471      15.2149      13.1765      28.7324    5760.2466 
  988500      988.487    354.54228    14.802504   -496.51375   -481.71125    4225.7732    27834.802    37638.073   -52795.555      15.2149      13.1765      28.7324    5760.2466 
  989000      988.987    362.20453    15.122411   -496.82811   -481.70569    2527.0632    26547.457    41505.132   -60471.399      15.2149      13.1765      28.7324    5760.2466 
  989500      989.487    373.73823    15.603955   -497.30367   -481.69971    3208.2812    34414.312    33600.096   -58389.564      15.2149      13.1765      28.7324    5760.2466 
  990000      989.987     389.3556    16.255996   -497.95241   -481.69641    2132.2624    26915.325     38903.25   -59421.788      15.2149      13.1765      28.7324    5760.2466 
  990500      990.487    361.94265    15.111477   -496.80069   -481.68921    3000.0781    29188.809    40476.448   -60665.022      15.2149      13.1765      28.7324    5760.2466 
  991000      990.987    365.09825    15.243227   -496.92683    -481.6836    4017.2865    30993.891    34808.827   -53750.858      15.2149      13.1765      28.7324    5760.2466 
  991500      991.487    378.94917    15.821517   -497.50085   -481.67933    4447.4985    29703.079    36757.511   -53118.095      15.2149      13.1765      28.7324    5760.2466 
  992000      991.987    388.52114    16.221157   -497.89492   -481.67376    3837.5889     28168.51    41366.184   -58021.927      15.2149      13.1765      28.7324    5760.2466 
  992500      992.487    381.61672     15.93289   -497.60107   -481.66818    2285.3652    29544.972    40747.019   -63435.895      15.2149      13.1765      28.7324    5760.2466 
  993000      992.987    384.93862    16.071583   -497.73461   -481.66303    4304.4068     27608.69    39014.233   -53709.703      15.2149      13.1765      28.7324    5760.2466 
  993500      993.487    383.01607    15.991314   -497.64978   -481.65847     3263.907    29135.151     37948.07     -57291.5      15.2149      13.1765      28.7324    5760.2466 
  994000      993.987    364.91046    15.235386   -496.88788   -481.65249    3631.2691    29406.527    37556.757   -56069.477      15.2149      13.1765      28.7324    5760.2466 
  994500      994.487    370.35435    15.462674   -497.10893   -481.64625    3649.3625    29900.208    39389.947   -58342.068      15.2149      13.1765      28.7324    5760.2466 
  995000      994.987    378.34049    15.796104    -497.4386   -481.64249    3746.9838    32320.176    37833.347   -58912.572      15.2149      13.1765      28.7324    5760.2466 
  995500      995.487    383.81983    16.024872   -497.66223   -481.63736    3211.7287    28505.329    37625.659   -56495.802      15.2149      13.1765      28.7324    5760.2466 
  996000      995.987    378.96301    15.822095   -497.45349    -481.6314    3878.7127    29438.813    37743.289   -55545.963      15.2149      13.1765      28.7324    5760.2466 
  996500      996.487    378.50786    15.803092   -497.42786   -481.62476     2716.761    30001.718    41124.633   -62976.068      15.2149      13.1765      28.7324    5760.2466 
  997000      996.987    372.56599    15.555013   -497.17414   -481.61913    3263.4259    28933.728     40992.75     -60136.2      15.2149      13.1765      28.7324    5760.2466 
  997500      997.487    387.71539    16.187515   -497.80174   -481.61423    4012.8554    29625.406    41256.925   -58843.765      15.2149      13.1765      28.7324    5760.2466 
  998000      997.987    365.22993    15.248724   -496.85548   -481.60676    4003.6941    27516.726    43327.466    -58833.11      15.2149      13.1765      28.7324    5760.2466 
  998500      998.487    365.63146    15.265489   -496.86545   -481.59996    3198.2984     29509.09    43120.876    -63035.07      15.2149      13.1765      28.7324    5760.2466 
  999000      998.987    366.20656      15.2895   -496.88393   -481.59443    2408.9246    30170.555    37588.609    -60532.39      15.2149      13.1765      28.7324    5760.2466 
  999500      999.487      387.291    16.169797   -497.76023   -481.59044    3098.0857    26907.675     41450.71   -59064.128      15.2149      13.1765      28.7324    5760.2466 
 1000000      999.987    384.02797    16.033562   -497.61613   -481.58257    3157.0048    32504.661    37988.965   -61022.612      15.2149      13.1765      28.7324    5760.2466 
 1000013         1000    376.31277    15.711445   -497.29562   -481.58418    3749.7086    28037.516    42022.484   -58810.875      15.2149      13.1765      28.7324    5760.2466 
Loop time of 887.744 on 28 procs for 1000000 steps with 324 atoms

Performance: 97.325 ns/day, 0.247 hours/ns, 1126.451 timesteps/s
87.8% CPU use with 28 MPI tasks x no OpenMP threads

MPI task timing breakdown:
Section |  min time  |  avg time  |  max time  |%varavg| %total
---------------------------------------------------------------
Pair    | 726.11     | 766.92     | 816.78     |  80.5 | 86.39
Neigh   | 0          | 0          | 0          |   0.0 |  0.00
Comm    | 60.108     | 107.18     | 150.18     | 233.9 | 12.07
Output  | 0.099327   | 0.10159    | 0.12022    |   1.2 |  0.01
Modify  | 4.5516     | 8.3954     | 21.396     | 184.6 |  0.95
Other   |            | 5.147      |            |       |  0.58

Nlocal:    11.5714 ave 15 max 8 min
Histogram: 1 4 4 0 6 6 0 1 1 5
Nghost:    663.036 ave 716 max 625 min
Histogram: 8 2 2 3 5 0 0 0 4 4
Neighs:    724.214 ave 986 max 513 min
Histogram: 3 2 4 5 4 3 1 1 2 3
FullNghs:  1448.43 ave 1885 max 1006 min
Histogram: 1 4 4 0 6 6 0 1 1 5

Total # of neighbors = 40556
Ave neighs/atom = 125.173
Neighbor list builds = 0
Dangerous builds = 0

write_restart   POSCAR_1x1x1.rest

#unfix    1
#undump   1
Total wall time: 0:14:47
