LAMMPS (7 Dec 2015)
#----------- Initialize Simulation ------------ restart01
#processors	2 2 2
units		metal
boundary	p p p     ## periodic boundary condition  on x y z axis ##
atom_style atomic
#atom_modify map array sort 0 0.0

read_data	POSCAR_1x1x1.lammps
  triclinic box = (0 0 0) to (15.2149 13.1765 28.7324) with tilt (-7.60743 0 0)
  2 by 2 by 7 MPI processor grid
  reading atoms ...
  324 atoms

#----------- Define Potential -----------------
pair_style meam
pair_coeff * * MgAlZn.library.meam Mg Al Zn MgAlZn.parameter.meam Mg Al Zn 	#1=Mg 2=Al 3=Zn	#atoms/mass

#----------- Neighbor List --------------------
neighbor 2.0 bin
neigh_modify delay 10 check yes

#--------------  Run a simulation (minimization) ---------------------------------------
minimize       1.0e-4   1.0e-6   100   1000          #結構優化的條件
WARNING: Resetting reneighboring criteria during minimization (../min.cpp:168)
Neighbor list info ...
  2 neighbor list requests
  update every 1 steps, delay 0 steps, check yes
  max neighbors/atom: 2000, page size: 100000
  master list distance cutoff = 8
  ghost atom cutoff = 8
  binsize = 4 -> bins = 6 4 8
Memory usage per processor = 8.65336 Mbytes
Step Temp E_pair E_mol TotEng Press 
       0            0   -599.27847            0   -599.27847     16454.59 
      12            0   -614.09902            0   -614.09902    12776.058 
Loop time of 0.0216932 on 28 procs for 12 steps with 324 atoms

86.4% CPU use with 28 MPI tasks x no OpenMP threads

Minimization stats:
  Stopping criterion = energy tolerance
  Energy initial, next-to-last, final = 
        -599.278465887     -614.061307344     -614.099020631
  Force two-norm initial, final = 23.7477 2.81958
  Force max component initial, final = 3.34713 1.21166
  Final line search alpha, max atom move = 0.102568 0.124278
  Iterations, force evaluations = 12 23

MPI task timing breakdown:
Section |  min time  |  avg time  |  max time  |%varavg| %total
---------------------------------------------------------------
Pair    | 0.016738   | 0.018389   | 0.019746   |   0.6 | 84.77
Neigh   | 0          | 0          | 0          |   0.0 |  0.00
Comm    | 0.0011913  | 0.0024704  | 0.0041312  |   1.6 | 11.39
Output  | 0          | 0          | 0          |   0.0 |  0.00
Modify  | 0          | 0          | 0          |   0.0 |  0.00
Other   |            | 0.0008337  |            |       |  3.84

Nlocal:    11.5714 ave 16 max 5 min
Histogram: 2 1 4 1 0 3 5 2 5 5
Nghost:    658.286 ave 709 max 617 min
Histogram: 6 6 0 0 0 4 6 2 2 2
Neighs:    720.036 ave 958 max 318 min
Histogram: 1 2 3 2 0 4 4 1 2 9
FullNghs:  1440.07 ave 1931 max 633 min
Histogram: 2 1 4 1 0 3 5 1 6 5

Total # of neighbors = 40322
Ave neighs/atom = 124.451
Neighbor list builds = 0
Dangerous builds = 0
velocity all  create 393.0 4928459 #rot yes dist gaussian

#--------------  Run a simulation (Relaxation)  ----------------------------------------
fix  1  all  nvt   temp  393.0  393.0  100				#damping constant
#fix  2  all  npt   temp  393.0  393.0  50 iso 0.0 0.0 1000.0
#fix  2  all deform 1 x final 0 15.6906 y final 0 13.5884 z final 0 25.2339 xy final -7.8452 units lattice
#fix  3  all  npt   temp  393.0  393.0  50 z 0.0 0.0 1000.0

#variable b equal 1
#fix 2 all efield  0.0  0.0  v_b
#compute pot all pe/atom


#----------- Output --------------------------
thermo	 500
timestep  0.001		#1.0 fs
thermo_style	custom step time temp ke pe etotal press pxx pyy pzz lx ly lz vol

dump 1 all custom 10000 dump.eq id type x y z
dump_modify 1 sort  id

run        1000000	#10000	 ps
Neighbor list info ...
  2 neighbor list requests
  update every 1 steps, delay 10 steps, check yes
  max neighbors/atom: 2000, page size: 100000
  master list distance cutoff = 8
  ghost atom cutoff = 8
  binsize = 4 -> bins = 6 4 8
Memory usage per processor = 7.54383 Mbytes
Step Time Temp KinEng PotEng TotEng Press Pxx Pyy Pzz Lx Ly Lz Volume 
      12            0          393    16.408154   -614.09902   -597.69087    15818.608    34246.435    43315.305   -30105.916      15.2149      13.1765      28.7324    5760.2466 
     500        0.488    219.16554    9.1503862   -606.83589    -597.6855    16833.164    38592.073    48461.268   -36553.849      15.2149      13.1765      28.7324    5760.2466 
    1000        0.988    210.61983    8.7935941   -606.47781   -597.68422    17432.454    41395.111    48757.069   -37854.818      15.2149      13.1765      28.7324    5760.2466 
    1500        1.488    211.62896    8.8357266   -606.51932   -597.68359    16026.886     38775.35    44991.672   -35686.365      15.2149      13.1765      28.7324    5760.2466 
    2000        1.988    233.55849     9.751307   -607.43503   -597.68373    18740.812    39855.324    51491.109   -35123.995      15.2149      13.1765      28.7324    5760.2466 
    2500        2.488    223.29568    9.3228239   -607.00509   -597.68227    16546.602    38903.885    45974.823   -35238.902      15.2149      13.1765      28.7324    5760.2466 
    3000        2.988    216.86296    9.0542514   -606.73462   -597.68037    15826.534    38226.203    46306.905   -37053.505      15.2149      13.1765      28.7324    5760.2466 
    3500        3.488    228.04991    9.5213179   -607.20134   -597.68002    16857.819    37480.648      49965.2   -36872.391      15.2149      13.1765      28.7324    5760.2466 
    4000        3.988    225.21274     9.402863   -607.08075   -597.67789    17253.597    38563.126    47046.491   -33848.825      15.2149      13.1765      28.7324    5760.2466 
    4500        4.488    228.28548     9.531153   -607.20752   -597.67637    15921.165    36144.876    49728.441   -38109.821      15.2149      13.1765      28.7324    5760.2466 
    5000        4.988    232.55429    9.7093805   -607.38414   -597.67476    18638.057    37038.289    48903.995   -30028.114      15.2149      13.1765      28.7324    5760.2466 
    5500        5.488    235.88865    9.8485933    -607.5212    -597.6726    18418.341    41700.058    54238.563   -40683.599      15.2149      13.1765      28.7324    5760.2466 
    6000        5.988    233.72087    9.7580865   -607.42792   -597.66983     17414.83    36903.334    51893.634   -36552.477      15.2149      13.1765      28.7324    5760.2466 
    6500        6.488    231.71554    9.6743618     -607.342   -597.66764    15780.576    38227.448    53647.867   -44533.587      15.2149      13.1765      28.7324    5760.2466 
    7000        6.988    229.28863    9.5730356    -607.2369   -597.66386    17213.752    34798.511    50543.854   -33701.107      15.2149      13.1765      28.7324    5760.2466 
    7500        7.488    222.01199    9.2692286   -606.93043    -597.6612    17403.053    38940.956    54631.517   -41363.313      15.2149      13.1765      28.7324    5760.2466 
    8000        7.988    222.99352    9.3102085   -606.96833   -597.65813    16074.375    36847.634    47044.002   -35668.512      15.2149      13.1765      28.7324    5760.2466 
    8500        8.488    229.66098    9.5885819   -607.24225   -597.65367    16667.505    38600.052    50146.903   -38744.442      15.2149      13.1765      28.7324    5760.2466 
    9000        8.988    229.62411    9.5870425   -607.23785   -597.65081    16884.323    40437.091    50525.934   -40310.055      15.2149      13.1765      28.7324    5760.2466 
    9500        9.488    225.42955     9.411915   -607.05869   -597.64677    16685.419    37971.734    50995.235   -38910.711      15.2149      13.1765      28.7324    5760.2466 
   10000        9.988    232.12063    9.6912747   -607.33402   -597.64275    16980.911    42035.282     53010.72    -44103.27      15.2149      13.1765      28.7324    5760.2466 
   10500       10.488    234.70158    9.7990319   -607.43905   -597.64002    18288.553    37572.744    53025.821   -35732.905      15.2149      13.1765      28.7324    5760.2466 
   11000       10.988    236.02869    9.8544402   -607.48952   -597.63508    17479.084    37012.516    53691.509   -38266.773      15.2149      13.1765      28.7324    5760.2466 
   11500       11.488    224.38083      9.36813   -606.99893    -597.6308    17441.143    38672.996    54388.758   -40738.324      15.2149      13.1765      28.7324    5760.2466 
   12000       11.988     230.9627      9.64293   -607.26848   -597.62555     18054.34    37443.208    53554.454   -36834.642      15.2149      13.1765      28.7324    5760.2466 
   12500       12.488    229.24839    9.5713559   -607.19102   -597.61966    17978.661    35590.355    51987.695   -33642.066      15.2149      13.1765      28.7324    5760.2466 
   13000       12.988    238.74338    9.9677812   -607.58355   -597.61577    17419.072    38547.653    48984.217   -35274.655      15.2149      13.1765      28.7324    5760.2466 
   13500       13.488    234.72373    9.7999568   -607.40985   -597.60989    16055.822    34928.574    52038.705   -38799.812      15.2149      13.1765      28.7324    5760.2466 
   14000       13.988    231.98673    9.6856841   -607.28982   -597.60414    18003.625    37817.532    53305.646   -37112.303      15.2149      13.1765      28.7324    5760.2466 
   14500       14.488    241.00359    10.062147   -607.66052   -597.59837    19087.939    38814.783    52655.709   -34206.675      15.2149      13.1765      28.7324    5760.2466 
   15000       14.988    242.73098    10.134268   -607.72762   -597.59335    18265.284    37362.548    52418.876   -34985.574      15.2149      13.1765      28.7324    5760.2466 
   15500       15.488    227.07121    9.4804561   -607.06596    -597.5855    18173.016    39922.363    50041.425    -35444.74      15.2149      13.1765      28.7324    5760.2466 
   16000       15.988    223.68702    9.3391627   -606.91914   -597.57998    18368.445     37396.01     52477.51   -34768.185      15.2149      13.1765      28.7324    5760.2466 
   16500       16.488    230.50044    9.6236299   -607.19664   -597.57301    18119.304    40678.383    50418.621   -36739.092      15.2149      13.1765      28.7324    5760.2466 
   17000       16.988    241.20224    10.070441   -607.63636   -597.56592    18122.545    35573.159    50576.725   -31782.248      15.2149      13.1765      28.7324    5760.2466 
   17500       17.488    228.73079    9.5497452   -607.10892   -597.55917    16851.167    33489.984    49392.716   -32329.199      15.2149      13.1765      28.7324    5760.2466 
   18000       17.988    221.89187    9.2642132    -606.8156   -597.55139    17471.028    36598.782    51160.868   -35346.568      15.2149      13.1765      28.7324    5760.2466 
   18500       18.488    244.06874    10.190121   -607.73496   -597.54484    16947.984    36354.239    52901.808   -38412.095      15.2149      13.1765      28.7324    5760.2466 
   19000       18.988    233.43971    9.7463477   -607.28301   -597.53667    17578.393    37849.355    53523.297   -38637.474      15.2149      13.1765      28.7324    5760.2466 
   19500       19.488    233.34634    9.7424494   -607.27168   -597.52923    17646.613    39928.655     51577.93   -38566.747      15.2149      13.1765      28.7324    5760.2466 
   20000       19.988    239.55826    10.001803     -607.523   -597.52119    17582.423    39238.505    50589.496    -37080.73      15.2149      13.1765      28.7324    5760.2466 
   20500       20.488    232.09491    9.6902007   -607.20237   -597.51217     18358.19    39246.906    49980.827   -34153.163      15.2149      13.1765      28.7324    5760.2466 
   21000       20.988    234.94375    9.8091428   -607.31328   -597.50414    17277.863    39046.859    50690.212   -37903.481      15.2149      13.1765      28.7324    5760.2466 
   21500       21.488    228.04429    9.5210831   -607.01669   -597.49561    16657.316    36250.754    52436.609   -38715.414      15.2149      13.1765      28.7324    5760.2466 
   22000       21.988    239.61015     10.00397   -607.49131   -597.48734    17925.613    39260.297    50168.734   -35652.193      15.2149      13.1765      28.7324    5760.2466 
   22500       22.488    231.21521    9.6534726   -607.13141   -597.47793    16540.737    37412.114    50667.889   -38457.793      15.2149      13.1765      28.7324    5760.2466 
   23000       22.988    247.06605    10.315261   -607.78508   -597.46982    17004.266    38076.077    47251.727   -34315.005      15.2149      13.1765      28.7324    5760.2466 
   23500       23.488    226.13487     9.441363   -606.90168   -597.46032    17897.915    38531.948    50329.869   -35168.071      15.2149      13.1765      28.7324    5760.2466 
   24000       23.988    240.85561    10.055969   -607.50708   -597.45111    18024.771     38514.08    53269.363   -37709.132      15.2149      13.1765      28.7324    5760.2466 
   24500       24.488     236.2406    9.8632875   -607.30359   -597.44031    16180.851    36147.177    47415.362   -35019.986      15.2149      13.1765      28.7324    5760.2466 
   25000       24.988    245.01494    10.229625    -607.6617   -597.43208    17146.803    40688.545    46709.746   -35957.883      15.2149      13.1765      28.7324    5760.2466 
   25500       25.488    221.34136    9.2412291   -606.66216   -597.42093    17319.498    39685.713    50079.375   -37806.592      15.2149      13.1765      28.7324    5760.2466 
   26000       25.988    231.57435    9.6684668   -607.08002   -597.41155     16343.38    37705.692    53256.284   -41931.837      15.2149      13.1765      28.7324    5760.2466 
   26500       26.488    232.53468    9.7085617   -607.10944   -597.40088    18206.519    37613.375    49726.003   -32719.821      15.2149      13.1765      28.7324    5760.2466 
   27000       26.988    245.76466    10.260927   -607.65147   -597.39054    17168.804    38671.803    49794.661   -36960.053      15.2149      13.1765      28.7324    5760.2466 
   27500       27.488    232.66836     9.714143   -607.09354    -597.3794    20007.011    39269.256    51598.552   -30846.774      15.2149      13.1765      28.7324    5760.2466 
   28000       27.988    234.13327    9.7753043   -607.14428   -597.36898    17891.521    37754.697    51450.813   -35530.947      15.2149      13.1765      28.7324    5760.2466 
   28500       28.488    235.60209    9.8366294   -607.19484   -597.35821    18437.356    37790.448    52268.909   -34747.289      15.2149      13.1765      28.7324    5760.2466 
   29000       28.988    239.91321    10.016623   -607.36329   -597.34667    18074.643    40762.128    47860.385   -34398.585      15.2149      13.1765      28.7324    5760.2466 
   29500       29.488    257.24814    10.740374   -608.07725   -597.33688    18331.503    39208.726    48862.124   -33076.339      15.2149      13.1765      28.7324    5760.2466 
   30000       29.988    239.08154    9.9818998   -607.30667   -597.32477    17963.109    38386.536    52911.304   -37408.513      15.2149      13.1765      28.7324    5760.2466 
   30500       30.488    214.83399    8.9695396   -606.28138   -597.31184    17994.536    41848.257    49445.682   -37310.331      15.2149      13.1765      28.7324    5760.2466 
   31000       30.988    227.51728    9.4990801   -606.79923   -597.30015    15240.855    37279.622    47795.358   -39352.417      15.2149      13.1765      28.7324    5760.2466 
   31500       31.488      232.734    9.7168833   -607.00582   -597.28894     17676.12    38551.028    52465.191   -37987.859      15.2149      13.1765      28.7324    5760.2466 
   32000       31.988    237.65942    9.9225248   -607.19992    -597.2774    17124.883     38121.75    50736.649   -37483.749      15.2149      13.1765      28.7324    5760.2466 
   32500       32.488    236.20106    9.8616369   -607.12621   -597.26457    16418.083    35361.514     50509.55   -36616.816      15.2149      13.1765      28.7324    5760.2466 
   33000       32.988    243.10174    10.149747   -607.40335    -597.2536    16175.562    36387.573    51773.898   -39634.784      15.2149      13.1765      28.7324    5760.2466 
   33500       33.488    234.59675    9.7946551    -607.0357   -597.24105    16168.994    34595.429    50537.166   -36625.614      15.2149      13.1765      28.7324    5760.2466 
   34000       33.988    229.71388    9.5907905   -606.81874   -597.22795    18818.397    39654.002    48937.941   -32136.752      15.2149      13.1765      28.7324    5760.2466 
   34500       34.488    241.49281    10.082573   -607.29881   -597.21624    17279.043    36523.841    48756.205   -33442.916      15.2149      13.1765      28.7324    5760.2466 
   35000       34.988    224.95584    9.3921374    -606.5951   -597.20296    17808.036    36387.578    54849.654   -37813.123      15.2149      13.1765      28.7324    5760.2466 
   35500       35.488    234.36207    9.7848573   -606.97625   -597.19139    15921.583    36036.567    51425.385   -39697.202      15.2149      13.1765      28.7324    5760.2466 
   36000       35.988     240.9042    10.057998   -607.23734   -597.17934     17987.57    38753.985    54822.469   -39613.746      15.2149      13.1765      28.7324    5760.2466 
   36500       36.488    226.94115    9.4750259   -606.63931   -597.16428    17063.846    38542.474    51433.842   -38784.778      15.2149      13.1765      28.7324    5760.2466 
   37000       36.988    249.08726    10.399649   -607.55286   -597.15321    16491.564    37608.295    49598.657    -37732.26      15.2149      13.1765      28.7324    5760.2466 
   37500       37.488    249.83308    10.430788   -607.57039    -597.1396    18677.006    36669.464    50196.108   -30834.554      15.2149      13.1765      28.7324    5760.2466 
   38000       37.988    247.97948    10.353398   -607.47983   -597.12643    18915.166    40180.521    52300.234   -35735.258      15.2149      13.1765      28.7324    5760.2466 
   38500       38.488    236.52878    9.8753196   -606.98848   -597.11316    17895.331    35830.242    52870.164   -35014.414      15.2149      13.1765      28.7324    5760.2466 
   39000       38.988    242.57768    10.127867   -607.22779   -597.09992    17640.802    39876.137    52804.522   -39758.252      15.2149      13.1765      28.7324    5760.2466 
   39500       39.488    238.45711    9.9558294   -607.04163    -597.0858    16765.946    40073.283    47974.968   -37750.414      15.2149      13.1765      28.7324    5760.2466 
   40000       39.988    243.99911    10.187213   -607.26077   -597.07355    18097.665    39941.543    49598.229   -35246.779      15.2149      13.1765      28.7324    5760.2466 
   40500       40.488    247.25151    10.323005   -607.38197   -597.05896    18405.797    41156.022    48713.335   -34651.966      15.2149      13.1765      28.7324    5760.2466 
   41000       40.988    252.99594     10.56284   -607.60955   -597.04671    19732.548    38570.262    53417.711   -32790.331      15.2149      13.1765      28.7324    5760.2466 
   41500       41.488    250.48951    10.458194   -607.49155   -597.03336    18853.649    38725.995    48270.284   -30435.332      15.2149      13.1765      28.7324    5760.2466 
   42000       41.988    243.63611    10.172058   -607.19095   -597.01889    17533.779    38798.313    52064.554    -38261.53      15.2149      13.1765      28.7324    5760.2466 
   42500       42.488    245.57247    10.252903   -607.25883   -597.00593     19558.96    40403.192    52968.823   -34695.134      15.2149      13.1765      28.7324    5760.2466 
   43000       42.988    259.49637     10.83424   -607.82704    -596.9928    18469.395    38896.169    50836.661   -34324.646      15.2149      13.1765      28.7324    5760.2466 
   43500       43.488    247.94784    10.352077   -607.33085   -596.97878     17916.42    39953.576    51119.016   -37323.331      15.2149      13.1765      28.7324    5760.2466 
   44000       43.988    234.43319    9.7878265   -606.75352    -596.9657     16572.51    39674.261     47151.15    -37107.88      15.2149      13.1765      28.7324    5760.2466 
   44500       44.488    256.65649    10.715672   -607.66917   -596.95349     18523.67    37947.663    54040.079   -36416.734      15.2149      13.1765      28.7324    5760.2466 
   45000       44.988    243.19305     10.15356   -607.09218   -596.93862    19946.559    44864.227    49193.647   -34218.198      15.2149      13.1765      28.7324    5760.2466 
   45500       45.488    255.43497    10.664672   -607.59123   -596.92656    17535.941    37631.181    52173.448   -37196.806      15.2149      13.1765      28.7324    5760.2466 
   46000       45.988    248.73577    10.384974   -607.29738    -596.9124    19526.012    37616.673    50672.839   -29711.475      15.2149      13.1765      28.7324    5760.2466 
   46500       46.488    248.77152    10.386466   -607.28501   -596.89854    17723.104    40387.505    49874.059   -37092.253      15.2149      13.1765      28.7324    5760.2466 
   47000       46.988    239.39153     9.994842   -606.87994    -596.8851     17598.69    38601.736    49837.423   -35643.087      15.2149      13.1765      28.7324    5760.2466 
   47500       47.488    257.50301    10.751015   -607.62323   -596.87222    19527.172    41463.119    49156.061   -32037.664      15.2149      13.1765      28.7324    5760.2466 
   48000       47.988    244.85372    10.222894   -607.08126   -596.85836    18372.645    38103.847    56929.062   -39914.974      15.2149      13.1765      28.7324    5760.2466 
   48500       48.488    238.38813    9.9529491   -606.79799   -596.84504    19220.132    36796.003    49529.053   -28664.661      15.2149      13.1765      28.7324    5760.2466 
   49000       48.988    244.54138    10.209854   -607.04277   -596.83292    16874.804    39849.009    50775.342    -39999.94      15.2149      13.1765      28.7324    5760.2466 
   49500       49.488    254.30103    10.617329   -607.43689   -596.81956    18984.461    38675.654    51497.177   -33219.448      15.2149      13.1765      28.7324    5760.2466 
   50000       49.988    237.88257    9.9318415   -606.73868   -596.80684    16852.719    37401.119    50502.589   -37345.551      15.2149      13.1765      28.7324    5760.2466 
   50500       50.488    256.39455    10.704736   -607.49909   -596.79435    19284.825    42007.122    51684.437   -35837.085      15.2149      13.1765      28.7324    5760.2466 
   51000       50.988    241.12946    10.067403   -606.84835   -596.78095    17758.641    41305.334    53462.787   -41492.197      15.2149      13.1765      28.7324    5760.2466 
   51500       51.488    239.10342    9.9828135   -606.75101    -596.7682    16262.972    37855.655    50231.752   -39298.492      15.2149      13.1765      28.7324    5760.2466 
   52000       51.988    242.93077    10.142609   -606.89819   -596.75558    19502.962     42745.43    54862.419   -39098.964      15.2149      13.1765      28.7324    5760.2466 
   52500       52.488    247.36229     10.32763   -607.07059   -596.74296    18525.874    37711.687    55027.704    -37161.77      15.2149      13.1765      28.7324    5760.2466 
   53000       52.988    235.74157    9.8424525   -606.57292   -596.73047    18249.961    40164.446    53608.076   -39022.638      15.2149      13.1765      28.7324    5760.2466 
   53500       53.488    247.37973    10.328358   -607.04617   -596.71781    17627.116    42011.545    54151.264   -43281.461      15.2149      13.1765      28.7324    5760.2466 
   54000       53.988    250.61481    10.463426   -607.16962   -596.70619    16817.688    39789.584    50272.245   -39608.764      15.2149      13.1765      28.7324    5760.2466 
   54500       54.488    235.81234    9.8454073   -606.53809   -596.69268    18979.978    42707.976     55487.01   -41255.051      15.2149      13.1765      28.7324    5760.2466 
   55000       54.988    252.49869     10.54208   -607.22284   -596.68076    17603.159    39987.664    52170.518   -39348.706      15.2149      13.1765      28.7324    5760.2466 
   55500       55.488    233.83848    9.7629965   -606.43111   -596.66811    17701.148    37668.036     54733.33   -39297.922      15.2149      13.1765      28.7324    5760.2466 
   56000       55.988    243.61202    10.171052   -606.82692   -596.65587    16883.995    38807.493    51336.679   -39492.185      15.2149      13.1765      28.7324    5760.2466 
   56500       56.488    249.24257    10.406133   -607.05049   -596.64436    17752.735    37706.247    50771.965   -35220.008      15.2149      13.1765      28.7324    5760.2466 
   57000       56.988    245.26577    10.240098   -606.87256   -596.63246    17754.753    39801.262    50067.222   -36604.225      15.2149      13.1765      28.7324    5760.2466 
   57500       57.488    236.80289    9.8867637    -606.5066   -596.61984    17660.008    35344.086    54148.368   -36512.429      15.2149      13.1765      28.7324    5760.2466 
   58000       57.988    245.36748    10.244344   -606.85225    -596.6079    18452.336    39861.239    50608.862   -35113.093      15.2149      13.1765      28.7324    5760.2466 
   58500       58.488      251.607    10.504851   -607.10153   -596.59668    19151.238    40709.897    50456.363   -33712.547      15.2149      13.1765      28.7324    5760.2466 
   59000       58.988    254.29892    10.617241   -607.20202   -596.58478    17123.015    38347.106    52059.527   -39037.587      15.2149      13.1765      28.7324    5760.2466 
   59500       59.488    243.90439    10.183259   -606.75565   -596.57239    18128.325    37376.387      53601.7   -36593.112      15.2149      13.1765      28.7324    5760.2466 
   60000       59.988    248.10621    10.358689   -606.92033   -596.56164    18216.398    39393.709     51425.11   -36169.626      15.2149      13.1765      28.7324    5760.2466 
   60500       60.488    245.37782    10.244776   -606.79446   -596.54968    18114.625    36518.732     53406.13   -35580.987      15.2149      13.1765      28.7324    5760.2466 
   61000       60.988    254.79281    10.637861   -607.17702   -596.53916    18110.434    37074.124    52597.235   -35340.056      15.2149      13.1765      28.7324    5760.2466 
   61500       61.488    266.46528    11.125199   -607.65343   -596.52823    19810.435    38517.281    50748.709   -29834.685      15.2149      13.1765      28.7324    5760.2466 
   62000       61.988    246.42201    10.288372   -606.80521   -596.51684    18568.967    35487.533    51393.745   -31174.376      15.2149      13.1765      28.7324    5760.2466 
   62500       62.488    239.16916    9.9855581   -606.48904   -596.50348    17946.124    38217.758    53237.218   -37616.604      15.2149      13.1765      28.7324    5760.2466 
   63000       62.988    242.75426     10.13524   -606.62874    -596.4935     17378.17    38099.077    50620.579   -36585.147      15.2149      13.1765      28.7324    5760.2466 
   63500       63.488    239.64857    10.005574    -606.4872   -596.48163    18415.585     42011.37    52310.919   -39075.533      15.2149      13.1765      28.7324    5760.2466 
   64000       63.988    248.10657    10.358704   -606.82958   -596.47088     17775.07    36588.378    50826.698   -34089.866      15.2149      13.1765      28.7324    5760.2466 
   64500       64.488    259.14803    10.819696   -607.27945   -596.45976    17844.409    41966.727    48808.755   -37242.256      15.2149      13.1765      28.7324    5760.2466 
   65000       64.988    248.22637    10.363706   -606.81202   -596.44831    17415.333    39717.595    50577.628   -38049.224      15.2149      13.1765      28.7324    5760.2466 
   65500       65.488    252.62858    10.547503   -606.98527   -596.43777    17808.681    38356.962    46352.103   -31283.023      15.2149      13.1765      28.7324    5760.2466 
   66000       65.988    258.19933    10.780087    -607.2073   -596.42721    19239.737    40998.337    51313.207   -34592.334      15.2149      13.1765      28.7324    5760.2466 
   66500       66.488    250.13723    10.443486   -606.85924   -596.41575    17658.915     39806.78    48502.451   -35332.486      15.2149      13.1765      28.7324    5760.2466 
   67000       66.988    264.12518    11.027497   -607.43247   -596.40497    17874.348    38767.341    53372.974   -38517.271      15.2149      13.1765      28.7324    5760.2466 
   67500       67.488    243.54796    10.168377   -606.56201   -596.39363    18120.672    36797.269    52016.677   -34451.929      15.2149      13.1765      28.7324    5760.2466 
   68000       67.988    238.42412    9.9544519   -606.33759   -596.38313    16563.129    35380.241    48902.784   -34593.637      15.2149      13.1765      28.7324    5760.2466 
   68500       68.488    258.58131    10.796035   -607.16828   -596.37225    17785.839    40941.124    49695.684   -37279.291      15.2149      13.1765      28.7324    5760.2466 
   69000       68.988    231.34232    9.6587793   -606.01929   -596.36051    16534.599    39717.902    49890.514   -40004.618      15.2149      13.1765      28.7324    5760.2466 
   69500       69.488    254.03197    10.606096   -606.95652   -596.35042    19043.797    39386.998     53035.91   -35291.519      15.2149      13.1765      28.7324    5760.2466 
   70000       69.988    250.32548    10.451346   -606.79107   -596.33972    17814.682    39234.437     50260.48    -36050.87      15.2149      13.1765      28.7324    5760.2466 
   70500       70.488    256.37174    10.703783   -607.03242   -596.32864    18636.183    35958.788    54901.121   -34951.359      15.2149      13.1765      28.7324    5760.2466 
   71000       70.988    255.63456    10.673006   -606.99099   -596.31798    17640.492    37836.698    48900.237    -33815.46      15.2149      13.1765      28.7324    5760.2466 
   71500       71.488    244.37471    10.202895   -606.50941   -596.30652    18771.939    37347.015    50323.011   -31354.208      15.2149      13.1765      28.7324    5760.2466 
   72000       71.988    219.05311    9.1456922   -605.44082   -596.29513    18627.208    39482.063    49729.174   -33329.612      15.2149      13.1765      28.7324    5760.2466 
   72500       72.488    258.00166    10.771834   -607.05845   -596.28661    17157.777    41124.011    48171.533   -37822.214      15.2149      13.1765      28.7324    5760.2466 
   73000       72.988    267.38791     11.16372   -607.43975   -596.27603     18090.46    38444.515    53507.076   -37680.211      15.2149      13.1765      28.7324    5760.2466 
   73500       73.488    235.77431    9.8438194   -606.10741   -596.26359    16783.932    40152.819    48703.059    -38504.08      15.2149      13.1765      28.7324    5760.2466 
   74000       73.988    257.96386    10.770256   -607.02394   -596.25369    19516.167    41704.204    50910.113   -34065.814      15.2149      13.1765      28.7324    5760.2466 
   74500       74.488    247.83255    10.347263   -606.58973   -596.24247    18092.118    37065.288    55551.069   -38340.005      15.2149      13.1765      28.7324    5760.2466 
   75000       74.988    244.93728    10.226383   -606.45818   -596.23179    16943.104    38242.921    50124.979   -37538.588      15.2149      13.1765      28.7324    5760.2466 
   75500       75.488    246.18228    10.278363   -606.50022   -596.22185     16526.77    41653.488    50945.003    -43018.18      15.2149      13.1765      28.7324    5760.2466 
   76000       75.988    255.29466    10.658814   -606.86978   -596.21097    17325.753     40990.97    50148.613   -39162.324      15.2149      13.1765      28.7324    5760.2466 
   76500       76.488    242.37977    10.119604   -606.31886   -596.19926    16617.107    40283.742    52022.442   -42454.862      15.2149      13.1765      28.7324    5760.2466 
   77000       76.988    246.66666    10.298586   -606.48757   -596.18898    18567.796    38711.955    52776.869   -35785.437      15.2149      13.1765      28.7324    5760.2466 
   77500       77.488    240.05676    10.022616   -606.20059   -596.17797    17421.875    38941.697    51698.787   -38374.859      15.2149      13.1765      28.7324    5760.2466 
   78000       77.988     246.0857    10.274331    -606.4418   -596.16747    17948.222    35837.106    53490.947   -35483.387      15.2149      13.1765      28.7324    5760.2466 
   78500       78.488    278.94557    11.646264   -607.80355   -596.15728    17736.844    38876.782    49469.381   -35135.632      15.2149      13.1765      28.7324    5760.2466 
   79000       78.988    259.95771    10.853501   -606.99993   -596.14643    16829.225    37572.314    47412.676   -34497.315      15.2149      13.1765      28.7324    5760.2466 
   79500       79.488    262.41341    10.956029    -607.0913   -596.13527    18190.062     38823.78    52103.575   -36357.171      15.2149      13.1765      28.7324    5760.2466 
   80000       79.988     248.4838    10.374454   -606.49813   -596.12368    17194.026    38486.808    52819.538   -39724.268      15.2149      13.1765      28.7324    5760.2466 
   80500       80.488    253.31758    10.576269   -606.68952   -596.11325     16564.28    35874.709     50266.38    -36448.25      15.2149      13.1765      28.7324    5760.2466 
   81000       80.988    254.16407    10.611611   -606.71295   -596.10134    19116.237     41029.61    53517.341    -37198.24      15.2149      13.1765      28.7324    5760.2466 
   81500       81.488    261.38886    10.913253   -607.00401   -596.09075    18275.651    37923.111    47583.705   -30679.861      15.2149      13.1765      28.7324    5760.2466 
   82000       81.988    255.05725    10.648902   -606.72875   -596.07984    17889.868    38528.353    55009.779   -39868.528      15.2149      13.1765      28.7324    5760.2466 
   82500       82.488     261.3941    10.913472   -606.98256   -596.06909    18178.036    37929.045    55633.557   -39028.493      15.2149      13.1765      28.7324    5760.2466 
   83000       82.988     236.7486    9.8844973   -605.94057   -596.05607    18834.276    39543.532    51954.032   -34994.736      15.2149      13.1765      28.7324    5760.2466 
   83500       83.488    256.77625    10.720672   -606.76645   -596.04578    18729.475    38045.171    48554.069   -30410.815      15.2149      13.1765      28.7324    5760.2466 
   84000       83.988    259.79418    10.846674   -606.88202   -596.03535    19082.725    36229.799    52377.242   -31358.867      15.2149      13.1765      28.7324    5760.2466 
   84500       84.488    250.03989    10.439422   -606.46231   -596.02289    16627.237    38573.683    46625.572   -35317.543      15.2149      13.1765      28.7324    5760.2466 
   85000       84.988    257.31753    10.743271   -606.75499   -596.01172    17906.501    40751.189    52660.031   -39691.718      15.2149      13.1765      28.7324    5760.2466 
   85500       85.488    257.11867    10.734968   -606.73593   -596.00096    17925.981    38179.758     52009.26   -36411.074      15.2149      13.1765      28.7324    5760.2466 
   86000       85.988    254.49316    10.625351   -606.61515    -595.9898    17041.598     37250.41    49532.045   -35657.661      15.2149      13.1765      28.7324    5760.2466 
   86500       86.488    246.33911    10.284911   -606.26285   -595.97794    17602.985    37661.293    51909.914   -36762.251      15.2149      13.1765      28.7324    5760.2466 
   87000       86.988    258.12947     10.77717   -606.74389   -595.96672    16900.632    38935.677    50760.632   -38994.412      15.2149      13.1765      28.7324    5760.2466 
   87500       87.488    260.28436    10.867139    -606.8228   -595.95566    16142.711    35682.304    52777.136   -40031.308      15.2149      13.1765      28.7324    5760.2466 
   88000       87.988     249.5967    10.420918   -606.36353   -595.94261    17752.203    37792.789    56482.105   -41018.285      15.2149      13.1765      28.7324    5760.2466 
   88500       88.488    258.25373    10.782358   -606.71372   -595.93136    17610.985    37547.732    53451.548   -38166.326      15.2149      13.1765      28.7324    5760.2466 
   89000       88.988    256.96121    10.728394    -606.6492    -595.9208    17830.112    38519.005    50979.433   -36008.103      15.2149      13.1765      28.7324    5760.2466 
   89500       89.488    254.48256    10.624908   -606.53322   -595.90831    19322.593     38276.13    55616.593   -35924.945      15.2149      13.1765      28.7324    5760.2466 
   90000       89.988    258.43141    10.789777   -606.68664   -595.89686    19618.106    41263.234    50485.977   -32894.895      15.2149      13.1765      28.7324    5760.2466 
   90500       90.488    258.60862    10.797175   -606.68261   -595.88543    17235.439    38954.514    48618.715   -35866.912      15.2149      13.1765      28.7324    5760.2466 
   91000       90.988     254.4063    10.621724   -606.49443   -595.87271    16875.408     39453.34    51124.624    -39951.74      15.2149      13.1765      28.7324    5760.2466 
   91500       91.488    254.39299    10.621169   -606.48221   -595.86105    19724.514    39320.919    54850.992   -34998.369      15.2149      13.1765      28.7324    5760.2466 
   92000       91.988    276.35957    11.538296   -607.38857   -595.85027     20280.64    45658.014    52650.185   -37466.277      15.2149      13.1765      28.7324    5760.2466 
   92500       92.488    255.55751    10.669788   -606.50663   -595.83684    19399.653    40206.039    50738.196   -32745.276      15.2149      13.1765      28.7324    5760.2466 
   93000       92.988    253.87078    10.599366    -606.4249   -595.82553    19261.303    43588.962     52463.02   -38268.074      15.2149      13.1765      28.7324    5760.2466 
   93500       93.488    258.34569    10.786198   -606.59962   -595.81342    19299.157     40464.31    51900.067   -34466.907      15.2149      13.1765      28.7324    5760.2466 
   94000       93.988    254.71477    10.634603   -606.43627   -595.80166    16234.292    37939.677    49169.359   -38406.159      15.2149      13.1765      28.7324    5760.2466 
   94500       94.488     254.6046    10.630003    -606.4192    -595.7892    17661.603    38667.086    52513.461   -38195.738      15.2149      13.1765      28.7324    5760.2466 
   95000       94.988    281.93147    11.770928   -607.54901   -595.77808    17635.918    40512.316    49339.201   -36943.762      15.2149      13.1765      28.7324    5760.2466 
   95500       95.488    261.46664    10.916501    -606.6804    -595.7639     18767.96    38810.872    51436.401   -33943.394      15.2149      13.1765      28.7324    5760.2466 
   96000       95.988    255.78612    10.679333   -606.43144   -595.75211     16189.83     39281.85     49922.83    -40635.19      15.2149      13.1765      28.7324    5760.2466 
   96500       96.488    270.86949    11.309079   -607.04977   -595.74069    17361.237    41367.403    48475.971   -37759.662      15.2149      13.1765      28.7324    5760.2466 
   97000       96.988    247.04779    10.314499   -606.04133   -595.72683    19381.227    39748.328    50336.903   -31941.552      15.2149      13.1765      28.7324    5760.2466 
   97500       97.488    255.22317    10.655829      -606.37   -595.71417    17245.645    39227.245    49732.241   -37222.551      15.2149      13.1765      28.7324    5760.2466 
   98000       97.988    247.93183    10.351408   -606.05239   -595.70098    18507.818    38126.019    54151.192   -36753.757      15.2149      13.1765      28.7324    5760.2466 
   98500       98.488    264.07455    11.025384   -606.71526   -595.68988    17470.922     37705.49    51384.936    -36677.66      15.2149      13.1765      28.7324    5760.2466 
   99000       98.988    253.70023    10.592245   -606.26789   -595.67564    18835.473    35872.526     53825.26   -33191.369      15.2149      13.1765      28.7324    5760.2466 
   99500       99.488    274.22226    11.449061   -607.11353   -595.66446    19099.995    38408.883    51323.621   -32432.518      15.2149      13.1765      28.7324    5760.2466 
  100000       99.988    260.93206    10.894182    -606.5449   -595.65071    16903.557    40829.734    51305.843   -41424.906      15.2149      13.1765      28.7324    5760.2466 
  100500      100.488    256.90503    10.726049   -606.36389   -595.63784    16112.678    41988.408    49550.143   -43200.516      15.2149      13.1765      28.7324    5760.2466 
  101000      100.988      248.314    10.367365   -605.99209   -595.62472    16924.464    36909.387    52874.502   -39010.496      15.2149      13.1765      28.7324    5760.2466 
  101500      101.488    250.71768    10.467721   -606.07915   -595.61143    17629.704    37402.147    48688.038   -33201.073      15.2149      13.1765      28.7324    5760.2466 
  102000      101.988    246.66914     10.29869   -605.89704   -595.59835    18767.285    41859.898     52346.89   -37904.934      15.2149      13.1765      28.7324    5760.2466 
  102500      102.488    261.81181    10.930912   -606.51792   -595.58701    17822.406    40823.281    51210.732   -38566.794      15.2149      13.1765      28.7324    5760.2466 
  103000      102.988    262.86913    10.975056   -606.54764   -595.57259    18637.207    37259.647    54364.186   -35712.213      15.2149      13.1765      28.7324    5760.2466 
  103500      103.488    255.45169     10.66537   -606.22454   -595.55917    17789.745    39338.754    53133.536   -39103.055      15.2149      13.1765      28.7324    5760.2466 
  104000      103.988    270.58666    11.297271   -606.84388   -595.54661    17138.158    39241.247      52072.8   -39899.572      15.2149      13.1765      28.7324    5760.2466 
  104500      104.488    257.17745    10.737423   -606.27003   -595.53261    15855.057    39515.714    48680.538   -40631.083      15.2149      13.1765      28.7324    5760.2466 
  105000      104.988    257.70176    10.759313   -606.27916   -595.51985    17394.536    38647.828     51007.86   -37472.079      15.2149      13.1765      28.7324    5760.2466 
  105500      105.488     242.2004    10.112115   -605.61772    -595.5056    16107.074    38954.712    52748.325   -43381.815      15.2149      13.1765      28.7324    5760.2466 
  106000      105.988     255.5067    10.667667   -606.16002   -595.49235    18050.896    42403.242    52354.216   -40604.771      15.2149      13.1765      28.7324    5760.2466 
  106500      106.488    261.87294    10.933464   -606.41408   -595.48061    16890.157    34274.438    52768.309   -36372.277      15.2149      13.1765      28.7324    5760.2466 
  107000      106.988    250.27751    10.449343   -605.91464    -595.4653    17133.711     37906.93    50749.904   -37255.701      15.2149      13.1765      28.7324    5760.2466 
  107500      107.488     268.0561    11.191618   -606.64475   -595.45313     16904.25     35623.73     49123.48   -34034.462      15.2149      13.1765      28.7324    5760.2466 
  108000      107.988    266.20119    11.114173   -606.55338   -595.43921    17427.713    39233.048    53766.841   -40716.751      15.2149      13.1765      28.7324    5760.2466 
  108500      108.488    258.70872    10.801355   -606.22631   -595.42496    16188.928    39770.727    52186.455   -43390.399      15.2149      13.1765      28.7324    5760.2466 
  109000      108.988    266.00299    11.105898   -606.51804   -595.41214    17336.947     40193.29     50043.29   -38225.738      15.2149      13.1765      28.7324    5760.2466 
  109500      109.488    259.18572     10.82127    -606.2183   -595.39703    19532.556    38032.534    51713.573   -31148.438      15.2149      13.1765      28.7324    5760.2466 
  110000      109.988    263.36097    10.995591   -606.38035   -595.38476      17334.5    39074.775    55600.818   -42672.094      15.2149      13.1765      28.7324    5760.2466 
  110500      110.488    250.55627    10.460982   -605.83079   -595.36981    18506.678     36833.09    53489.616   -34802.672      15.2149      13.1765      28.7324    5760.2466 
  111000      110.988    244.61705    10.213013   -605.56755   -595.35453    17969.514     40723.09    51807.723   -38622.273      15.2149      13.1765      28.7324    5760.2466 
  111500      111.488    255.46564    10.665953   -606.00911   -595.34315    16686.886     37122.47    51497.882   -38559.693      15.2149      13.1765      28.7324    5760.2466 
  112000      111.988    263.58551    11.004966   -606.33321   -595.32824    18357.594    40809.149    51807.178   -37543.546      15.2149      13.1765      28.7324    5760.2466 
  112500      112.488    270.50729    11.293957   -606.60894   -595.31498    18048.529    39697.667    49410.985   -34963.064      15.2149      13.1765      28.7324    5760.2466 
  113000      112.988    267.94968    11.187174    -606.4879   -595.30073     17015.37    32867.681    53093.221   -34914.792      15.2149      13.1765      28.7324    5760.2466 
  113500      113.488    275.96667    11.521892   -606.80797   -595.28608     18354.04    38776.699    52692.759   -36407.336      15.2149      13.1765      28.7324    5760.2466 
  114000      113.988    262.11987    10.943774   -606.21547   -595.27169    17893.392    38623.308    48463.959   -33407.093      15.2149      13.1765      28.7324    5760.2466 
  114500      114.488     263.6842    11.009086    -606.2672   -595.25812    17558.903    39019.415    51777.435   -38120.141      15.2149      13.1765      28.7324    5760.2466 
  115000      114.988    266.96765    11.146174   -606.39045   -595.24428    16919.088    37829.155    48648.875   -35720.765      15.2149      13.1765      28.7324    5760.2466 
  115500      115.488    255.50485     10.66759   -605.89691   -595.22932    18381.359    40740.667    49202.067   -34798.657      15.2149      13.1765      28.7324    5760.2466 
  116000      115.988    254.99853     10.64645   -605.86029   -595.21383    18130.607    38672.141    53574.848   -37855.168      15.2149      13.1765      28.7324    5760.2466 
  116500      116.488    262.04177    10.940513   -606.14141    -595.2009    18439.418    37239.259    52539.242   -34460.248      15.2149      13.1765      28.7324    5760.2466 
  117000      116.988    273.72405     11.42826   -606.61465   -595.18639    19211.406    40672.106    47336.047   -30373.936      15.2149      13.1765      28.7324    5760.2466 
  117500      117.488    266.20029    11.114135   -606.28703   -595.17289    17352.302    34554.734    53895.482   -36393.311      15.2149      13.1765      28.7324    5760.2466 
  118000      117.988      256.781    10.720871   -605.87856   -595.15769    17746.216    38298.723    50355.884   -35415.958      15.2149      13.1765      28.7324    5760.2466 
  118500      118.488    273.51024    11.419333   -606.56242   -595.14309    17278.704    35065.712    52796.989   -36026.589      15.2149      13.1765      28.7324    5760.2466 
  119000      118.988    276.17693     11.53067   -606.65996   -595.12929    17509.999    39908.617    50425.875   -37804.495      15.2149      13.1765      28.7324    5760.2466 
  119500      119.488    244.41693    10.204658   -605.31807   -595.11341    15814.761    36602.602    52906.145   -42064.464      15.2149      13.1765      28.7324    5760.2466 
  120000      119.988    273.86352    11.434083   -606.53356   -595.09948    16268.308    36667.044    49209.842   -37071.962      15.2149      13.1765      28.7324    5760.2466 
  120500      120.488    267.07108    11.150492   -606.23576   -595.08526    17014.372     38116.03    51857.024   -38929.939      15.2149      13.1765      28.7324    5760.2466 
  121000      120.988    269.12795    11.236368   -606.30642   -595.07005    18326.839    37270.112    52899.949   -35189.545      15.2149      13.1765      28.7324    5760.2466 
  121500      121.488    267.78814     11.18043   -606.23519   -595.05476    18158.194    37736.346     54742.76   -38004.522      15.2149      13.1765      28.7324    5760.2466 
  122000      121.988    277.44441    11.583589   -606.62447   -595.04088    18242.184    37304.691    51163.066   -33741.204      15.2149      13.1765      28.7324    5760.2466 
  122500      122.488    277.04604    11.566957   -606.59272   -595.02577    16800.478    38711.874    56118.609   -44429.049      15.2149      13.1765      28.7324    5760.2466 
  123000      122.988    268.62987    11.215573   -606.22536   -595.00978    16845.495    37465.521    51550.166   -38479.202      15.2149      13.1765      28.7324    5760.2466 
  123500      123.488    278.03281    11.608155   -606.60415     -594.996    16109.152    39358.307    51409.025   -42439.876      15.2149      13.1765      28.7324    5760.2466 
  124000      123.988    274.12618     11.44505   -606.42575    -594.9807    18187.731    39213.442    51776.049   -36426.298      15.2149      13.1765      28.7324    5760.2466 
  124500      124.488    272.37593    11.371975   -606.33801   -594.96603    19126.543     43160.81    53392.169   -39173.349      15.2149      13.1765      28.7324    5760.2466 
  125000      124.988    287.25092    11.993021   -606.94355   -594.95053     18560.32    40499.441    49772.707   -34591.189      15.2149      13.1765      28.7324    5760.2466 
  125500      125.488    257.92203     10.76851   -605.70369   -594.93518    15744.415    37854.493     47978.07   -38599.319      15.2149      13.1765      28.7324    5760.2466 
  126000      125.988    250.96289    10.477958   -605.39798   -594.92002    18208.281    37382.336    53487.776    -36245.27      15.2149      13.1765      28.7324    5760.2466 
  126500      126.488    262.76098    10.970541   -605.87625   -594.90571     18400.28    41301.768    54585.636   -40686.564      15.2149      13.1765      28.7324    5760.2466 
  127000      126.988    264.94534     11.06174   -605.95129   -594.88955    17719.633    38467.622    49540.093   -34848.815      15.2149      13.1765      28.7324    5760.2466 
  127500      127.488     272.8783    11.392949   -606.26857   -594.87562    17010.291    38241.806    54182.429   -41393.362      15.2149      13.1765      28.7324    5760.2466 
  128000      127.988    291.44902    12.168296   -607.02981   -594.86151     19278.52    39022.056    55269.501   -36455.998      15.2149      13.1765      28.7324    5760.2466 
  128500      128.488    261.91838    10.935361   -605.78046    -594.8451    18490.494     38957.51    50311.965   -33797.994      15.2149      13.1765      28.7324    5760.2466 
  129000      128.988    260.13103    10.860738   -605.68972   -594.82899    17323.126    39838.107    49659.681   -37528.411      15.2149      13.1765      28.7324    5760.2466 
  129500      129.488    265.08778    11.067687   -605.88171   -594.81403    17183.988    39797.356    50453.988    -38699.38      15.2149      13.1765      28.7324    5760.2466 
  130000      129.988    273.83397    11.432849   -606.23216   -594.79931    18471.174    38303.574    50122.168    -33012.22      15.2149      13.1765      28.7324    5760.2466 
  130500      130.488    256.25378    10.698859   -605.48167   -594.78281    17217.479    35588.647     51042.53   -34978.741      15.2149      13.1765      28.7324    5760.2466 
  131000      130.988    283.65146     11.84274   -606.61117   -594.76843    15953.118    39170.498    49504.241   -40815.383      15.2149      13.1765      28.7324    5760.2466 
  131500      131.488    262.32743     10.95244   -605.70432   -594.75188    18639.936     41794.17    50513.982   -36388.344      15.2149      13.1765      28.7324    5760.2466 
  132000      131.988    277.41966    11.582556   -606.32004   -594.73748    19362.355    39598.339    50231.547   -31742.821      15.2149      13.1765      28.7324    5760.2466 
  132500      132.488    270.10662    11.277229   -605.99853    -594.7213     18580.03    36350.753    52452.134   -33062.795      15.2149      13.1765      28.7324    5760.2466 
  133000      132.988    272.66087    11.383871   -606.08975   -594.70588    18376.104    38162.241    56077.368   -39111.298      15.2149      13.1765      28.7324    5760.2466 
  133500      133.488    275.67455    11.509696   -606.20038   -594.69069    18744.369    39264.892    52688.111   -35719.895      15.2149      13.1765      28.7324    5760.2466 
  134000      133.988    259.65758     10.84097   -605.51508   -594.67411    17515.831    39933.488    51389.031   -38775.025      15.2149      13.1765      28.7324    5760.2466 
  134500      134.488    269.99161    11.272427   -605.93203    -594.6596    18143.192    39542.941    48060.794   -33174.158      15.2149      13.1765      28.7324    5760.2466 
  135000      134.988    269.26553    11.242112   -605.88576   -594.64365    19418.908    39045.999    55756.016   -36545.292      15.2149      13.1765      28.7324    5760.2466 
  135500      135.488    250.64366     10.46463   -605.09178   -594.62715    18199.777    40852.793    50881.231   -37134.695      15.2149      13.1765      28.7324    5760.2466 
  136000      135.988    267.49909    11.168362    -605.7797   -594.61134    17602.657    40068.302    47375.452   -34635.782      15.2149      13.1765      28.7324    5760.2466 
  136500      136.488    271.86096    11.350474   -605.94735   -594.59688    19525.288    40196.954    58680.798   -40301.889      15.2149      13.1765      28.7324    5760.2466 
  137000      136.988    293.75648    12.264635   -606.84679   -594.58216    17884.376     38380.39    50212.798   -34940.059      15.2149      13.1765      28.7324    5760.2466 
  137500      137.488    274.49769     11.46056   -606.02582   -594.56526    17481.208    37934.766    50903.304   -36394.445      15.2149      13.1765      28.7324    5760.2466 
  138000      137.988    263.49543    11.001205   -605.55027   -594.54906    17735.881    40371.113    51104.064   -38267.533      15.2149      13.1765      28.7324    5760.2466 
  138500      138.488    277.39418    11.581492   -606.11666   -594.53517    17770.044    35693.064    52028.869     -34411.8      15.2149      13.1765      28.7324    5760.2466 
  139000      138.988    268.72145    11.219396   -605.73824   -594.51885    17672.539    39948.356    51561.477   -38492.215      15.2149      13.1765      28.7324    5760.2466 
  139500      139.488    262.99581    10.980345   -605.48306   -594.50271     18068.78    40433.554    49358.288   -35585.501      15.2149      13.1765      28.7324    5760.2466 
  140000      139.988    258.77629    10.804176   -605.29128   -594.48711    19356.934    35812.132    54187.539   -31928.869      15.2149      13.1765      28.7324    5760.2466 
  140500      140.488    274.11129    11.444428   -605.91515   -594.47072    17918.998    38060.935    50641.125   -34945.066      15.2149      13.1765      28.7324    5760.2466 
  141000      140.988    285.23199    11.908728   -606.36549   -594.45676    19520.642    39191.725    55223.603   -35853.401      15.2149      13.1765      28.7324    5760.2466 
  141500      141.488    273.30701    11.410848   -605.85145    -594.4406     17611.75    39988.093    52939.726   -40092.568      15.2149      13.1765      28.7324    5760.2466 
  142000      141.988    273.32857    11.411749   -605.83627   -594.42452    16992.807    36824.305    51032.551   -36878.436      15.2149      13.1765      28.7324    5760.2466 
  142500      142.488    280.51643    11.711849   -606.12118   -594.40933    17532.762    41364.527    50041.339   -38807.579      15.2149      13.1765      28.7324    5760.2466 
  143000      142.988     275.8724    11.517956   -605.91147   -594.39352    18333.968    38893.321    52525.303   -36416.719      15.2149      13.1765      28.7324    5760.2466 
  143500      143.488    272.99834    11.397961   -605.77452   -594.37656    17159.411     37841.51    49494.897   -35858.173      15.2149      13.1765      28.7324    5760.2466 
  144000      143.988    268.85718    11.225063   -605.58553   -594.36046    19013.127    36308.621    59568.578   -38837.817      15.2149      13.1765      28.7324    5760.2466 
  144500      144.488    274.32048    11.453162    -605.7976   -594.34443    16979.781    40633.556    49759.968   -39454.181      15.2149      13.1765      28.7324    5760.2466 
  145000      144.988    272.76395    11.388175   -605.71756   -594.32939    18649.879    35730.526    53935.008   -33715.896      15.2149      13.1765      28.7324    5760.2466 
  145500      145.488    283.99657    11.857148   -606.17103   -594.31388     18618.57    38122.295    51304.137   -33570.723      15.2149      13.1765      28.7324    5760.2466 
  146000      145.988    276.76362    11.555165    -605.8535   -594.29833    18660.121    39949.964    53920.305   -37889.906      15.2149      13.1765      28.7324    5760.2466 
  146500      146.488    260.40056    10.871991   -605.15295   -594.28096    17040.661    36668.547    49660.187    -35206.75      15.2149      13.1765      28.7324    5760.2466 
  147000      146.988    282.28019    11.785488   -606.05098   -594.26549    17356.618    35057.584    52577.358   -35565.089      15.2149      13.1765      28.7324    5760.2466 
  147500      147.488     274.3622    11.454904   -605.70528   -594.25037     17942.29    39889.913    53614.257   -39677.301      15.2149      13.1765      28.7324    5760.2466 
  148000      147.988     267.9806    11.188465   -605.42261   -594.23415    17149.909    35928.972    50178.528   -34657.772      15.2149      13.1765      28.7324    5760.2466 
  148500      148.488    278.25123    11.617274   -605.83599   -594.21872     17166.07     38894.92    50862.723   -38259.431      15.2149      13.1765      28.7324    5760.2466 
  149000      148.988    282.82316    11.808157   -606.01027   -594.20211    17378.982    35595.178    54413.123   -37871.355      15.2149      13.1765      28.7324    5760.2466 
  149500      149.488    273.26049    11.408906   -605.59515   -594.18624    17851.566    39759.211    48383.707    -34588.22      15.2149      13.1765      28.7324    5760.2466 
  150000      149.988    269.38727    11.247195   -605.41723   -594.17003    18348.625    42128.792    53215.439   -40298.356      15.2149      13.1765      28.7324    5760.2466 
  150500      150.488    269.48424    11.251244   -605.40632   -594.15507    18218.733    39182.948    48695.707   -33222.458      15.2149      13.1765      28.7324    5760.2466 
  151000      150.988    279.83881    11.683558   -605.82235    -594.1388    18319.253    40275.825    55585.358   -40903.426      15.2149      13.1765      28.7324    5760.2466 
  151500      151.488    289.62237    12.092031    -606.2159   -594.12387    17954.593     37706.74    50532.567   -34375.528      15.2149      13.1765      28.7324    5760.2466 
  152000      151.988    281.60461    11.757281   -605.86482   -594.10754    16789.071    35808.113    52940.042    -38380.94      15.2149      13.1765      28.7324    5760.2466 
  152500      152.488    278.92356    11.645345   -605.73576   -594.09042    17382.157    42432.622     48942.49    -39228.64      15.2149      13.1765      28.7324    5760.2466 
  153000      152.988    283.84027    11.850623   -605.92553   -594.07491    19788.265    38189.217    52731.742   -31556.165      15.2149      13.1765      28.7324    5760.2466 
  153500      153.488    284.76489    11.889226   -605.94784   -594.05861    18231.072    36672.512     55559.51   -37538.805      15.2149      13.1765      28.7324    5760.2466 
  154000      153.988    269.23637    11.240895   -605.28354   -594.04264    18262.347    35325.464    54323.608   -34862.029      15.2149      13.1765      28.7324    5760.2466 
  154500      154.488    293.29945    12.245553   -606.27369   -594.02813    17852.705    40611.558    54514.151   -41567.595      15.2149      13.1765      28.7324    5760.2466 
  155000      154.988    266.13727    11.111504   -605.12188   -594.01038    17246.156    37064.367    50970.296   -36296.195      15.2149      13.1765      28.7324    5760.2466 
  155500      155.488    280.67235    11.718359   -605.71377   -593.99541    18941.359    39780.013    54306.751   -37262.685      15.2149      13.1765      28.7324    5760.2466 
  156000      155.988    272.28181    11.368045   -605.34709   -593.97904    15895.493      36607.7    52812.032   -41733.253      15.2149      13.1765      28.7324    5760.2466 
  156500      156.488    288.22939    12.033873   -605.99715   -593.96328    17725.432    35226.106    52252.558   -34302.368      15.2149      13.1765      28.7324    5760.2466 
  157000      156.988    272.32058    11.369664   -605.31557   -593.94591      18645.7    38897.532    52176.749   -35137.179      15.2149      13.1765      28.7324    5760.2466 
  157500      157.488    261.14928     10.90325   -604.83232   -593.92907    18036.095    39901.243    54915.733   -40708.691      15.2149      13.1765      28.7324    5760.2466 
  158000      157.988    289.45538    12.085059   -605.99926    -593.9142    18446.611    33263.767    54680.966     -32604.9      15.2149      13.1765      28.7324    5760.2466 
  158500      158.488    279.47453    11.668348   -605.56657   -593.89823    19359.189    39112.761    47110.592   -28145.786      15.2149      13.1765      28.7324    5760.2466 
  159000      158.988    277.91939     11.60342   -605.48516   -593.88174     17302.31    37123.506    51819.841   -37036.416      15.2149      13.1765      28.7324    5760.2466 
  159500      159.488    282.43861    11.792102   -605.65769   -593.86559    18960.293    37914.348    50723.873   -31757.343      15.2149      13.1765      28.7324    5760.2466 
  160000      159.988    300.88003     12.56205   -606.41197   -593.84992    18511.886    38201.085    51244.126   -33909.551      15.2149      13.1765      28.7324    5760.2466 
  160500      160.488    284.09676    11.861331   -605.69425   -593.83291    16970.326    38807.321    52889.092   -40785.436      15.2149      13.1765      28.7324    5760.2466 
  161000      160.988    293.51388    12.254506   -606.07194   -593.81744    19042.078    40146.443    54706.578   -37726.789      15.2149      13.1765      28.7324    5760.2466 
  161500      161.488    290.43772    12.126073   -605.92779   -593.80171    17724.025    39325.001    51903.332    -38056.26      15.2149      13.1765      28.7324    5760.2466 
  162000      161.988      275.909    11.519484   -605.30406   -593.78458    17324.857     37586.74    50294.751    -35906.92      15.2149      13.1765      28.7324    5760.2466 
  162500      162.488     284.2569    11.868018   -605.63717   -593.76916    18070.141     39800.88    51327.301   -36917.756      15.2149      13.1765      28.7324    5760.2466 
  163000      162.988    279.25131    11.659029   -605.41072   -593.75169    19055.256    40979.569      52509.8   -36323.603      15.2149      13.1765      28.7324    5760.2466 
  163500      163.488    264.31486    11.035417   -604.77177   -593.73635    16426.926    42235.614    47558.378   -40513.214      15.2149      13.1765      28.7324    5760.2466 
  164000      163.988    261.49526    10.917696   -604.63731   -593.71962    19051.551    43689.453     52158.93    -38693.73      15.2149      13.1765      28.7324    5760.2466 
  164500      164.488    272.33096    11.370097   -605.07384   -593.70375    17088.156    42272.811     51557.46   -42565.802      15.2149      13.1765      28.7324    5760.2466 
  165000      164.988    281.11663    11.736908   -605.42494   -593.68804     17401.32    42009.777     49932.96   -39738.777      15.2149      13.1765      28.7324    5760.2466 
  165500      165.488    280.72843      11.7207   -605.39255   -593.67185    17786.132    40363.824    46818.336   -33823.764      15.2149      13.1765      28.7324    5760.2466 
  166000      165.988    275.69906    11.510719   -605.16679   -593.65607    18779.273    37762.068    52724.998   -34149.249      15.2149      13.1765      28.7324    5760.2466 
  166500      166.488    283.28384    11.827391    -605.4677    -593.6403    18244.164    38409.435    52995.941   -36672.886      15.2149      13.1765      28.7324    5760.2466 
  167000      166.988    285.86971    11.935354   -605.55863   -593.62328    17872.834    39034.939    49304.552   -34720.988      15.2149      13.1765      28.7324    5760.2466 
  167500      167.488    296.16663    12.365261   -605.97307   -593.60781    18765.254    39131.008    50351.046   -33186.292      15.2149      13.1765      28.7324    5760.2466 
  168000      167.988    286.43902    11.959123   -605.55072    -593.5916    20263.007    41104.968    55149.119   -35465.065      15.2149      13.1765      28.7324    5760.2466 
  168500      168.488    278.45521    11.625791    -605.2004   -593.57461    18296.064    38592.063    51088.825   -34792.696      15.2149      13.1765      28.7324    5760.2466 
  169000      168.988    292.51171    12.212664   -605.77282   -593.56016    18716.174    40667.257     53771.56   -38290.294      15.2149      13.1765      28.7324    5760.2466 
  169500      169.488    300.99111    12.566688   -606.11052   -593.54383    18679.394    35645.156    51728.846    -31335.82      15.2149      13.1765      28.7324    5760.2466 
  170000      169.988    285.74497    11.930146   -605.45677   -593.52662     18278.75    43511.508    50115.071   -38790.329      15.2149      13.1765      28.7324    5760.2466 
  170500      170.488    279.57672    11.672615   -605.18176   -593.50914    18062.444    38204.382    50767.106   -34784.156      15.2149      13.1765      28.7324    5760.2466 
  171000      170.988    282.54925    11.796721   -605.29099   -593.49427    18085.169     37021.11    51899.958   -34665.561      15.2149      13.1765      28.7324    5760.2466 
  171500      171.488    289.59922    12.091065   -605.56928   -593.47822    17220.666    38104.521    51577.906   -38020.429      15.2149      13.1765      28.7324    5760.2466 
  172000      171.988    290.84998    12.143285   -605.60421   -593.46092    17368.105     40242.66    49110.163   -37248.509      15.2149      13.1765      28.7324    5760.2466 
  172500      172.488    286.27153     11.95213   -605.39699   -593.44486     17630.84      40773.6    54023.881   -41904.961      15.2149      13.1765      28.7324    5760.2466 
  173000      172.988    282.17908    11.781266   -605.20946   -593.42819    18195.853    34389.089    57376.041   -37177.571      15.2149      13.1765      28.7324    5760.2466 
  173500      173.488    272.86769    11.392506    -604.8046   -593.41209     18029.55    39847.843    55658.717    -41417.91      15.2149      13.1765      28.7324    5760.2466 
  174000      173.988    295.88808    12.353631   -605.74939   -593.39576    17803.111    38286.918    49253.351   -34130.937      15.2149      13.1765      28.7324    5760.2466 
  174500      174.488    286.75292    11.972229   -605.35042   -593.37819    17135.766    39143.258    55625.349   -43361.309      15.2149      13.1765      28.7324    5760.2466 
  175000      174.988    277.73765    11.595832   -604.95776   -593.36193    19107.456     35829.97    53898.159   -32405.761      15.2149      13.1765      28.7324    5760.2466 
  175500      175.488    284.57358    11.881239   -605.22679   -593.34555    18744.961     37849.71    54408.664   -36023.492      15.2149      13.1765      28.7324    5760.2466 
  176000      175.988    305.34463    12.748452    -606.0775   -593.32905    19175.596     40000.27    53122.859   -35596.339      15.2149      13.1765      28.7324    5760.2466 
  176500      176.488    281.39425    11.748499   -605.06006   -593.31156    18127.995    37587.994    48371.494   -31575.502      15.2149      13.1765      28.7324    5760.2466 
  177000      176.988    295.63747    12.343168   -605.63886   -593.29569    19462.716    39308.995    53109.176   -34030.022      15.2149      13.1765      28.7324    5760.2466 
  177500      177.488    288.07823    12.027562   -605.30655   -593.27898    18675.352    40771.401    48508.256   -33253.601      15.2149      13.1765      28.7324    5760.2466 
  178000      177.988    281.92196    11.770531   -605.03178   -593.26125     19569.77    39328.201    53868.474   -34487.365      15.2149      13.1765      28.7324    5760.2466 
  178500      178.488    290.84209    12.142956   -605.38853   -593.24557    16631.099    39567.882     48126.61   -37801.194      15.2149      13.1765      28.7324    5760.2466 
  179000      178.988    276.54971    11.546234   -604.77411   -593.22788    17736.103    39941.958    52514.881   -39248.531      15.2149      13.1765      28.7324    5760.2466 
  179500      179.488    283.70014    11.844772   -605.05742   -593.21265    18193.067    36759.223      51668.6   -33848.622      15.2149      13.1765      28.7324    5760.2466 
  180000      179.988    294.16197    12.281564    -605.4774   -593.19584    18606.134    36449.611    56249.975   -36881.184      15.2149      13.1765      28.7324    5760.2466 
  180500      180.488    284.29732    11.869705   -605.04742   -593.17772    17744.654    38987.505    50182.491   -35936.033      15.2149      13.1765      28.7324    5760.2466 
  181000      180.988    298.98774    12.483045   -605.64418   -593.16114      18520.4    39345.541    51679.468   -35463.809      15.2149      13.1765      28.7324    5760.2466 
  181500      181.488    287.56614    12.006182   -605.15085   -593.14467    17592.312    38831.632    48959.853   -35014.551      15.2149      13.1765      28.7324    5760.2466 
  182000      181.988     283.8113    11.849413   -604.97724   -593.12783    17611.465    36876.689    48843.946   -32886.241      15.2149      13.1765      28.7324    5760.2466 
  182500      182.488     291.7528    12.180979   -605.29201   -593.11103    18538.811    40426.227    54360.811   -39170.605      15.2149      13.1765      28.7324    5760.2466 
  183000      182.988    274.92133    11.478248   -604.57289   -593.09464    18270.509    39938.967    55129.889   -40257.329      15.2149      13.1765      28.7324    5760.2466 
  183500      183.488     269.6908    11.259868   -604.33684   -593.07698    16857.417    39513.935    49164.811   -38106.496      15.2149      13.1765      28.7324    5760.2466 
  184000      183.988    298.19395    12.449903   -605.51132   -593.06142    18029.492    41079.872    51925.757   -38917.152      15.2149      13.1765      28.7324    5760.2466 
  184500      184.488    294.12119    12.279862   -605.32495   -593.04509    17815.461    37136.116    49607.738   -33297.471      15.2149      13.1765      28.7324    5760.2466 
  185000      184.988    305.94238    12.773408   -605.80201    -593.0286    17504.288    38835.296    50208.755   -36531.186      15.2149      13.1765      28.7324    5760.2466 
  185500      185.488    276.76371    11.555169   -604.56458   -593.00941    17858.199    35336.554    52881.289   -34643.248      15.2149      13.1765      28.7324    5760.2466 
  186000      185.988    291.45605    12.168589   -605.16341   -592.99482    17899.761    39168.276    51790.113   -37259.106      15.2149      13.1765      28.7324    5760.2466 
  186500      186.488    280.67051    11.718282   -604.69648    -592.9782     19796.95    40060.183    55211.815    -35881.15      15.2149      13.1765      28.7324    5760.2466 
  187000      186.988    298.66453    12.469551   -605.43082   -592.96127    18046.294    36434.305    52156.906   -34452.329      15.2149      13.1765      28.7324    5760.2466 
  187500      187.488     288.7157    12.054177   -604.99849   -592.94431    18110.281    40916.617    48516.535   -35102.308      15.2149      13.1765      28.7324    5760.2466 
  188000      187.988    282.03725    11.775345    -604.7029   -592.92755    17442.004    40979.578    51242.891   -39896.457      15.2149      13.1765      28.7324    5760.2466 
  188500      188.488    295.65688    12.343978   -605.25602   -592.91204    17711.568    38736.662     49150.43   -34752.389      15.2149      13.1765      28.7324    5760.2466 
  189000      188.988    301.86299     12.60309   -605.49883   -592.89574     18563.96    36993.084    53391.556   -34692.761      15.2149      13.1765      28.7324    5760.2466 
  189500      189.488    306.55049    12.798798   -605.67757   -592.87877    16975.183    38757.259    51844.204   -39675.915      15.2149      13.1765      28.7324    5760.2466 
  190000      189.988    292.34687    12.205782   -605.06677   -592.86099    19846.654    41185.982    53819.442   -35465.463      15.2149      13.1765      28.7324    5760.2466 
  190500      190.488     300.8255    12.559774   -605.40355   -592.84378    18066.382    38691.677    51807.041   -36299.571      15.2149      13.1765      28.7324    5760.2466 
  191000      190.988    307.67316     12.84567   -605.67229   -592.82662      18134.5    37282.664    49790.611   -32669.774      15.2149      13.1765      28.7324    5760.2466 
  191500      191.488    289.78617     12.09887   -604.90815   -592.80928    17005.086    42088.827    52332.268   -43405.837      15.2149      13.1765      28.7324    5760.2466 
  192000      191.988    300.04828    12.527324   -605.31966   -592.79234    18686.121    38002.335    55192.321   -37136.292      15.2149      13.1765      28.7324    5760.2466 
  192500      192.488    280.49312    11.710876   -604.48562   -592.77474    19861.197    38209.093    57282.139   -35907.641      15.2149      13.1765      28.7324    5760.2466 
  193000      192.988    288.19781    12.032554   -604.79054   -592.75798    19179.585     39483.69    54113.957   -36058.892      15.2149      13.1765      28.7324    5760.2466 
  193500      193.488    287.11284    11.987256   -604.72885    -592.7416    19152.407    35468.299    55813.983   -33825.061      15.2149      13.1765      28.7324    5760.2466 
  194000      193.988     297.0203    12.400903   -605.12577   -592.72486    18559.199     36576.09    53932.295   -34830.789      15.2149      13.1765      28.7324    5760.2466 
  194500      194.488    298.04722    12.443778   -605.15116   -592.70738    18662.529    38601.484    52520.396   -35134.292      15.2149      13.1765      28.7324    5760.2466 
  195000      194.988    294.10508    12.279189   -604.97048   -592.69129    18114.585    37473.646    55820.892   -38950.784      15.2149      13.1765      28.7324    5760.2466 
  195500      195.488    287.67148     12.01058   -604.68499   -592.67441    18407.536    39280.458    49281.644   -33339.494      15.2149      13.1765      28.7324    5760.2466 
  196000      195.988    302.23522    12.618631   -605.27627   -592.65764    16686.859    38793.778    50885.264   -39618.466      15.2149      13.1765      28.7324    5760.2466 
  196500      196.488    290.39122    12.124132   -604.76473   -592.64059    18426.238    36792.571    50943.771   -32457.629      15.2149      13.1765      28.7324    5760.2466 
  197000      196.988    279.27216    11.659899    -604.2831    -592.6232    18270.464    41834.271    53065.869   -40088.749      15.2149      13.1765      28.7324    5760.2466 
  197500      197.488    293.80547     12.26668   -604.87284   -592.60616    18587.192    38778.047    55121.854   -38138.324      15.2149      13.1765      28.7324    5760.2466 
  198000      197.988     288.5216    12.046073   -604.63502   -592.58894    19502.713    38294.124    50528.816     -30314.8      15.2149      13.1765      28.7324    5760.2466 
  198500      198.488    305.51102    12.755399   -605.32756   -592.57216    19341.854    38572.993    50290.635   -30838.068      15.2149      13.1765      28.7324    5760.2466 
  199000      198.988    278.83362     11.64159   -604.19637   -592.55478     18640.47     40131.16    59781.185   -43990.935      15.2149      13.1765      28.7324    5760.2466 
  199500      199.488    283.41032    11.832672   -604.37096   -592.53829    19846.375    40751.181    55914.569   -37126.625      15.2149      13.1765      28.7324    5760.2466 
  200000      199.988    290.64782    12.134845   -604.65647   -592.52162    17557.941    39753.124    51053.801   -38133.103      15.2149      13.1765      28.7324    5760.2466 
  200500      200.488    317.18056    13.242614   -605.74936   -592.50674    19059.895    38875.597    53490.091   -35186.001      15.2149      13.1765      28.7324    5760.2466 
  201000      200.988    307.09352     12.82147   -605.30928   -592.48781    19517.697    42016.895    50111.249   -33575.053      15.2149      13.1765      28.7324    5760.2466 
  201500      201.488    294.28239    12.286592   -604.75829    -592.4717    17790.006    41723.052    48608.857   -36961.891      15.2149      13.1765      28.7324    5760.2466 
  202000      201.988    285.04569     11.90095   -604.35418   -592.45323    18401.557    37076.413    50441.948   -32313.691      15.2149      13.1765      28.7324    5760.2466 
  202500      202.488    287.09971    11.986708   -604.42372   -592.43701     18069.66    40094.165    53479.032   -39364.218      15.2149      13.1765      28.7324    5760.2466 
  203000      202.988    291.39401    12.165999   -604.58484   -592.41884    18560.175    38789.311    54207.839   -37316.624      15.2149      13.1765      28.7324    5760.2466 
  203500      203.488    301.95762    12.607041   -605.00957   -592.40253     17739.04     37206.88    54245.035   -38234.794      15.2149      13.1765      28.7324    5760.2466 
  204000      203.988    297.23443    12.409843   -604.79596   -592.38612    19398.789     39389.63    54373.401   -35566.662      15.2149      13.1765      28.7324    5760.2466 
  204500      204.488    302.25023    12.619257   -604.98712   -592.36787    18347.428    37673.505    52434.448    -35065.67      15.2149      13.1765      28.7324    5760.2466 
  205000      204.988     300.5115    12.546664   -604.89783   -592.35117    18447.478    41096.398    51399.599   -37153.562      15.2149      13.1765      28.7324    5760.2466 
  205500      205.488    293.53854    12.255536    -604.5885   -592.33297    19040.839    38795.567    55141.721    -36814.77      15.2149      13.1765      28.7324    5760.2466 
  206000      205.988    293.86319     12.26909   -604.58577   -592.31668    18305.835    39399.152    54898.017   -39379.665      15.2149      13.1765      28.7324    5760.2466 
  206500      206.488     298.1474     12.44796    -604.7464   -592.29844    17415.134    37902.784     53330.23   -38987.611      15.2149      13.1765      28.7324    5760.2466 
  207000      206.988    295.13739    12.322289   -604.60392   -592.28163     17580.48    38923.819    52201.709   -38384.087      15.2149      13.1765      28.7324    5760.2466 
  207500      207.488    309.10995    12.905658   -605.17175    -592.2661    18999.953    38795.508    50166.836   -31962.484      15.2149      13.1765      28.7324    5760.2466 
  208000      207.988    301.72586    12.597364   -604.84481   -592.24745    18995.812    40718.103    53369.618   -37100.285      15.2149      13.1765      28.7324    5760.2466 
  208500      208.488    292.84171    12.226442   -604.45746   -592.23102    18594.409    41780.804    49279.798   -35277.375      15.2149      13.1765      28.7324    5760.2466 
  209000      208.988    311.58338    13.008926   -605.22244   -592.21352    20543.945     35715.42    55003.123   -29086.708      15.2149      13.1765      28.7324    5760.2466 
  209500      209.488    294.80164    12.308271   -604.50489   -592.19662    19725.224    43117.436    49357.606    -33299.37      15.2149      13.1765      28.7324    5760.2466 
  210000      209.988    301.90834    12.604983   -604.78448    -592.1795    17155.386    40408.648    50528.998   -39471.489      15.2149      13.1765      28.7324    5760.2466 
  210500      210.488    313.49951    13.088926   -605.25259   -592.16367    18061.648    39816.261    50328.424   -35959.742      15.2149      13.1765      28.7324    5760.2466 
  211000      210.988    288.72001    12.054357   -604.19946    -592.1451    18627.869    38999.244    52274.311    -35389.95      15.2149      13.1765      28.7324    5760.2466 
  211500      211.488    304.08366    12.695805   -604.82437   -592.12857    18085.395    41211.903    55628.893   -42584.611      15.2149      13.1765      28.7324    5760.2466 
  212000      211.988    317.70476      13.2645   -605.37589   -592.11139    19773.563     39529.35    55376.018   -35584.679      15.2149      13.1765      28.7324    5760.2466 
[...]
  948500      948.488    399.84556    16.693963   -602.55227   -585.85831    19486.632    40372.578     56813.98   -38726.663      15.2149      13.1765      28.7324    5760.2466 
  949000      948.988    385.31849    16.087442   -601.94177   -585.85433     19486.87     41845.83     50267.66   -33652.881      15.2149      13.1765      28.7324    5760.2466 
  949500      949.488    366.42255    15.298518   -601.14894   -585.85042    20975.397    43303.351    50883.633   -31260.793      15.2149      13.1765      28.7324    5760.2466 
  950000      949.988    390.97834    16.323747   -602.17123   -585.84748     20052.53    39311.139    53646.807   -32800.355      15.2149      13.1765      28.7324    5760.2466 
  950500      950.488    378.59989    15.806934   -601.65108   -585.84414     20742.82    44105.576    58180.864    -40057.98      15.2149      13.1765      28.7324    5760.2466 
  951000      950.988    364.20518     15.20594    -601.0443   -585.83836    19848.343    42025.889    54940.073   -37420.932      15.2149      13.1765      28.7324    5760.2466 
  951500      951.488    373.18412     15.58082   -601.41562    -585.8348    19271.125    40516.359    54776.461   -37479.446      15.2149      13.1765      28.7324    5760.2466 
  952000      951.988    379.89303    15.860924   -601.69296   -585.83203    20436.042    43514.122    55032.256   -37238.251      15.2149      13.1765      28.7324    5760.2466 
  952500      952.488    385.08558    16.077718   -601.90698   -585.82927    20392.527    40506.829    51345.378   -30674.626      15.2149      13.1765      28.7324    5760.2466 
  953000      952.988    361.91126    15.110167   -600.93454   -585.82438    20437.764    37556.203    50654.465   -26897.377      15.2149      13.1765      28.7324    5760.2466 
  953500      953.488    378.15202    15.788235   -601.60827   -585.82003    21176.018    38593.907    54256.578   -29322.432      15.2149      13.1765      28.7324    5760.2466 
  954000      953.988    369.51472    15.427619   -601.24477   -585.81715    20110.803     39313.37    59230.722   -38211.683      15.2149      13.1765      28.7324    5760.2466 
  954500      954.488    366.05668    15.283242   -601.09663   -585.81338    18353.738    42219.278    47551.295   -34709.359      15.2149      13.1765      28.7324    5760.2466 
  955000      954.988    392.88637    16.403409   -602.21238   -585.80897    18702.783    42592.965    53029.348   -39513.964      15.2149      13.1765      28.7324    5760.2466 
  955500      955.488    400.92288    16.738942   -602.54613   -585.80719    20325.955    41747.434    55396.842   -36166.412      15.2149      13.1765      28.7324    5760.2466 
  956000      955.988    398.46388    16.636276   -602.44035   -585.80408    19546.184     39319.81    53826.828   -34508.084      15.2149      13.1765      28.7324    5760.2466 
  956500      956.488    376.38197    15.714334    -601.5121   -585.79776    19395.199    41955.293    55485.649   -39255.346      15.2149      13.1765      28.7324    5760.2466 
  957000      956.988    384.17764    16.039811   -601.83448   -585.79467    22734.182    44049.858    54899.337   -30746.648      15.2149      13.1765      28.7324    5760.2466 
  957500      957.488    376.81937    15.732596   -601.52145   -585.78885    19522.619    40561.079    51914.909   -33908.131      15.2149      13.1765      28.7324    5760.2466 
  958000      957.988    371.46128     15.50889   -601.29394   -585.78506    19014.706    45626.204    51109.826   -39691.912      15.2149      13.1765      28.7324    5760.2466 
  958500      958.488    378.13837    15.787665   -601.56772   -585.78006    21918.285    43472.318    54473.499   -32190.962      15.2149      13.1765      28.7324    5760.2466 
  959000      958.988    366.44399    15.299413   -601.07594   -585.77652    20166.394    39971.603    56231.704   -35704.124      15.2149      13.1765      28.7324    5760.2466 
  959500      959.488    386.52749     16.13792   -601.91089   -585.77297    21138.337    42973.283    52989.224   -32547.496      15.2149      13.1765      28.7324    5760.2466 
  960000      959.988    381.11444    15.911919   -601.68149   -585.76957    18222.601    36320.994    54190.499    -35843.69      15.2149      13.1765      28.7324    5760.2466 
  960500      960.488    389.02024    16.241994   -602.00789    -585.7659    19790.338    40019.473    50878.097   -31526.555      15.2149      13.1765      28.7324    5760.2466 
  961000      960.988    359.30903    15.001521   -600.76123   -585.75971    20364.273    41571.756    53095.668   -33574.605      15.2149      13.1765      28.7324    5760.2466 
  961500      961.488    357.60727    14.930471   -600.68555   -585.75508    18996.806    42917.735    54754.377   -40681.693      15.2149      13.1765      28.7324    5760.2466 
  962000      961.988    380.17487    15.872691   -601.62611   -585.75342    19238.073    42384.034    55142.942   -39812.758      15.2149      13.1765      28.7324    5760.2466 
  962500      962.488    366.05331    15.283102   -601.03182   -585.74872    20055.367    45958.558    55988.713   -41781.171      15.2149      13.1765      28.7324    5760.2466 
  963000      962.988    377.12934    15.745537   -601.48998   -585.74444    19573.755     41228.14    50046.438   -32553.313      15.2149      13.1765      28.7324    5760.2466 
  963500      963.488    384.64247    16.059218   -601.79971   -585.74049    20876.425    45913.783    53349.512    -36634.02      15.2149      13.1765      28.7324    5760.2466 
  964000      963.988    398.25221    16.627439   -602.36412   -585.73668    19053.383     43596.79    51274.965   -37711.606      15.2149      13.1765      28.7324    5760.2466 
  964500      964.488    386.38074    16.131793   -601.86324   -585.73144    19823.378    46454.582    52225.479   -39209.926      15.2149      13.1765      28.7324    5760.2466 
  965000      964.988    376.41947    15.715899   -601.44382   -585.72792    18909.477     38079.79    53448.193   -34799.553      15.2149      13.1765      28.7324    5760.2466 
  965500      965.488    386.86765    16.152121    -601.8751   -585.72297    19218.679    39044.919    54881.414   -36270.295      15.2149      13.1765      28.7324    5760.2466 
  966000      965.988    357.51724    14.926712   -600.64348   -585.71676     19942.88    39754.139    53669.616   -33595.115      15.2149      13.1765      28.7324    5760.2466 
  966500      966.488    370.02491     15.44892   -601.16259   -585.71367    19598.489    38911.617    53258.654   -33374.805      15.2149      13.1765      28.7324    5760.2466 
  967000      966.988    366.85747    15.316676   -601.02473   -585.70805    18259.914    40746.762    52403.163   -38370.183      15.2149      13.1765      28.7324    5760.2466 
  967500      967.488    372.95823    15.571389     -601.274   -585.70261    18551.156    46511.016    54838.692   -45696.241      15.2149      13.1765      28.7324    5760.2466 
  968000      967.988    365.40443     15.25601   -600.95409   -585.69808     18523.02    42205.958    52319.162   -38956.059      15.2149      13.1765      28.7324    5760.2466 
  968500      968.488    371.50939    15.510898   -601.20603   -585.69513    21598.873    44623.016    53417.723    -33244.12      15.2149      13.1765      28.7324    5760.2466 
  969000      968.988    387.33722    16.171727   -601.86429   -585.69257    19971.474    42116.327    51284.268   -33486.174      15.2149      13.1765      28.7324    5760.2466 
  969500      969.488    376.55414    15.721522    -601.4084   -585.68688    17877.142    42666.958    52442.404   -41477.935      15.2149      13.1765      28.7324    5760.2466 
  970000      969.988     369.9472    15.445676   -601.12685   -585.68117    19917.089    39803.233    52378.472   -32430.439      15.2149      13.1765      28.7324    5760.2466 
  970500      970.488    380.62275    15.891391   -601.56882   -585.67743    19043.506    45313.905     52737.14   -40920.526      15.2149      13.1765      28.7324    5760.2466 
  971000      970.988    368.69435    15.393368   -601.06581   -585.67244     20140.67    45557.613    56030.128   -41165.729      15.2149      13.1765      28.7324    5760.2466 
  971500      971.488    353.47565    14.757971   -600.42528   -585.66731    19490.597    40725.558    51149.845   -33403.613      15.2149      13.1765      28.7324    5760.2466 
  972000      971.988    389.06589    16.243901   -601.90719   -585.66329    19215.454    36578.242    51348.595   -30280.474      15.2149      13.1765      28.7324    5760.2466 
  972500      972.488    381.48864    15.927542   -601.58555     -585.658    18988.139    43929.706    46754.243    -33719.53      15.2149      13.1765      28.7324    5760.2466 
  973000      972.988    391.74942    16.355941   -602.00984    -585.6539    18536.789    43732.475    54633.077   -42755.183      15.2149      13.1765      28.7324    5760.2466 
  973500      973.488    380.92937    15.904192   -601.55199    -585.6478    19886.357    42074.505     55318.91   -37734.345      15.2149      13.1765      28.7324    5760.2466 
  974000      973.988     365.5302    15.261261   -600.90332   -585.64206    20339.934     45981.22    56508.034   -41469.451      15.2149      13.1765      28.7324    5760.2466 
  974500      974.488    407.51139    17.014019   -602.65308   -585.63906    19588.387    46951.047    51221.692   -39407.577      15.2149      13.1765      28.7324    5760.2466 
  975000      974.988    390.87438    16.319407   -601.95285   -585.63344    18691.769    40429.063     56911.09   -41264.847      15.2149      13.1765      28.7324    5760.2466 
  975500      975.488    367.83114    15.357328   -600.98551   -585.62818    21362.646    41690.851    53025.823   -30628.735      15.2149      13.1765      28.7324    5760.2466 
  976000      975.988    364.26154    15.208293   -600.83128   -585.62299      21463.7    44168.412    52696.271   -32473.583      15.2149      13.1765      28.7324    5760.2466 
  976500      976.488    400.34475    16.714805   -602.33327   -585.61847     20997.22    42338.719    54666.803   -34013.862      15.2149      13.1765      28.7324    5760.2466 
  977000      976.988    375.96886    15.697086   -601.30932   -585.61224     19467.44    37417.846    57567.935   -36583.461      15.2149      13.1765      28.7324    5760.2466 
  977500      977.488    390.68867    16.311653   -601.91987   -585.60821    19957.132    40271.517    56515.358   -36915.478      15.2149      13.1765      28.7324    5760.2466 
  978000      977.988    395.83135    16.526365   -602.12976    -585.6034    20037.635    45111.356    50173.575   -35172.026      15.2149      13.1765      28.7324    5760.2466 
  978500      978.488    373.77914    15.605663   -601.20268   -585.59701    20263.488    41937.121    53587.321   -34733.977      15.2149      13.1765      28.7324    5760.2466 
  979000      978.988    379.86302    15.859671    -601.4505   -585.59082    19465.985    43712.563    49112.395   -34427.003      15.2149      13.1765      28.7324    5760.2466 
  979500      979.488    376.42672    15.716202   -601.30278   -585.58658    19521.666    42494.707    51380.593   -35310.302      15.2149      13.1765      28.7324    5760.2466 
  980000      979.988    380.69336    15.894339   -601.47518   -585.58085    20338.777    38712.901    55774.766   -33471.336      15.2149      13.1765      28.7324    5760.2466 
  980500      980.488    389.92207    16.279647    -601.8551   -585.57545     19348.72    42456.972    58412.067    -42822.88      15.2149      13.1765      28.7324    5760.2466 
  981000      980.988    397.71979     16.60521   -602.17578   -585.57058    19647.812     42243.84    56771.934   -40072.339      15.2149      13.1765      28.7324    5760.2466 
  981500      981.488    382.86359    15.984948    -601.5475   -585.56255     18497.65    42807.845    52534.416    -39849.31      15.2149      13.1765      28.7324    5760.2466 
  982000      981.988    382.71632    15.978799   -601.53691   -585.55811    20146.128    43070.048    57502.582   -40134.248      15.2149      13.1765      28.7324    5760.2466 
  982500      982.488    390.97016    16.323406   -601.87615   -585.55274    18174.735    41972.485    52557.536   -40005.816      15.2149      13.1765      28.7324    5760.2466 
  983000      982.988    364.22002     15.20656   -600.75498   -585.54842    21221.744    46313.929    57378.323   -40027.019      15.2149      13.1765      28.7324    5760.2466 
  983500      983.488    361.33054    15.085921   -600.62786   -585.54194     19028.32    42375.109    50489.492   -35779.641      15.2149      13.1765      28.7324    5760.2466 
  984000      983.988    395.17909    16.499133   -602.03796   -585.53882    18722.401    41985.699    55115.274   -40933.769      15.2149      13.1765      28.7324    5760.2466 
  984500      984.488    363.85119    15.191161   -600.72283   -585.53167    19826.452    37651.619    55903.066   -34075.328      15.2149      13.1765      28.7324    5760.2466 
  985000      984.988    389.94313    16.280526   -601.80814   -585.52761    19064.949    43723.913    54258.995   -40788.061      15.2149      13.1765      28.7324    5760.2466 
  985500      985.488    397.51908     16.59683   -602.12124   -585.52441    20963.075     40167.34    52772.344    -30050.46      15.2149      13.1765      28.7324    5760.2466 
  986000      985.988    369.95634    15.446057    -600.9626   -585.51654    21287.115      44306.2    58713.347   -39158.202      15.2149      13.1765      28.7324    5760.2466 
  986500      986.488    388.37916    16.215229   -601.72506   -585.50983    18938.522    41141.937    54624.759   -38951.129      15.2149      13.1765      28.7324    5760.2466 
  987000      986.988     381.4731    15.926894    -601.4331   -585.50621    18642.269    41497.089    54208.525   -39778.808      15.2149      13.1765      28.7324    5760.2466 
  987500      987.488    385.87066    16.110496   -601.61027   -585.49978    21384.413    38301.602    54410.593   -28558.958      15.2149      13.1765      28.7324    5760.2466 
  988000      987.988    385.77514    16.106508   -601.60036   -585.49385    19972.143    39667.628    53740.158   -33491.358      15.2149      13.1765      28.7324    5760.2466 
  988500      988.488    380.18675    15.873187   -601.35982   -585.48664    20856.773    39365.552    53014.094   -29809.327      15.2149      13.1765      28.7324    5760.2466 
  989000      988.988    382.61921    15.974745   -601.45715    -585.4824    19750.317    40695.515    55508.148   -36952.712      15.2149      13.1765      28.7324    5760.2466 
  989500      989.488     377.5128    15.761547   -601.23842   -585.47687    19459.225    38864.096    54104.998   -34591.419      15.2149      13.1765      28.7324    5760.2466 
  990000      989.988    379.45253    15.842533   -601.31251   -585.46997    18326.153    40373.217    49779.977   -35174.736      15.2149      13.1765      28.7324    5760.2466 
  990500      990.488    385.02525    16.075199   -601.54021   -585.46501     18286.42    42902.458     49380.74   -37423.939      15.2149      13.1765      28.7324    5760.2466 
  991000      990.988    397.63043    16.601479   -602.05949   -585.45801    20267.389    42100.276    53722.976   -35021.086      15.2149      13.1765      28.7324    5760.2466 
  991500      991.488    377.45372     15.75908   -601.20924   -585.45016    19520.815    40905.592    54343.981   -36687.127      15.2149      13.1765      28.7324    5760.2466 
  992000      991.988    392.03161    16.367722   -601.81391   -585.44619    20516.647    40716.706     55913.47   -35080.236      15.2149      13.1765      28.7324    5760.2466 
  992500      992.488     379.4802    15.843688   -601.28503   -585.44134    18945.904    36206.297     56999.87   -36368.456      15.2149      13.1765      28.7324    5760.2466 
  993000      992.988    383.11044    15.995254   -601.43007   -585.43481    22110.855     41792.41    56326.845   -31786.689      15.2149      13.1765      28.7324    5760.2466 
  993500      993.488    385.04564    16.076051   -601.50505     -585.429    19180.247    38192.431    54784.708   -35436.397      15.2149      13.1765      28.7324    5760.2466 
  994000      993.988    388.39625    16.215942   -601.63801   -585.42207    19456.112    41004.698    54403.433   -37039.794      15.2149      13.1765      28.7324    5760.2466 
  994500      994.488    381.97806    15.947976   -601.36538    -585.4174    20881.107    41117.077    53540.296   -32014.054      15.2149      13.1765      28.7324    5760.2466 
  995000      994.988    385.29329     16.08639   -601.49596   -585.40957     19364.71    43791.769    50023.225   -35720.864      15.2149      13.1765      28.7324    5760.2466 
  995500      995.488    378.51793    15.803512    -601.2058   -585.40229    18711.342     41601.01     53110.19   -38577.175      15.2149      13.1765      28.7324    5760.2466 
  996000      995.988    402.68621    16.812563   -602.21063   -585.39807    18509.861    43375.866    52173.721   -40020.003      15.2149      13.1765      28.7324    5760.2466 
  996500      996.488    389.45541    16.260163   -601.65121   -585.39104    18244.506    42208.016    55581.015   -43055.514      15.2149      13.1765      28.7324    5760.2466 
  997000      996.988    361.38014    15.087992   -600.47144   -585.38344    20119.885    41735.378    57006.108   -38381.832      15.2149      13.1765      28.7324    5760.2466 
  997500      997.488    374.11698    15.619768   -600.99495   -585.37518    20861.187    40910.432    55721.905   -34048.776      15.2149      13.1765      28.7324    5760.2466 
  998000      997.988    380.30977    15.878323   -601.24894   -585.37061    18964.609    38247.053    56013.961   -37367.185      15.2149      13.1765      28.7324    5760.2466 
  998500      998.488    394.91053     16.48792    -601.8516   -585.36368    18037.346    39284.825    50989.356   -36162.142      15.2149      13.1765      28.7324    5760.2466 
  999000      998.988    392.45095     16.38523   -601.74308   -585.35785    18733.229    33913.848     53991.48    -31705.64      15.2149      13.1765      28.7324    5760.2466 
  999500      999.488    380.02826     15.86657   -601.21859   -585.35202     20242.85    42162.203    52573.689   -34007.343      15.2149      13.1765      28.7324    5760.2466 
 1000000      999.988     362.6726    15.141954   -600.48653   -585.34458    20938.373    40527.943    57520.188    -35233.01      15.2149      13.1765      28.7324    5760.2466 
 1000012         1000    376.15553    15.704879   -601.05065   -585.34577    20603.035     39540.15    60291.693   -38022.739      15.2149      13.1765      28.7324    5760.2466 
Loop time of 919.879 on 28 procs for 1000000 steps with 324 atoms

Performance: 93.925 ns/day, 0.256 hours/ns, 1087.099 timesteps/s
87.9% CPU use with 28 MPI tasks x no OpenMP threads

MPI task timing breakdown:
Section |  min time  |  avg time  |  max time  |%varavg| %total
---------------------------------------------------------------
Pair    | 722.41     | 797.15     | 843.14     | 128.1 | 86.66
Neigh   | 0          | 0          | 0          |   0.0 |  0.00
Comm    | 64.59      | 109.7      | 182.18     | 337.5 | 11.93
Output  | 0.099812   | 0.10217    | 0.12487    |   1.4 |  0.01
Modify  | 5.2239     | 7.8816     | 10.453     |  59.0 |  0.86
Other   |            | 5.045      |            |       |  0.55

Nlocal:    11.5714 ave 15 max 5 min
Histogram: 1 1 4 1 1 0 1 8 1 10
Nghost:    659.786 ave 712 max 616 min
Histogram: 6 6 0 0 0 3 5 3 2 3
Neighs:    722.357 ave 989 max 314 min
Histogram: 1 4 2 1 0 3 6 2 3 6
FullNghs:  1444.71 ave 1928 max 633 min
Histogram: 2 3 2 1 0 1 7 1 2 9

Total # of neighbors = 40452
Ave neighs/atom = 124.852
Neighbor list builds = 0
Dangerous builds = 0

write_restart   POSCAR_1x1x1.rest

#unfix    1
#undump   1
Total wall time: 0:15:19
