LAMMPS (7 Dec 2015)
#----------- Initialize Simulation ------------ restart01
#processors	2 2 2
units		metal
boundary	p p p     ## periodic boundary condition  on x y z axis ##
atom_style atomic
#atom_modify map array sort 0 0.0

read_data	POSCAR_1x1x1.lammps
  triclinic box = (0 0 0) to (15.2149 13.1765 28.7324) with tilt (-7.60743 0 0)
  2 by 2 by 7 MPI processor grid
  reading atoms ...
  324 atoms

#----------- Define Potential -----------------
pair_style meam
pair_coeff * * MgAlZn.library.meam Mg Al Zn MgAlZn.parameter.meam Mg Al Zn 	#1=Mg 2=Al 3=Zn	#atoms/mass

#----------- Neighbor List --------------------
neighbor 2.0 bin
neigh_modify delay 10 check yes

#--------------  Run a simulation (minimization) ---------------------------------------
minimize       1.0e-4   1.0e-6   100   1000          #結構優化的條件
WARNING: Resetting reneighboring criteria during minimization (../min.cpp:168)
Neighbor list info ...
  2 neighbor list requests
  update every 1 steps, delay 0 steps, check yes
  max neighbors/atom: 2000, page size: 100000
  master list distance cutoff = 8
  ghost atom cutoff = 8
  binsize = 4 -> bins = 6 4 8
Memory usage per processor = 8.65368 Mbytes
Step Temp E_pair E_mol TotEng Press 
       0            0   -457.99374            0   -457.99374    -7128.621 
      12            0   -472.46111            0   -472.46111    -16418.51 
Loop time of 0.018983 on 28 procs for 12 steps with 324 atoms

87.7% CPU use with 28 MPI tasks x no OpenMP threads

Minimization stats:
  Stopping criterion = energy tolerance
  Energy initial, next-to-last, final = 
        -457.993739914     -472.433988739     -472.461112508
  Force two-norm initial, final = 18.2839 2.47315
  Force max component initial, final = 3.00714 0.643798
  Final line search alpha, max atom move = 0.123343 0.0794082
  Iterations, force evaluations = 12 21

MPI task timing breakdown:
Section |  min time  |  avg time  |  max time  |%varavg| %total
---------------------------------------------------------------
Pair    | 0.015444   | 0.016329   | 0.017064   |   0.3 | 86.02
Neigh   | 0          | 0          | 0          |   0.0 |  0.00
Comm    | 0.0011412  | 0.0018496  | 0.002703   |   1.0 |  9.74
Output  | 0          | 0          | 0          |   0.0 |  0.00
Modify  | 0          | 0          | 0          |   0.0 |  0.00
Other   |            | 0.0008042  |            |       |  4.24

Nlocal:    11.5714 ave 15 max 7 min
Histogram: 1 0 4 3 0 5 9 0 2 4
Nghost:    662.857 ave 709 max 628 min
Histogram: 7 4 1 2 6 0 0 1 1 6
Neighs:    718.143 ave 953 max 444 min
Histogram: 1 2 3 2 2 8 4 1 1 4
FullNghs:  1436.29 ave 1878 max 886 min
Histogram: 1 0 4 3 4 4 6 0 2 4

Total # of neighbors = 40216
Ave neighs/atom = 124.123
Neighbor list builds = 0
Dangerous builds = 0
velocity all  create 393.0 4928459 #rot yes dist gaussian

#--------------  Run a simulation (Relaxation)  ----------------------------------------
fix  1  all  nvt   temp  393.0  393.0  100				#damping constant
#fix  2  all  npt   temp  393.0  393.0  50 iso 0.0 0.0 1000.0
#fix  2  all deform 1 x final 0 15.6906 y final 0 13.5884 z final 0 25.2339 xy final -7.8452 units lattice
#fix  3  all  npt   temp  393.0  393.0  50 z 0.0 0.0 1000.0

#variable b equal 1
#fix 2 all efield  0.0  0.0  v_b
#compute pot all pe/atom


#----------- Output --------------------------
thermo	 500
timestep  0.001		#1.0 fs
thermo_style	custom step time temp ke pe etotal press pxx pyy pzz lx ly lz vol

dump 1 all custom 10000 dump.eq id type x y z
dump_modify 1 sort  id

run        1000000	#10000	 ps
Neighbor list info ...
  2 neighbor list requests
  update every 1 steps, delay 10 steps, check yes
  max neighbors/atom: 2000, page size: 100000
  master list distance cutoff = 8
  ghost atom cutoff = 8
  binsize = 4 -> bins = 6 4 8
Memory usage per processor = 7.54415 Mbytes
Step Time Temp KinEng PotEng TotEng Press Pxx Pyy Pzz Lx Ly Lz Volume 
      12            0          393    16.408154   -472.46111   -456.05296    -13375.96    10404.811    17355.977   -67888.666      15.2149      13.1765      28.7324    5760.2466 
     500        0.488    208.13343    8.6897846     -464.739   -456.04921   -10896.174    13894.289    20938.426   -67521.238      15.2149      13.1765      28.7324    5760.2466 
    1000        0.988    197.26782     8.236134   -464.28542   -456.04928   -10256.312    14445.782    23544.222   -68758.939      15.2149      13.1765      28.7324    5760.2466 
    1500        1.488    213.87881      8.92966    -464.9786   -456.04894   -10231.738    14824.801    21749.404    -67269.42      15.2149      13.1765      28.7324    5760.2466 
    2000        1.988    211.55018    8.8324373   -464.88071   -456.04828    -10158.92    13611.659    23430.645   -67519.064      15.2149      13.1765      28.7324    5760.2466 
    2500        2.488     203.3693    8.4908771   -464.53758   -456.04671   -11096.052    13451.295    20082.306   -66821.756      15.2149      13.1765      28.7324    5760.2466 
    3000        2.988    208.50789    8.7054186   -464.75117   -456.04576   -10499.467    14311.548    22179.383   -67989.333      15.2149      13.1765      28.7324    5760.2466 
    3500        3.488     198.2088    8.2754208   -464.31947   -456.04405   -11068.573    11413.091     22393.53    -67012.34      15.2149      13.1765      28.7324    5760.2466 
    4000        3.988    213.75254    8.9243879   -464.96715   -456.04276   -10506.267    14280.667    20661.484   -66460.951      15.2149      13.1765      28.7324    5760.2466 
    4500        4.488    211.45664    8.8285317   -464.86998   -456.04145   -9918.4605     14456.19    22572.773   -66784.345      15.2149      13.1765      28.7324    5760.2466 
    5000        4.988    201.53337    8.4142252   -464.45334   -456.03912   -10373.558    15300.646    21397.674   -67818.994      15.2149      13.1765      28.7324    5760.2466 
    5500        5.488    201.69325    8.4209001   -464.45759   -456.03669   -10384.561    16192.477    23037.642   -70383.801      15.2149      13.1765      28.7324    5760.2466 
    6000        5.988    212.60172    8.8763402   -464.91106   -456.03472   -10744.717    15357.857    19381.138   -66973.146      15.2149      13.1765      28.7324    5760.2466 
    6500        6.488    201.64996    8.4190928   -464.45127   -456.03218   -11106.904    11596.945    23155.603   -68073.258      15.2149      13.1765      28.7324    5760.2466 
    7000        6.988    218.34381    9.1160781   -465.14554   -456.02946   -10145.101     15778.52    22139.955   -68353.779      15.2149      13.1765      28.7324    5760.2466 
    7500        7.488    204.54206    8.5398411   -464.56622   -456.02637   -10806.627    16901.185    21856.072   -71177.139      15.2149      13.1765      28.7324    5760.2466 
    8000        7.988    212.54575    8.8740034   -464.89707   -456.02307   -10687.553     14427.76    23598.623   -70089.043      15.2149      13.1765      28.7324    5760.2466 
    8500        8.488    201.95671    8.4319001   -464.45149   -456.01959   -9764.4368     15326.95    24300.367   -68920.628      15.2149      13.1765      28.7324    5760.2466 
    9000        8.988    214.35911     8.949713   -464.96601    -456.0163   -11946.325    13556.027    19556.089    -68951.09      15.2149      13.1765      28.7324    5760.2466 
    9500        9.488    213.19344    8.9010451   -464.91341   -456.01237    -11421.55     14232.05    21781.142   -70277.843      15.2149      13.1765      28.7324    5760.2466 
   10000        9.988    210.31639    8.7809251    -464.7892   -456.00827   -9918.7687    15791.926    20949.504   -66497.736      15.2149      13.1765      28.7324    5760.2466 
   10500       10.488    208.99245    8.7256495   -464.72953   -456.00389   -10753.335    15414.762    19614.132     -67288.9      15.2149      13.1765      28.7324    5760.2466 
   11000       10.988    215.81687     9.010576   -465.01015   -455.99958   -10093.841    14463.621    20116.328   -64861.473      15.2149      13.1765      28.7324    5760.2466 
   11500       11.488    201.90934    8.4299223   -464.42452    -455.9946   -10134.441    14676.356    22727.103   -67806.781      15.2149      13.1765      28.7324    5760.2466 
   12000       11.988    204.83086    8.5518988    -464.5419      -455.99   -10619.694    12124.094    23232.207   -67215.384      15.2149      13.1765      28.7324    5760.2466 
   12500       12.488    203.17662    8.4828325   -464.46789   -455.98506    -10287.41    15775.822    21744.113   -68382.163      15.2149      13.1765      28.7324    5760.2466 
   13000       12.988    212.72477    8.8814777   -464.86133   -455.97985   -11280.797     14754.51    20647.742   -69244.642      15.2149      13.1765      28.7324    5760.2466 
   13500       13.488    214.94436    8.9741477    -464.9487   -455.97456   -11207.609    12934.638    18133.352   -64690.817      15.2149      13.1765      28.7324    5760.2466 
   14000       13.988    218.45641    9.1207793   -465.08969   -455.96891   -10231.933    15971.458    22128.274    -68795.53      15.2149      13.1765      28.7324    5760.2466 
   14500       14.488    200.36342    8.3653787    -464.3287   -455.96332   -10620.646    14475.943    20966.322   -67304.202      15.2149      13.1765      28.7324    5760.2466 
   15000       14.988    213.15104    8.8992746   -464.85581   -455.95653   -10466.768    17136.468     19512.19   -68048.962      15.2149      13.1765      28.7324    5760.2466 
   15500       15.488    196.49688    8.2039467   -464.15385    -455.9499    -10057.53    13921.443    19087.975   -63182.007      15.2149      13.1765      28.7324    5760.2466 
   16000       15.988    209.91232     8.764055   -464.70824   -455.94418   -11353.675    16063.617    20286.916   -70411.557      15.2149      13.1765      28.7324    5760.2466 
   16500       16.488    222.69259    9.2976444   -465.23527   -455.93763   -11604.907    13035.781    20748.858   -68599.361      15.2149      13.1765      28.7324    5760.2466 
   17000       16.988    209.80669    8.7596448   -464.69001   -455.93037   -10386.599     14730.92    20249.081   -66139.797      15.2149      13.1765      28.7324    5760.2466 
   17500       17.488    216.40439    9.0351056   -464.95844   -455.92333   -10808.501    13914.993    22775.206   -69115.703      15.2149      13.1765      28.7324    5760.2466 
   18000       17.988    214.06816    8.9375656   -464.85356   -455.91599   -10096.243    15330.945    22193.553   -67813.228      15.2149      13.1765      28.7324    5760.2466 
   18500       18.488    214.45797    8.9538403   -464.86243   -455.90859   -10863.077    12394.343     21268.43   -66252.003      15.2149      13.1765      28.7324    5760.2466 
   19000       18.988     221.3045    9.2396899   -465.14076   -455.90107    -11204.02    15348.857     22695.75   -71656.668      15.2149      13.1765      28.7324    5760.2466 
   19500       19.488    213.34595    8.9074125   -464.80054   -455.89313   -9926.1071    13691.122    21784.336   -65253.779      15.2149      13.1765      28.7324    5760.2466 
   20000       19.988    222.24513    9.2789623   -465.16389   -455.88493    -10571.12    15285.019    21314.774   -68313.153      15.2149      13.1765      28.7324    5760.2466 
   20500       20.488    228.91988    9.5576402   -465.43438   -455.87674   -10560.856    13684.758    20803.841   -66171.167      15.2149      13.1765      28.7324    5760.2466 
   21000       20.988    209.53872    8.7484569    -464.6164   -455.86795    -9871.259     17087.43     21591.86   -68293.067      15.2149      13.1765      28.7324    5760.2466 
   21500       21.488    216.08613    9.0218178    -464.8815   -455.85968   -10835.251    13621.761    20829.026    -66956.54      15.2149      13.1765      28.7324    5760.2466 
   22000       21.988    217.48875    9.0803786   -464.93137   -455.85099   -11380.707    16109.752    22834.366    -73086.24      15.2149      13.1765      28.7324    5760.2466 
   22500       22.488    204.28408    8.5290702   -464.37143   -455.84236   -10246.385    14905.889    21430.246   -67075.292      15.2149      13.1765      28.7324    5760.2466 
   23000       22.988    202.84297    8.4689024   -464.30133   -455.83243   -10447.882    14552.571    20833.961   -66730.179      15.2149      13.1765      28.7324    5760.2466 
   23500       23.488    204.62811    8.5434339   -464.36633    -455.8229   -10806.747    14110.375    22451.427   -68982.043      15.2149      13.1765      28.7324    5760.2466 
   24000       23.988    207.46237    8.6617671   -464.47497    -455.8132   -10579.126    14708.103    21510.229   -67955.711      15.2149      13.1765      28.7324    5760.2466 
   24500       24.488      223.209     9.319205   -465.12286   -455.80365   -11254.027    13867.161    20631.305   -68260.547      15.2149      13.1765      28.7324    5760.2466 
   25000       24.988    216.52233    9.0400295   -464.83394   -455.79391   -10781.286    14151.645    21408.499   -67904.003      15.2149      13.1765      28.7324    5760.2466 
   25500       25.488    211.72543    8.8397539   -464.62379   -455.78404   -10294.519    13374.366    23238.217    -67496.14      15.2149      13.1765      28.7324    5760.2466 
   26000       25.988    204.22475    8.5265929   -464.29956   -455.77296   -10810.057     13189.13    21094.093   -66713.394      15.2149      13.1765      28.7324    5760.2466 
   26500       26.488    232.24429    9.6964375   -465.46011   -455.76368    -11290.45     13920.76    20738.983   -68531.094      15.2149      13.1765      28.7324    5760.2466 
   27000       26.988    208.95923    8.7242623   -464.47645   -455.75219   -9948.3751    13706.407    21949.274   -65500.807      15.2149      13.1765      28.7324    5760.2466 
   27500       27.488    211.88061    8.8462329   -464.58793    -455.7417   -10959.487     15698.52    20720.225   -69297.207      15.2149      13.1765      28.7324    5760.2466 
   28000       27.988     221.7763    9.2593883   -464.99022   -455.73083     -10691.8    13966.346    20466.656   -66508.401      15.2149      13.1765      28.7324    5760.2466 
   28500       28.488    212.68535    8.8798318    -464.5998   -455.71997   -9900.7893    15563.801    19638.263   -64904.432      15.2149      13.1765      28.7324    5760.2466 
   29000       28.988    205.06155    8.5615303   -464.27011   -455.70858   -10534.266    16724.155    22066.261   -70393.214      15.2149      13.1765      28.7324    5760.2466 
   29500       29.488     212.0331    8.8525995   -464.54961   -455.69701   -10595.717    15363.374     23501.01   -70651.535      15.2149      13.1765      28.7324    5760.2466 
   30000       29.988    211.58698    8.8339737   -464.51994   -455.68596   -9696.5505    15580.489    21390.847   -66060.987      15.2149      13.1765      28.7324    5760.2466 
   30500       30.488    209.83519    8.7608345    -464.4349   -455.67407   -10956.702    15970.286    20505.676   -69346.068      15.2149      13.1765      28.7324    5760.2466 
   31000       30.988     218.9303    9.1405646   -464.80364   -455.66308   -10551.982    12348.117    21102.151   -65106.216      15.2149      13.1765      28.7324    5760.2466 
   31500       31.488    214.01511    8.9353504   -464.58636   -455.65101   -11180.715    12467.771    19352.089   -65362.005      15.2149      13.1765      28.7324    5760.2466 
   32000       31.988    201.25689    8.4026819   -464.04133   -455.63865   -10444.441    16875.027    20661.385   -68869.734      15.2149      13.1765      28.7324    5760.2466 
   32500       32.488    209.92386    8.7645369   -464.39136   -455.62682   -11137.268    13481.351    21917.506   -68810.661      15.2149      13.1765      28.7324    5760.2466 
   33000       32.988    219.09579    9.1474743   -464.76276   -455.61529   -10835.144    14133.883    21906.131   -68545.447      15.2149      13.1765      28.7324    5760.2466 
   33500       33.488    221.75792    9.2586208   -464.86162     -455.603   -11032.728    14117.238    20764.058    -67979.48      15.2149      13.1765      28.7324    5760.2466 
   34000       33.988     214.1822    8.9423268    -464.5329   -455.59058    -9951.277    16015.446    22543.465   -68412.742      15.2149      13.1765      28.7324    5760.2466 
   34500       34.488    206.33911    8.6148699   -464.19305   -455.57818    -9680.246    15270.283    23217.977   -67528.998      15.2149      13.1765      28.7324    5760.2466 
   35000       34.988    211.04322    8.8112711   -464.37699   -455.56572   -11443.882    15195.142    20080.987   -69607.776      15.2149      13.1765      28.7324    5760.2466 
   35500       35.488    225.40973    9.4110877   -464.96432   -455.55324   -10063.024    13064.281    21358.639   -64611.992      15.2149      13.1765      28.7324    5760.2466 
   36000       35.988    213.42241    8.9106048   -464.45119   -455.54059   -10427.889    13908.803    22101.208   -67293.678      15.2149      13.1765      28.7324    5760.2466 
   36500       36.488    204.60676    8.5425424    -464.0703   -455.52776   -11371.146    14759.906    19567.095    -68440.44      15.2149      13.1765      28.7324    5760.2466 
   37000       36.988    220.63168    9.2115993   -464.72719   -455.51559   -10788.833    14660.712     22034.57    -69061.78      15.2149      13.1765      28.7324    5760.2466 
   37500       37.488      219.555    9.1666466   -464.66927   -455.50262   -10697.965    15064.333    24256.985   -71415.211      15.2149      13.1765      28.7324    5760.2466 
   38000       37.988    218.78003     9.134291   -464.62471   -455.49042   -10743.029    16514.767    21546.114   -70289.968      15.2149      13.1765      28.7324    5760.2466 
   38500       38.488    204.92694    8.5559102   -464.03321    -455.4773   -9557.3819     16249.19     24149.17   -69070.506      15.2149      13.1765      28.7324    5760.2466 
   39000       38.988    213.90775    8.9308684   -464.39556   -455.46469   -9613.5581    14811.503    22587.662   -66239.839      15.2149      13.1765      28.7324    5760.2466 
   39500       39.488    213.32525    8.9065483   -464.35842   -455.45187   -10906.409    15358.842    21100.126   -69178.196      15.2149      13.1765      28.7324    5760.2466 
   40000       39.988    225.32774    9.4076646   -464.84737   -455.43971   -9705.7386    14167.488    21158.047   -64442.751      15.2149      13.1765      28.7324    5760.2466 
   40500       40.488    215.94557    9.0159492   -464.44287   -455.42692   -10191.746    13186.043    20366.903   -64128.185      15.2149      13.1765      28.7324    5760.2466 
   41000       40.988    225.54005    9.4165288   -464.83051   -455.41398    -10114.56     14530.98    22118.247   -66992.908      15.2149      13.1765      28.7324    5760.2466 
   41500       41.488    212.17319    8.8584485   -464.25923   -455.40078   -10612.037    15063.873    22929.121   -69829.106      15.2149      13.1765      28.7324    5760.2466 
   42000       41.988    201.56503    8.4155468   -463.80344   -455.38789    -9663.615    16957.306    22374.916   -68323.067      15.2149      13.1765      28.7324    5760.2466 
   42500       42.488    217.58185    9.0842655    -464.4597   -455.37544   -10629.921    15380.209    21964.225   -69234.196      15.2149      13.1765      28.7324    5760.2466 
   43000       42.988    223.35758    9.3254083   -464.68806   -455.36265   -10176.886     15436.89    19262.252   -65229.801      15.2149      13.1765      28.7324    5760.2466 
   43500       43.488    230.34753    9.6172458   -464.96738   -455.35014    -10136.39    14646.906    24551.237   -69607.315      15.2149      13.1765      28.7324    5760.2466 
   44000       43.988    216.91889    9.0565862   -464.39398   -455.33739   -10585.776    14581.213    22965.383   -69303.924      15.2149      13.1765      28.7324    5760.2466 
   44500       44.488    217.28348    9.0718084   -464.39622   -455.32441   -10654.439    13045.471    22441.124    -67449.91      15.2149      13.1765      28.7324    5760.2466 
   45000       44.988    216.10236    9.0224955   -464.33445   -455.31195   -10283.066    14893.798    21458.655   -67201.651      15.2149      13.1765      28.7324    5760.2466 
   45500       45.488    220.01995    9.1860588   -464.48599   -455.29993    -10867.76    12428.084    20832.126   -65863.489      15.2149      13.1765      28.7324    5760.2466 
   46000       45.988     215.4515    8.9953214   -464.28262    -455.2873   -10799.945    17360.469    19604.736   -69365.038      15.2149      13.1765      28.7324    5760.2466 
   46500       46.488    222.19409    9.2768313   -464.55173    -455.2749   -10646.486    15788.835     20657.82   -68386.115      15.2149      13.1765      28.7324    5760.2466 
   47000       46.988    212.02087    8.8520891   -464.11427   -455.26218    -10940.93    14279.891    22199.527   -69302.208      15.2149      13.1765      28.7324    5760.2466 
   47500       47.488     217.0208     9.060841   -464.31029   -455.24944   -11293.836     13857.59    20763.193   -68502.291      15.2149      13.1765      28.7324    5760.2466 
   48000       47.988    225.54445    9.4167124   -464.65456   -455.23785    -10850.34    14867.061    21511.518     -68929.6      15.2149      13.1765      28.7324    5760.2466 
   48500       48.488    233.71965    9.7580355   -464.98386   -455.22583   -10894.621    13259.634    22787.951   -68731.447      15.2149      13.1765      28.7324    5760.2466 
   49000       48.988    219.16127    9.1502079   -464.36294   -455.21273   -9659.5981    13520.326    21333.504   -63832.625      15.2149      13.1765      28.7324    5760.2466 
   49500       49.488    218.78969    9.1346942   -464.33597   -455.20128   -10379.507    16842.084     18659.69   -66640.296      15.2149      13.1765      28.7324    5760.2466 
   50000       49.988    205.31398    8.5720693   -463.76058   -455.18851    -9939.231    16761.765    25260.533   -71839.991      15.2149      13.1765      28.7324    5760.2466 
   50500       50.488    219.47284    9.1632163   -464.34053   -455.17731   -10731.176    16925.865     23312.09   -72431.484      15.2149      13.1765      28.7324    5760.2466 
   51000       50.988    216.78389    9.0509498     -464.216   -455.16505   -8444.6105    15667.561    25084.876   -66086.268      15.2149      13.1765      28.7324    5760.2466 
   51500       51.488     210.8501     8.803208   -463.95626   -455.15305    -10596.87    14218.237    24208.424   -70217.269      15.2149      13.1765      28.7324    5760.2466 
   52000       51.988    215.71196    9.0061958   -464.14785   -455.14166   -10419.414    14430.035    20715.142   -66403.419      15.2149      13.1765      28.7324    5760.2466 
   52500       52.488    218.86385    9.1377906   -464.26773   -455.12994   -11074.717    14171.546    23502.014   -70897.712      15.2149      13.1765      28.7324    5760.2466 
   53000       52.988    228.34697    9.5337206   -464.65241   -455.11868   -9567.8457    16356.376    23092.829   -68152.742      15.2149      13.1765      28.7324    5760.2466 
   53500       53.488    221.34189    9.2412511   -464.34817   -455.10692   -10437.047    14415.154    23577.884   -69304.178      15.2149      13.1765      28.7324    5760.2466 
   54000       53.988    213.68507     8.921571   -464.01674   -455.09516   -10157.951    16222.463    22489.969   -69186.284      15.2149      13.1765      28.7324    5760.2466 
   54500       54.488    222.18242    9.2763443   -464.36092   -455.08457   -10812.465    14930.303    21254.109   -68621.806      15.2149      13.1765      28.7324    5760.2466 
   55000       54.988    220.93099    9.2240958   -464.29717   -455.07308   -10856.072    16293.351    22494.139   -71355.704      15.2149      13.1765      28.7324    5760.2466 
   55500       55.488    221.12578    9.2322285    -464.2938   -455.06158   -10895.057    17264.943    22911.737   -72861.851      15.2149      13.1765      28.7324    5760.2466 
   56000       55.988    213.63718    8.9195715   -463.97022   -455.05064   -10333.923     16858.07     22973.81   -70833.648      15.2149      13.1765      28.7324    5760.2466 
   56500       56.488    222.46199    9.2880164   -464.32779   -455.03977   -10712.001    13696.389    23128.394   -68960.784      15.2149      13.1765      28.7324    5760.2466 
   57000       56.988    212.85364    8.8868578   -463.91499   -455.02813   -11015.141    12517.291    23623.996    -69186.71      15.2149      13.1765      28.7324    5760.2466 
   57500       57.488    211.52513    8.8313915   -463.84865   -455.01725   -11063.047    12015.384    24689.817   -69894.341      15.2149      13.1765      28.7324    5760.2466 
   58000       57.988    221.76218    9.2587987   -464.26534   -455.00655   -10703.233    13700.998    19860.294   -65670.993      15.2149      13.1765      28.7324    5760.2466 
   58500       58.488    218.34183    9.1159958   -464.11077   -454.99478   -10678.287    15006.046    23993.598   -71034.505      15.2149      13.1765      28.7324    5760.2466 
   59000       58.988    222.99665    9.3103393   -464.29495   -454.98461   -10963.087    17123.149    19098.086   -69110.495      15.2149      13.1765      28.7324    5760.2466 
   59500       59.488    223.26073    9.3213646   -464.29498   -454.97361   -10404.694    14733.665    23282.763    -69230.51      15.2149      13.1765      28.7324    5760.2466 
   60000       59.988     223.4186     9.327956   -464.29085   -454.96289   -11363.122    14258.067    21905.898   -70253.332      15.2149      13.1765      28.7324    5760.2466 
   60500       60.488    218.95615    9.1416441   -464.09305   -454.95141   -11843.023    14593.535    19169.168   -69291.771      15.2149      13.1765      28.7324    5760.2466 
   61000       60.988    218.04783    9.1037208   -464.04456   -454.94084   -11376.664    15392.931    21328.882   -70851.806      15.2149      13.1765      28.7324    5760.2466 
   61500       61.488    220.39416    9.2016823   -464.13188    -454.9302   -9532.9563    16498.774    20159.483   -65257.126      15.2149      13.1765      28.7324    5760.2466 
   62000       61.988    225.65743    9.4214296   -464.34117   -454.91975   -10528.403    14879.108    20024.374   -66488.691      15.2149      13.1765      28.7324    5760.2466 
   62500       62.488    215.16704     8.983445   -463.89259   -454.90915    -10512.75    14455.866    22276.758   -68270.875      15.2149      13.1765      28.7324    5760.2466 
   63000       62.988    209.77392    8.7582767   -463.65675   -454.89847   -10196.466    15352.502    20696.912    -66638.81      15.2149      13.1765      28.7324    5760.2466 
   63500       63.488    212.20098    8.8596087   -463.74716   -454.88756   -10437.358     15741.57    18883.394   -65937.039      15.2149      13.1765      28.7324    5760.2466 
   64000       63.988    213.72663    8.9233064   -463.80091    -454.8776   -10106.728    14585.778    21985.134   -66891.096      15.2149      13.1765      28.7324    5760.2466 
   64500       64.488    218.56756      9.12542   -463.99203   -454.86661   -10383.141    14671.452    22594.793   -68415.669      15.2149      13.1765      28.7324    5760.2466 
   65000       64.988    219.94768    9.1830416   -464.03932   -454.85628   -10863.075    15504.774    21702.241    -69796.24      15.2149      13.1765      28.7324    5760.2466 
   65500       65.488    224.43135    9.3702392    -464.2159   -454.84567    -11594.95    13834.465    22364.124    -70983.44      15.2149      13.1765      28.7324    5760.2466 
   66000       65.988    235.35007    9.8261071   -464.66142   -454.83531    -10123.78    13406.942    24706.783   -68485.066      15.2149      13.1765      28.7324    5760.2466 
   66500       66.488    203.19753    8.4837056   -463.30814   -454.82444   -10294.944    15539.306    22295.227   -68719.365      15.2149      13.1765      28.7324    5760.2466 
   67000       66.988    227.43972    9.4958417   -464.30993   -454.81409   -10075.358    14037.215    22627.747   -66891.036      15.2149      13.1765      28.7324    5760.2466 
   67500       67.488      233.567    9.7516619   -464.55588   -454.80422   -10104.764    14386.128     21058.83   -65759.249      15.2149      13.1765      28.7324    5760.2466 
   68000       67.988    209.65903    8.7534796   -463.54612   -454.79264   -9719.9865    16680.634    19208.648   -65049.242      15.2149      13.1765      28.7324    5760.2466 
   68500       68.488    223.80162    9.3439472   -464.12633   -454.78239   -10769.287    12775.867    23273.206   -68356.933      15.2149      13.1765      28.7324    5760.2466 
   69000       68.988    230.13197    9.6082461   -464.38061   -454.77237   -10575.005    16235.454    21380.634   -69341.103      15.2149      13.1765      28.7324    5760.2466 
   69500       69.488    206.04486    8.6025843   -463.36363   -454.76104   -8714.6375    18256.869    23582.919     -67983.7      15.2149      13.1765      28.7324    5760.2466 
   70000       69.988    223.06848    9.3133379   -464.06432   -454.75098   -10114.604    17052.222    22795.249   -70191.282      15.2149      13.1765      28.7324    5760.2466 
   70500       70.488    231.17536    9.6518088   -464.39242   -454.74061   -10021.606    16458.176    18310.172   -64833.166      15.2149      13.1765      28.7324    5760.2466 
   71000       70.988    219.81955    9.1776919   -463.90738   -454.72969   -10328.564    16460.931    21193.575   -68640.198      15.2149      13.1765      28.7324    5760.2466 
   71500       71.488    233.02098    9.7288651   -464.44887   -454.72001    -10345.69    17524.533    18768.672   -67330.274      15.2149      13.1765      28.7324    5760.2466 
   72000       71.988    228.22659    9.5286947   -464.23736   -454.70867   -10627.707    13106.278    22591.762   -67581.162      15.2149      13.1765      28.7324    5760.2466 
   72500       72.488    221.90298    9.2646771   -463.96285   -454.69817   -9307.8547    14400.205    23404.557   -65728.326      15.2149      13.1765      28.7324    5760.2466 
   73000       72.988    214.31712      8.94796   -463.63563   -454.68767   -10629.965    14363.948    20867.013   -67120.856      15.2149      13.1765      28.7324    5760.2466 
   73500       73.488    229.06922    9.5638753   -464.24097   -454.67709   -11175.915    12745.183    20252.002   -66524.929      15.2149      13.1765      28.7324    5760.2466 
   74000       73.988     227.3216    9.4909102   -464.15724   -454.66633   -8714.5567    17998.917    24008.248   -68150.835      15.2149      13.1765      28.7324    5760.2466 
   74500       74.488    209.41285    8.7432015   -463.39846   -454.65526   -9710.1876    15152.435    22221.508   -66504.506      15.2149      13.1765      28.7324    5760.2466 
   75000       74.988    220.75701    9.2168317   -463.86226   -454.64543   -10928.707    13551.941    20403.014   -66741.075      15.2149      13.1765      28.7324    5760.2466 
   75500       75.488    231.39673    9.6610512   -464.29575    -454.6347   -10561.789    16327.471    22029.184   -70042.021      15.2149      13.1765      28.7324    5760.2466 
   76000       75.988    225.13322    9.3995433   -464.02339   -454.62385   -9762.5423    13917.554    22148.385   -65353.566      15.2149      13.1765      28.7324    5760.2466 
   76500       76.488    218.25353    9.1123091   -463.72536   -454.61305    -11817.37    14514.585    18893.496    -68860.19      15.2149      13.1765      28.7324    5760.2466 
   77000       76.988    226.02428     9.436746   -464.03955    -454.6028   -11277.024    13385.103    20890.198   -68106.371      15.2149      13.1765      28.7324    5760.2466 
   77500       77.488    237.24934    9.9054038   -464.49718   -454.59178   -10282.996    13173.315    23240.197     -67262.5      15.2149      13.1765      28.7324    5760.2466 
   78000       77.988    237.73541    9.9256973   -464.50733   -454.58163   -9984.6951    12705.749    24328.893   -66988.727      15.2149      13.1765      28.7324    5760.2466 
   78500       78.488      225.592    9.4186977   -463.98861   -454.56991    -9750.458     15547.78    23376.166    -68175.32      15.2149      13.1765      28.7324    5760.2466 
   79000       78.988     214.2258    8.9441473   -463.50218   -454.55803   -9232.9016    12856.549     24612.55   -65167.804      15.2149      13.1765      28.7324    5760.2466 
   79500       79.488    223.80827    9.3442251   -463.89148   -454.54725   -10601.855    15003.288    21236.054   -68044.906      15.2149      13.1765      28.7324    5760.2466 
   80000       79.988    223.49068    9.3309653   -463.86737   -454.53641   -11008.173    13879.409    20872.795   -67776.723      15.2149      13.1765      28.7324    5760.2466 
   80500       80.488    223.46548    9.3299132   -463.85552   -454.52561    -10227.04    14209.679    23826.113   -68716.912      15.2149      13.1765      28.7324    5760.2466 
   81000       80.988    218.92011    9.1401395   -463.65448   -454.51434   -10627.151    12809.509     23214.56   -67905.522      15.2149      13.1765      28.7324    5760.2466 
   81500       81.488    230.93266    9.6416755   -464.14479   -454.50312   -9709.2619    14977.144    23285.227   -67390.157      15.2149      13.1765      28.7324    5760.2466 
   82000       81.988    224.77247    9.3844816   -463.87651   -454.49202   -10486.954     16252.21     21026.01   -68739.082      15.2149      13.1765      28.7324    5760.2466 
   82500       82.488    243.77916     10.17803   -464.65899   -454.48096   -10116.066    14498.401    22520.607   -67367.207      15.2149      13.1765      28.7324    5760.2466 
   83000       82.988     227.2849    9.4893778   -463.95857   -454.46919   -10627.655     15590.06     23107.49   -70580.513      15.2149      13.1765      28.7324    5760.2466 
   83500       83.488    228.19304    9.5272935    -463.9855   -454.45821   -10405.985    12791.593    25085.385   -69094.932      15.2149      13.1765      28.7324    5760.2466 
   84000       83.988    219.27675    9.1550294   -463.60136   -454.44633   -9534.5515    16419.009    23440.237     -68462.9      15.2149      13.1765      28.7324    5760.2466 
   84500       84.488    222.95926    9.3087779   -463.74376   -454.43498   -11884.074    12506.093    21428.331   -69586.645      15.2149      13.1765      28.7324    5760.2466 
   85000       84.988     231.2737    9.6559145    -464.0793   -454.42338    -10256.67    16076.616    23677.776   -70524.403      15.2149      13.1765      28.7324    5760.2466 
   85500       85.488    223.81561    9.3445315   -463.75589   -454.41136   -9721.9033    16052.153    23178.886   -68396.748      15.2149      13.1765      28.7324    5760.2466 
   86000       85.988    231.89401    9.6818132   -464.08207   -454.40026   -9772.8972     17371.25    21344.329   -68034.271      15.2149      13.1765      28.7324    5760.2466 
   86500       86.488    234.01865     9.770519   -464.15878   -454.38826   -10375.793    13361.102    22767.982   -67256.464      15.2149      13.1765      28.7324    5760.2466 
   87000       86.988    212.48584    8.8715021   -463.24777   -454.37627   -10524.522    14374.726    23467.256   -69415.547      15.2149      13.1765      28.7324    5760.2466 
   87500       87.488    232.02151    9.6871361   -464.05173   -454.36459   -11021.678    13111.693    20559.041   -66735.767      15.2149      13.1765      28.7324    5760.2466 
   88000       87.988    231.41363    9.6617565   -464.01476   -454.35301   -10306.424    13556.106    22913.827   -67389.204      15.2149      13.1765      28.7324    5760.2466 
   88500       88.488    227.79077    9.5104986   -463.85187   -454.34137   -10734.919    15250.582    20244.281    -67699.62      15.2149      13.1765      28.7324    5760.2466 
   89000       88.988    221.17552     9.234305   -463.56331   -454.32901   -11078.832    13748.931    21277.298   -68262.725      15.2149      13.1765      28.7324    5760.2466 
   89500       89.488    226.46054    9.4549603   -463.77172   -454.31675   -10584.625    15805.753    22236.243   -69795.872      15.2149      13.1765      28.7324    5760.2466 
   90000       89.988    221.89014     9.264141    -463.5685   -454.30436   -10106.777    15792.337    24929.399   -71042.066      15.2149      13.1765      28.7324    5760.2466 
   90500       90.488    208.70051    8.7134606   -463.00558   -454.29212   -9653.2289    15679.292    22930.853   -67569.831      15.2149      13.1765      28.7324    5760.2466 
   91000       90.988    216.10877     9.022763   -463.30288   -454.28012   -9521.4977    18731.353    20248.149   -67543.996      15.2149      13.1765      28.7324    5760.2466 
   91500       91.488    229.78101     9.593593   -463.86138   -454.26779   -10899.612    15483.682    19510.221    -67692.74      15.2149      13.1765      28.7324    5760.2466 
   92000       91.988    221.77837    9.2594747   -463.51474   -454.25527   -10844.484    14647.164    21937.492   -69118.107      15.2149      13.1765      28.7324    5760.2466 
   92500       92.488     231.0537     9.646729   -463.88975   -454.24302   -11344.168    13828.312    20184.732   -68045.548      15.2149      13.1765      28.7324    5760.2466 
   93000       92.988    221.35706    9.2418845   -463.47242   -454.23054   -9481.1179    15088.051    24783.158   -68314.562      15.2149      13.1765      28.7324    5760.2466 
   93500       93.488    224.67462     9.380396   -463.59793   -454.21753   -10286.072    12261.741    24773.953    -67893.91      15.2149      13.1765      28.7324    5760.2466 
   94000       93.988    236.56813    9.8769623   -464.08221   -454.20524   -9027.4309    14918.712    23818.527   -65819.532      15.2149      13.1765      28.7324    5760.2466 
   94500       94.488    221.12393     9.232151   -463.42468   -454.19253   -10684.883    15127.204    19816.212   -66998.065      15.2149      13.1765      28.7324    5760.2466 
   95000       94.988    230.39553      9.61925   -463.79978   -454.18053   -9725.8944    17018.649    23775.655   -69971.987      15.2149      13.1765      28.7324    5760.2466 
   95500       95.488     224.0599     9.354731   -463.52193   -454.16719   -10622.037    13734.429    22090.347   -67690.887      15.2149      13.1765      28.7324    5760.2466 
   96000       95.988     217.9963    9.1015693   -463.25563   -454.15406   -9539.6638    15106.192    22041.949   -65767.133      15.2149      13.1765      28.7324    5760.2466 
   96500       96.488    222.31624    9.2819313   -463.42332   -454.14139   -10325.647    13562.773    21094.967   -65634.681      15.2149      13.1765      28.7324    5760.2466 
   97000       96.988    224.93924    9.3914444   -463.51979   -454.12834   -9449.3018    13175.826    24191.242   -65714.973      15.2149      13.1765      28.7324    5760.2466 
   97500       97.488    225.93319    9.4329425   -463.54862   -454.11567   -9896.1152    16129.362    22186.042    -68003.75      15.2149      13.1765      28.7324    5760.2466 
   98000       97.988    232.62629    9.7123866   -463.81505   -454.10266   -10445.184    12449.538    23824.965   -67610.056      15.2149      13.1765      28.7324    5760.2466 
   98500       98.488    222.36504    9.2839687   -463.37335   -454.08938   -10274.961     14082.31    21479.198   -66386.392      15.2149      13.1765      28.7324    5760.2466 
   99000       98.988    226.05866    9.4381813   -463.51472   -454.07654   -9611.9074    15312.761    21714.631   -65863.114      15.2149      13.1765      28.7324    5760.2466 
   99500       99.488    230.00635    9.6030013   -463.66599   -454.06299   -10794.894    12294.094    22798.463   -67477.239      15.2149      13.1765      28.7324    5760.2466 
  100000       99.988    235.60869    9.8369047   -463.88675   -454.04984   -9789.7535    14444.634    23363.833   -67177.727      15.2149      13.1765      28.7324    5760.2466 
  100500      100.488    213.59682    8.9178865   -462.95335   -454.03546   -10295.649    12800.291    21454.483    -65141.72      15.2149      13.1765      28.7324    5760.2466 
  101000      100.988     237.4618     9.914274    -463.9373   -454.02303   -10221.752    16138.323    20659.667   -67463.247      15.2149      13.1765      28.7324    5760.2466 
  101500      101.488    234.14677    9.7758682   -463.78561   -454.00974    -9363.881    15874.292    23594.773   -67560.709      15.2149      13.1765      28.7324    5760.2466 
  102000      101.988      234.333    9.7836436   -463.77947   -453.99583    -9165.661    15675.568    24478.361   -67650.913      15.2149      13.1765      28.7324    5760.2466 
  102500      102.488    234.17575    9.7770781   -463.75923   -453.98215   -9648.8882    15089.905    24998.599   -69035.169      15.2149      13.1765      28.7324    5760.2466 
  103000      102.988    235.72763    9.8418706    -463.8107   -453.96883    -10646.68    14388.251    20326.825   -66655.118      15.2149      13.1765      28.7324    5760.2466 
  103500      103.488    226.03437     9.437167   -463.39172   -453.95455   -9603.6548     14157.54    24328.864   -67297.368      15.2149      13.1765      28.7324    5760.2466 
  104000      103.988    240.61604    10.045967   -463.98747    -453.9415   -10357.566    13539.783     19456.17   -64068.651      15.2149      13.1765      28.7324    5760.2466 
  104500      104.488    247.62042    10.338407   -464.26611   -453.92771   -10740.038    15280.227    23247.163   -70747.504      15.2149      13.1765      28.7324    5760.2466 
  105000      104.988    247.74443    10.343585   -464.25745   -453.91386   -9656.3172    16532.174    20553.154    -66054.28      15.2149      13.1765      28.7324    5760.2466 
  105500      105.488    246.55604    10.293968   -464.19367    -453.8997    -10343.23    14883.798    22350.124   -68263.612      15.2149      13.1765      28.7324    5760.2466 
  106000      105.988    227.90889      9.51543   -463.40128   -453.88585   -9883.2611        15965    20785.151   -66399.934      15.2149      13.1765      28.7324    5760.2466 
  106500      106.488    232.74666     9.717412   -463.58925   -453.87184   -10469.531    13853.384    20582.967   -65844.944      15.2149      13.1765      28.7324    5760.2466 
  107000      106.988    235.55139    9.8345123   -463.69236   -453.85785   -10118.844    16390.099    23236.892   -69983.525      15.2149      13.1765      28.7324    5760.2466 
  107500      107.488    224.72341    9.3824331   -463.22614   -453.84371   -9301.6708    14822.709    22540.755   -65268.477      15.2149      13.1765      28.7324    5760.2466 
  108000      107.988    236.55173    9.8762775   -463.70562   -453.82935   -9873.0463    16081.598    22165.311   -67866.048      15.2149      13.1765      28.7324    5760.2466 
  108500      108.488    245.46856    10.248565   -464.06428   -453.81571   -10946.064     15600.08    21292.426   -69730.696      15.2149      13.1765      28.7324    5760.2466 
  109000      108.988    237.63929    9.9216845   -463.72275   -453.80106   -10126.885    14361.478    20406.449   -65148.584      15.2149      13.1765      28.7324    5760.2466 
  109500      109.488    230.70584    9.6322056   -463.41883   -453.78662   -10172.092    16281.517    21709.049   -68506.842      15.2149      13.1765      28.7324    5760.2466 
  110000      109.988    225.24047    9.4040208   -463.17613   -453.77211   -9702.1824    14827.137    22233.739   -66167.423      15.2149      13.1765      28.7324    5760.2466 
  110500      110.488    234.63758    9.7963599   -463.55428   -453.75792   -10310.671    17110.187    20685.326   -68727.525      15.2149      13.1765      28.7324    5760.2466 
  111000      110.988    229.89735    9.5984505   -463.34294   -453.74449   -10231.072    14592.545    22235.139   -67520.901      15.2149      13.1765      28.7324    5760.2466 
  111500      111.488    251.98395    10.520589   -464.25024   -453.72965   -10586.265    15170.005    19713.737   -66642.537      15.2149      13.1765      28.7324    5760.2466 
  112000      111.988    250.03551    10.439239   -464.15438   -453.71514   -10411.645     17205.96    21479.814   -69920.708      15.2149      13.1765      28.7324    5760.2466 
  112500      112.488    241.66162    10.089621   -463.79007   -453.70045   -9740.1599    17864.475    21272.161   -68357.116      15.2149      13.1765      28.7324    5760.2466 
  113000      112.988    237.76999    9.9271412   -463.61254    -453.6854    -10465.31    15328.847    20488.721   -67213.499      15.2149      13.1765      28.7324    5760.2466 
  113500      113.488    230.00409    9.6029068   -463.27404   -453.67114   -10133.274    14076.694    21897.405   -66373.922      15.2149      13.1765      28.7324    5760.2466 
  114000      113.988    239.17491     9.985798   -463.64239   -453.65659   -10420.696    14460.687    19931.289   -65654.065      15.2149      13.1765      28.7324    5760.2466 
  114500      114.488    222.32021    9.2820969   -462.92376   -453.64167   -9427.6997    15685.746    22496.256   -66465.101      15.2149      13.1765      28.7324    5760.2466 
  115000      114.988     232.8501    9.7217309   -463.34889   -453.62716    -10148.34    14630.391    24483.456   -69558.866      15.2149      13.1765      28.7324    5760.2466 
  115500      115.488    237.65991    9.9225451   -463.53525   -453.61271   -9023.2252    17439.976    23975.378   -68485.029      15.2149      13.1765      28.7324    5760.2466 
  116000      115.988     234.0859    9.7733267   -463.37092   -453.59759   -9782.7308    14019.218    25244.977   -68612.388      15.2149      13.1765      28.7324    5760.2466 
  116500      116.488    244.31015    10.200199   -463.78381   -453.58361   -9219.6633    16386.122    22572.591   -66617.703      15.2149      13.1765      28.7324    5760.2466 
  117000      116.988    235.81645    9.8455788   -463.41331   -453.56773    -10264.94    13069.211    22379.871   -66243.902      15.2149      13.1765      28.7324    5760.2466 
  117500      117.488    240.41053    10.037386    -463.5907   -453.55332   -10211.944    14685.454    23524.048   -68845.334      15.2149      13.1765      28.7324    5760.2466 
  118000      117.988    245.55273    10.252079   -463.79031   -453.53824    -9116.252    17923.142    22533.939   -67805.837      15.2149      13.1765      28.7324    5760.2466 
  118500      118.488    244.05983    10.189749   -463.71364   -453.52389   -10161.231    16581.633    21854.103   -68919.428      15.2149      13.1765      28.7324    5760.2466 
  119000      118.988    231.75626    9.6760617   -463.18509   -453.50902   -10408.894     15650.24    21090.125   -67967.046      15.2149      13.1765      28.7324    5760.2466 
  119500      119.488    248.99766    10.395908   -463.89017   -453.49426   -10794.809    11665.718    22027.584   -66077.729      15.2149      13.1765      28.7324    5760.2466 
  120000      119.988    239.77928    10.011031    -463.4905   -453.47947   -9612.2689    15037.398    23030.484   -66904.689      15.2149      13.1765      28.7324    5760.2466 
  120500      120.488    247.81421    10.346498   -463.81049   -453.46399   -9989.1099    16356.195     23897.03   -70220.555      15.2149      13.1765      28.7324    5760.2466 
  121000      120.988    243.82637    10.180001   -463.62928   -453.44928   -9964.6435    13512.759    20424.027   -63830.716      15.2149      13.1765      28.7324    5760.2466 
  121500      121.488     244.2736    10.198674   -463.63245   -453.43377   -10146.321    15337.544    22926.077   -68702.585      15.2149      13.1765      28.7324    5760.2466 
  122000      121.988    244.83815    10.222244   -463.64175    -453.4195   -10161.224    15370.134    20529.286   -66383.091      15.2149      13.1765      28.7324    5760.2466 
  122500      122.488    244.40168    10.204021   -463.60791   -453.40388   -10326.567    14524.246    21739.615   -67243.563      15.2149      13.1765      28.7324    5760.2466 
  123000      122.988    246.24438    10.280956   -463.66922   -453.38826   -9521.2744    17133.378    21989.347   -67686.548      15.2149      13.1765      28.7324    5760.2466 
  123500      123.488    254.54477    10.627505   -464.00181    -453.3743   -10455.065     15507.32    23127.622   -70000.137      15.2149      13.1765      28.7324    5760.2466 
  124000      123.988    244.96797    10.227664   -463.58694   -453.35927   -9977.6932    16051.486    25433.009   -71417.575      15.2149      13.1765      28.7324    5760.2466 
  124500      124.488    237.94426     9.934417   -463.27751   -453.34309    -9363.491    17226.871    22924.528   -68241.872      15.2149      13.1765      28.7324    5760.2466 
  125000      124.988    246.59271    10.295499   -463.62427   -453.32878    -9457.789    18205.091    23302.979   -69881.437      15.2149      13.1765      28.7324    5760.2466 
  125500      125.488    238.32624    9.9503652   -463.26281   -453.31245   -10237.741    15973.284     24004.87   -70691.375      15.2149      13.1765      28.7324    5760.2466 
  126000      125.988    250.56431    10.461317    -463.7579   -453.29659   -10911.976    14263.166    24798.009   -71797.104      15.2149      13.1765      28.7324    5760.2466 
  126500      126.488    248.62867    10.380502   -463.66204   -453.28154   -9135.7247    17944.817    23450.233   -68802.225      15.2149      13.1765      28.7324    5760.2466 
  127000      126.988    244.72404     10.21748   -463.48406   -453.26658   -9301.1472    15235.216    23782.638   -66921.296      15.2149      13.1765      28.7324    5760.2466 
  127500      127.488    243.61765    10.171287     -463.422   -453.25071   -9928.6509    13939.846    27128.268   -70854.068      15.2149      13.1765      28.7324    5760.2466 
  128000      127.988    237.06832    9.8978459   -463.13291   -453.23506   -9702.8855    12126.204    21784.689    -63019.55      15.2149      13.1765      28.7324    5760.2466 
  128500      128.488    240.88077    10.057019   -463.27686   -453.21984    -9867.029    14305.868    24853.473   -68760.428      15.2149      13.1765      28.7324    5760.2466 
  129000      128.988    251.43524    10.497679   -463.70266   -453.20498   -9839.6428    16322.903    24233.102   -70074.933      15.2149      13.1765      28.7324    5760.2466 
  129500      129.488    241.30071    10.074553   -463.26435    -453.1898    -10263.81    19150.229    22785.017   -72726.676      15.2149      13.1765      28.7324    5760.2466 
  130000      129.988    246.26155    10.281672   -463.45519   -453.17352   -9751.8028    16945.022    24194.703   -70395.134      15.2149      13.1765      28.7324    5760.2466 
  130500      130.488    241.14957    10.068242   -463.22662   -453.15838   -9960.3781    17645.878    22258.087   -69785.099      15.2149      13.1765      28.7324    5760.2466 
  131000      130.988     240.1989    10.028551   -463.17161   -453.14306   -9803.8076    14680.563    22110.305   -66202.291      15.2149      13.1765      28.7324    5760.2466 
  131500      131.488    249.26917    10.407244    -463.5345   -453.12726   -9667.1184     16212.53    21786.389   -67000.274      15.2149      13.1765      28.7324    5760.2466 
  132000      131.988    237.19957    9.9033255    -463.0151   -453.11177   -10602.869    14735.645    24099.924   -70644.175      15.2149      13.1765      28.7324    5760.2466 
  132500      132.488    237.48644    9.9153027   -463.01144   -453.09614   -9647.3424    16481.104    23917.408   -69340.539      15.2149      13.1765      28.7324    5760.2466 
  133000      132.988    240.07532    10.023391   -463.10406   -453.08067    -10362.89    14826.561    22551.664   -68466.894      15.2149      13.1765      28.7324    5760.2466 
  133500      133.488    246.35754     10.28568   -463.35103   -453.06535   -9826.5804     15312.74    23702.607   -68495.088      15.2149      13.1765      28.7324    5760.2466 
  134000      133.988    253.84323    10.598215   -463.64802   -453.04981   -9687.9872     14894.45    22407.768    -66366.18      15.2149      13.1765      28.7324    5760.2466 
  134500      134.488    243.74148    10.176457      -463.21   -453.03354   -10072.472    16164.457    24364.034   -70745.905      15.2149      13.1765      28.7324    5760.2466 
  135000      134.988    234.33951    9.7839151   -462.80225   -453.01833   -9149.1358    17184.351    22814.404   -67446.163      15.2149      13.1765      28.7324    5760.2466 
  135500      135.488    241.82297    10.096357   -463.09884   -453.00248   -9746.9616    14977.307    24723.396   -68941.588      15.2149      13.1765      28.7324    5760.2466 
  136000      135.988    241.45046    10.080805   -463.06772   -452.98691   -9445.1273    14529.567    24862.227   -67727.176      15.2149      13.1765      28.7324    5760.2466 
  136500      136.488    237.57378    9.9189492   -462.88976   -452.97081     -9455.89    14730.031    25089.681   -68187.382      15.2149      13.1765      28.7324    5760.2466 
  137000      136.988    234.99823    9.8114174   -462.76636   -452.95494   -9802.0187    17076.948    23549.765    -70032.77      15.2149      13.1765      28.7324    5760.2466 
  137500      137.488    249.29686      10.4084   -463.34813   -452.93973   -10248.992    15211.108    22834.009   -68792.092      15.2149      13.1765      28.7324    5760.2466 
  138000      137.988    242.75661    10.135338   -463.05854    -452.9232   -9981.3344    12149.345    23051.561   -65144.909      15.2149      13.1765      28.7324    5760.2466 
  138500      138.488     254.1107    10.609383   -463.51794   -452.90856   -10348.078    13834.223    22127.026   -67005.483      15.2149      13.1765      28.7324    5760.2466 
  139000      138.988    248.82279    10.388607   -463.28031    -452.8917   -9885.5531    15648.248    21798.553    -67103.46      15.2149      13.1765      28.7324    5760.2466 
  139500      139.488    235.94228    9.8508326    -462.7263   -452.87547    -9067.904    17611.151    22390.433   -67205.295      15.2149      13.1765      28.7324    5760.2466 
  140000      139.988    250.47595    10.457628   -463.31874   -452.86111    -10058.52    13620.237    23618.035   -67413.832      15.2149      13.1765      28.7324    5760.2466 
  140500      140.488    237.87985    9.9317278   -462.77656   -452.84483   -8821.5384    20020.516    23754.138   -70239.269      15.2149      13.1765      28.7324    5760.2466 
  141000      140.988    255.19826     10.65479   -463.48416   -452.82937   -10529.927    14576.632    21416.522   -67582.935      15.2149      13.1765      28.7324    5760.2466 
  141500      141.488    243.05131    10.147642   -462.96051   -452.81286   -9952.2783    15830.234    24161.006   -69848.075      15.2149      13.1765      28.7324    5760.2466 
  142000      141.988     244.9538    10.227072   -463.02367    -452.7966   -10250.948    17407.385    23032.549   -71192.778      15.2149      13.1765      28.7324    5760.2466 
  142500      142.488    248.61292    10.379845   -463.16096   -452.78111   -9061.4587    15621.095    27203.199   -70008.671      15.2149      13.1765      28.7324    5760.2466 
  143000      142.988    258.16849      10.7788   -463.54389   -452.76509   -8650.4973    17618.214    25337.135   -68906.841      15.2149      13.1765      28.7324    5760.2466 
  143500      143.488    245.87865    10.265686   -463.01479    -452.7491   -8464.1539    17777.708    26342.474   -69512.644      15.2149      13.1765      28.7324    5760.2466 
  144000      143.988     254.8537    10.640404    -463.3734     -452.733   -9693.7359    15222.023    22036.813   -66340.044      15.2149      13.1765      28.7324    5760.2466 
  144500      144.488    255.32036    10.659887   -463.37666   -452.71677    -9811.971    16338.179    21066.042   -66840.134      15.2149      13.1765      28.7324    5760.2466 
  145000      144.988     245.6754      10.2572   -462.95772   -452.70052   -10172.715    14030.084    21797.037   -66345.266      15.2149      13.1765      28.7324    5760.2466 
  145500      145.488    252.64873    10.548344   -463.23303   -452.68469    -9924.331    18282.851    22768.352   -70824.196      15.2149      13.1765      28.7324    5760.2466 
  146000      145.988    244.40508    10.204163   -462.87292   -452.66876    -8756.079    16854.982    24752.567   -67875.786      15.2149      13.1765      28.7324    5760.2466 
  146500      146.488    251.47712    10.499428   -463.15211   -452.65268   -9631.5472    14783.688    21908.293   -65586.623      15.2149      13.1765      28.7324    5760.2466 
  147000      146.988    248.62475    10.380338   -463.01676   -452.63642       -10167    14650.044     23187.94   -68338.983      15.2149      13.1765      28.7324    5760.2466 
  147500      147.488    255.84736     10.68189   -463.30264   -452.62075   -9034.7234    15742.862    24515.286   -67362.318      15.2149      13.1765      28.7324    5760.2466 
  148000      147.988    240.40107    10.036992   -462.64152   -452.60453   -8250.2395    16324.571     25720.34   -66795.629      15.2149      13.1765      28.7324    5760.2466 
  148500      148.488    249.65859    10.423502   -463.01212   -452.58862   -8381.5394    16958.994     25670.89   -67774.503      15.2149      13.1765      28.7324    5760.2466 
  149000      148.988    251.42815    10.497384   -463.06953   -452.57214   -9501.1899    15928.324    20635.322   -65067.216      15.2149      13.1765      28.7324    5760.2466 
  149500      149.488    246.04548    10.272651   -462.82892   -452.55627   -8420.6087    16267.995    20820.816   -62350.637      15.2149      13.1765      28.7324    5760.2466 
  150000      149.988     254.5495    10.627703    -463.1677   -452.53999   -9476.3013    15506.989    20548.651   -64484.543      15.2149      13.1765      28.7324    5760.2466 
  150500      150.488    257.15852    10.736632   -463.26037   -452.52373   -10440.723    16794.439    22181.248   -70297.855      15.2149      13.1765      28.7324    5760.2466 
  151000      150.988    250.06243    10.440363   -462.94715   -452.50679   -9138.4057    18067.921    21836.498   -67319.636      15.2149      13.1765      28.7324    5760.2466 
  151500      151.488    246.52969    10.292868   -462.78381   -452.49094   -9347.7763    17386.324    23067.461   -68497.114      15.2149      13.1765      28.7324    5760.2466 
  152000      151.988    263.06956    10.983424   -463.45802   -452.47459   -9780.4501    16031.999    20591.715   -65965.064      15.2149      13.1765      28.7324    5760.2466 
  152500      152.488    239.50884    9.9997399   -462.45781   -452.45807    -9756.934    15561.637     22124.79   -66957.229      15.2149      13.1765      28.7324    5760.2466 
  153000      152.988    246.11169    10.275416   -462.71746   -452.44205   -9137.7782    17438.263    24456.525   -69308.123      15.2149      13.1765      28.7324    5760.2466 
  153500      153.488    243.77234    10.177745   -462.60338   -452.42564   -8608.1291    16115.204     21204.07    -63143.66      15.2149      13.1765      28.7324    5760.2466 
  154000      153.988     262.1211    10.943825   -463.35412    -452.4103   -10218.159    14152.097    23712.039   -68518.613      15.2149      13.1765      28.7324    5760.2466 
  154500      154.488    249.44739    10.414685     -462.808   -452.39332   -9202.6127    17479.214    24061.072   -69148.124      15.2149      13.1765      28.7324    5760.2466 
  155000      154.988    256.15419    10.694701   -463.07238   -452.37768   -8857.4577    16587.091    23319.934   -66479.398      15.2149      13.1765      28.7324    5760.2466 
  155500      155.488    256.38541    10.704354   -463.06485    -452.3605   -9484.7642     12868.83     21736.57   -63059.693      15.2149      13.1765      28.7324    5760.2466 
  156000      155.988    260.03641    10.856787   -463.20108   -452.34429   -9605.9552    12656.872    22568.953    -64043.69      15.2149      13.1765      28.7324    5760.2466 
  156500      156.488    257.19907    10.738325   -463.06577   -452.32745   -10126.432    15764.246    20062.492   -66206.033      15.2149      13.1765      28.7324    5760.2466 
  157000      156.988    245.20146    10.237413   -462.54866   -452.31125   -9171.0261    15555.941    23306.915   -66375.935      15.2149      13.1765      28.7324    5760.2466 
  157500      157.488    259.58339    10.837873   -463.13259   -452.29472   -9436.2253    16695.686    20511.291   -65515.652      15.2149      13.1765      28.7324    5760.2466 
  158000      157.988    266.13607    11.111454   -463.38991   -452.27846   -10070.831    15739.935    21837.398   -67789.828      15.2149      13.1765      28.7324    5760.2466 
  158500      158.488    258.97561    10.812498   -463.07465   -452.26215   -10349.217    15259.044     21381.55   -67688.245      15.2149      13.1765      28.7324    5760.2466 
  159000      158.988    258.87929    10.808476   -463.05427    -452.2458   -8282.2367    16166.896    25097.338   -66110.944      15.2149      13.1765      28.7324    5760.2466 
  159500      159.488    265.41116    11.081189   -463.31015   -452.22896   -8976.7041    17120.031    20745.655   -64795.799      15.2149      13.1765      28.7324    5760.2466 
  160000      159.988    255.32005    10.659874   -462.87208   -452.21221    -9133.143    17713.457    22073.497   -67186.383      15.2149      13.1765      28.7324    5760.2466 
  160500      160.488    255.78555    10.679309   -462.87507   -452.19576   -9135.0369    15463.327    22675.654   -65544.091      15.2149      13.1765      28.7324    5760.2466 
  161000      160.988    242.79623    10.136992   -462.31643   -452.17944   -9310.3939    16056.203    23180.888   -67168.273      15.2149      13.1765      28.7324    5760.2466 
  161500      161.488    261.55692     10.92027    -463.0838   -452.16353   -10404.656    13902.291    22897.836   -68014.095      15.2149      13.1765      28.7324    5760.2466 
  162000      161.988    252.09817    10.525357   -462.67129   -452.14593   -9515.0646    15384.543    24675.263       -68605      15.2149      13.1765      28.7324    5760.2466 
  162500      162.488    261.93522    10.936064   -463.06554   -452.12948   -10481.136    14835.586    22963.158   -69242.152      15.2149      13.1765      28.7324    5760.2466 
  163000      162.988     266.9375    11.144915   -463.25784   -452.11293   -10888.339    13829.173    20594.599   -67088.788      15.2149      13.1765      28.7324    5760.2466 
  163500      163.488    260.86003    10.891174   -462.98734   -452.09617    -9809.441    14561.603     24449.33   -68439.255      15.2149      13.1765      28.7324    5760.2466 
  164000      163.988     256.6761    10.716491   -462.79678   -452.08029   -9001.2726    14727.394    26195.264   -67926.476      15.2149      13.1765      28.7324    5760.2466 
  164500      164.488    262.28362    10.950611   -463.01375   -452.06314   -8957.3043    15448.879    24172.268    -66493.06      15.2149      13.1765      28.7324    5760.2466 
  165000      164.988     265.3286    11.077741   -463.12414    -452.0464   -9473.3077     15276.81    22883.561   -66580.294      15.2149      13.1765      28.7324    5760.2466 
  165500      165.488    260.85672    10.891036    -462.9204   -452.02936   -9610.7645    15668.792    22468.985    -66970.07      15.2149      13.1765      28.7324    5760.2466 
  166000      165.988    265.63965    11.090728   -463.10407   -452.01334   -9892.2421    14873.228    21163.693   -65713.648      15.2149      13.1765      28.7324    5760.2466 
  166500      166.488    254.65981    10.632308   -462.62873   -451.99642   -8799.4358     15174.84    26158.307   -67731.455      15.2149      13.1765      28.7324    5760.2466 
  167000      166.988    263.99381    11.022013   -463.00163   -451.97962   -9076.3339    15536.074    27215.088   -69980.164      15.2149      13.1765      28.7324    5760.2466 
  167500      167.488    257.56875     10.75376   -462.71627   -451.96251   -8789.8327    16905.062    23759.637   -67034.197      15.2149      13.1765      28.7324    5760.2466 
  168000      167.988    246.03305    10.272132   -462.21791   -451.94578   -9039.1087     15067.83    23182.356   -65367.512      15.2149      13.1765      28.7324    5760.2466 
  168500      168.488    250.71571    10.467638    -462.3965   -451.92886   -8121.4785    18396.155    23286.636   -66047.227      15.2149      13.1765      28.7324    5760.2466 
  169000      168.988    244.47482    10.207075   -462.11924   -451.91216   -9366.7126    17407.623    25725.058   -71232.819      15.2149      13.1765      28.7324    5760.2466 
  169500      169.488    263.18126    10.988088    -462.8837   -451.89561   -9350.9156    16091.696    21865.903   -66010.346      15.2149      13.1765      28.7324    5760.2466 
  170000      169.988    257.88307    10.766883   -462.64522   -451.87833   -8353.4175    17404.365    21247.679   -63712.297      15.2149      13.1765      28.7324    5760.2466 
  170500      170.488    250.51974    10.459457   -462.32105   -451.86159   -9657.5885    15490.457    23582.336   -68045.559      15.2149      13.1765      28.7324    5760.2466 
  171000      170.988    262.87664     10.97537   -462.82008   -451.84471   -9051.5678    16788.615    25553.101   -69496.419      15.2149      13.1765      28.7324    5760.2466 
  171500      171.488     258.3211    10.785171   -462.61335   -451.82818   -9621.8988    16900.349    22801.508   -68567.554      15.2149      13.1765      28.7324    5760.2466 
  172000      171.988     265.5816    11.088305    -462.8999   -451.81159   -10246.246    14788.963    24444.297       -69972      15.2149      13.1765      28.7324    5760.2466 
  172500      172.488    259.56248       10.837   -462.63095   -451.79395   -9418.8387    16709.127    24405.321   -69370.965      15.2149      13.1765      28.7324    5760.2466 
  173000      172.988    264.95565     11.06217    -462.8392   -451.77703   -9914.9866    15112.682    22012.746   -66870.388      15.2149      13.1765      28.7324    5760.2466 
  173500      173.488    268.59006    11.213911   -462.97377   -451.75985   -9351.4246    14810.188    24003.887   -66868.349      15.2149      13.1765      28.7324    5760.2466 
  174000      173.988    273.47906    11.418032   -463.16138   -451.74335   -9567.0028    15607.337     23056.98   -67365.325      15.2149      13.1765      28.7324    5760.2466 
  174500      174.488     275.1087    11.486071   -463.21212   -451.72605   -9647.5163    16079.769    22197.216   -67219.535      15.2149      13.1765      28.7324    5760.2466 
  175000      174.988    266.27842    11.117397   -462.82602   -451.70862   -8967.4674    17861.115    20065.581   -64829.097      15.2149      13.1765      28.7324    5760.2466 
  175500      175.488    260.94096    10.894553   -462.58633   -451.69177   -9477.4253    13878.577    24837.412   -67148.266      15.2149      13.1765      28.7324    5760.2466 
  176000      175.988    277.69231    11.593939   -463.26932   -451.67539   -9775.3496    15424.175    23753.948   -68504.172      15.2149      13.1765      28.7324    5760.2466 
  176500      176.488    257.87223     10.76643   -462.42384   -451.65741   -8930.9732    14690.894    26097.781   -67581.594      15.2149      13.1765      28.7324    5760.2466 
  177000      176.988    264.43832    11.040571   -462.68142   -451.64084   -8803.2049    16314.926    23319.939   -66044.479      15.2149      13.1765      28.7324    5760.2466 
  177500      177.488    261.51988    10.918724   -462.54231   -451.62359   -8619.5308    15869.975      22820.8   -64549.367      15.2149      13.1765      28.7324    5760.2466 
  178000      177.988    274.18462     11.44749   -463.05404   -451.60655   -8657.4012    13028.612    22555.655    -61556.47      15.2149      13.1765      28.7324    5760.2466 
  178500      178.488    261.35052    10.911653   -462.50044   -451.58879   -9001.6108    13318.659    24606.744   -64930.236      15.2149      13.1765      28.7324    5760.2466 
  179000      178.988    261.99255    10.938458   -462.51027   -451.57181   -8814.2487    18019.664    25405.569   -69867.979      15.2149      13.1765      28.7324    5760.2466 
  179500      179.488    257.34683    10.744494   -462.29995   -451.55545   -9118.0036    15519.646    24319.264   -67192.921      15.2149      13.1765      28.7324    5760.2466 
  180000      179.988    262.03017    10.940029   -462.47804   -451.53801   -8745.8215    17368.277    22223.428   -65829.169      15.2149      13.1765      28.7324    5760.2466 
  180500      180.488    266.53562    11.128136   -462.64942   -451.52129   -9494.0497    15264.637    23835.707   -67582.493      15.2149      13.1765      28.7324    5760.2466 
  181000      180.988     262.2825    10.950564   -462.45482   -451.50426   -8569.4193     16939.63     25598.36   -68246.248      15.2149      13.1765      28.7324    5760.2466 
  181500      181.488    258.35878    10.786744    -462.2736   -451.48685   -9189.2065    17228.218    23505.706   -68301.543      15.2149      13.1765      28.7324    5760.2466 
  182000      181.988    261.66781      10.9249   -462.39501   -451.47011   -9279.6632    13937.857    27233.944   -69010.791      15.2149      13.1765      28.7324    5760.2466 
  182500      182.488    261.99037    10.938367   -462.39163   -451.45326   -8627.0384    18541.873    24643.817   -69066.805      15.2149      13.1765      28.7324    5760.2466 
  183000      182.988    273.15278    11.404409   -462.83966   -451.43525   -9947.3196    15697.672    22179.039   -67718.669      15.2149      13.1765      28.7324    5760.2466 
  183500      183.488    258.67308    10.799867   -462.21821   -451.41834   -9097.1565    14753.168    25066.516   -67111.153      15.2149      13.1765      28.7324    5760.2466 
  184000      183.988     272.4384    11.374583   -462.77547   -451.40089   -10216.374     16272.58    22756.871   -69678.573      15.2149      13.1765      28.7324    5760.2466 
  184500      184.488    267.03979    11.149185   -462.53316   -451.38397   -9160.2611    18229.774    20993.212   -66703.769      15.2149      13.1765      28.7324    5760.2466 
  185000      184.988    279.64508    11.675469   -463.04257    -451.3671   -8514.6018    19073.593    24471.247   -69088.646      15.2149      13.1765      28.7324    5760.2466 
  185500      185.488    271.08255    11.317975    -462.6671   -451.34912   -7983.0763    18364.814    23838.219   -66152.261      15.2149      13.1765      28.7324    5760.2466 
  186000      185.988    273.54507    11.420788   -462.75259   -451.33181   -9383.0323     16769.38      25099.3   -70017.778      15.2149      13.1765      28.7324    5760.2466 
  186500      186.488    260.87928    10.891978   -462.20673   -451.31475    -8126.234    19441.278    23763.192   -67583.172      15.2149      13.1765      28.7324    5760.2466 
  187000      186.988    268.85041    11.224781   -462.52155   -451.29677   -8811.9784    17598.968    23844.845   -67879.748      15.2149      13.1765      28.7324    5760.2466 
  187500      187.488    260.69751    10.884389   -462.16393   -451.27954   -9837.5138     14415.52    22379.428    -66307.49      15.2149      13.1765      28.7324    5760.2466 
  188000      187.988    273.81175    11.431922   -462.69461   -451.26268   -9336.7905    14419.861    21710.508   -64140.741      15.2149      13.1765      28.7324    5760.2466 
  188500      188.488    267.98227    11.188535   -462.43402   -451.24548   -9558.2108    14886.561    24244.047   -67805.241      15.2149      13.1765      28.7324    5760.2466 
  189000      188.988    260.07589    10.858435   -462.08614   -451.22771   -8900.7182    17976.454      23469.5   -68148.109      15.2149      13.1765      28.7324    5760.2466 
  189500      189.488    268.55208    11.212325   -462.42307   -451.21075   -8814.0581    15550.423    21891.703     -63884.3      15.2149      13.1765      28.7324    5760.2466 
  190000      189.988    267.38271    11.163503   -462.35596   -451.19245   -8860.8741    15564.071    21882.153   -64028.846      15.2149      13.1765      28.7324    5760.2466 
  190500      190.488    271.40961     11.33163   -462.50717   -451.17554   -9019.3437     16190.28     22165.38   -65413.691      15.2149      13.1765      28.7324    5760.2466 
  191000      190.988    266.68524    11.134383   -462.29241   -451.15802   -8504.7187    16531.989    25258.538   -67304.683      15.2149      13.1765      28.7324    5760.2466 
  191500      191.488    267.31801    11.160801   -462.30173   -451.14093   -8931.7122    15841.988    24745.989   -67383.113      15.2149      13.1765      28.7324    5760.2466 
  192000      191.988    264.20524     11.03084   -462.15383   -451.12299   -8411.7185    15923.021    24399.148   -65557.324      15.2149      13.1765      28.7324    5760.2466 
  192500      192.488     264.9642    11.062528    -462.1687   -451.10617   -9834.8699    15724.971    25481.581   -70711.161      15.2149      13.1765      28.7324    5760.2466 
  193000      192.988     268.2939    11.201546   -462.28966   -451.08811   -10230.012    13880.113    20899.864   -65470.011      15.2149      13.1765      28.7324    5760.2466 
  193500      193.488    278.21904    11.615931   -462.68727   -451.07134   -8281.3612    16322.686    26510.316   -67677.085      15.2149      13.1765      28.7324    5760.2466 
  194000      193.988    273.19633    11.406227   -462.45887   -451.05264   -8738.0352    16839.252    21939.611   -64992.969      15.2149      13.1765      28.7324    5760.2466 
  194500      194.488    269.16956    11.238105   -462.27338   -451.03528    -8471.074    17859.756    24476.928   -67749.906      15.2149      13.1765      28.7324    5760.2466 
  195000      194.988    278.37542     11.62246   -462.64115    -451.0187   -9759.0695    11697.958    24009.959   -64985.125      15.2149      13.1765      28.7324    5760.2466 
  195500      195.488    275.22708    11.491013   -462.49171    -451.0007   -8939.9116      14589.8     22850.99   -64260.526      15.2149      13.1765      28.7324    5760.2466 
  196000      195.988    277.09961    11.569193    -462.5526   -450.98341   -9000.3955     15148.78     23904.31   -66054.277      15.2149      13.1765      28.7324    5760.2466 
  196500      196.488    278.24244    11.616907    -462.5828   -450.96589    -9048.366    15327.775    23256.189   -65729.062      15.2149      13.1765      28.7324    5760.2466 
  197000      196.988    263.46009    10.999729   -461.94766   -450.94793   -10103.252    14526.285    21948.645   -66784.684      15.2149      13.1765      28.7324    5760.2466 
  197500      197.488    256.95532    10.728149   -461.65771   -450.92956   -10204.238    15278.241    23238.315   -69129.271      15.2149      13.1765      28.7324    5760.2466 
  198000      197.988    258.03775    10.773341   -461.68615    -450.9128   -7727.0721    14715.393    25761.803   -63658.412      15.2149      13.1765      28.7324    5760.2466 
  198500      198.488    274.92997    11.478608   -462.37387   -450.89526   -9209.5723    17753.643    21994.531   -67376.891      15.2149      13.1765      28.7324    5760.2466 
  199000      198.988    259.12567    10.818763   -461.69676     -450.878   -8779.8303    18537.024    22489.183   -67365.698      15.2149      13.1765      28.7324    5760.2466 
  199500      199.488    271.84068    11.349627   -462.21045   -450.86083    -9036.519    17819.293    22293.564   -67222.415      15.2149      13.1765      28.7324    5760.2466 
  200000      199.988    274.93821    11.478953   -462.32171   -450.84276   -9407.9349    16534.322    21584.625   -66342.752      15.2149      13.1765      28.7324    5760.2466 
  200500      200.488    260.56646    10.878917   -461.70402   -450.82511   -8517.9593    19374.226    25720.754   -70648.858      15.2149      13.1765      28.7324    5760.2466 
  201000      200.988    272.72699    11.386632   -462.19458   -450.80795   -8660.0176    18331.733    22205.487   -66517.272      15.2149      13.1765      28.7324    5760.2466 
  201500      201.488    284.87985    11.894026   -462.68384   -450.78981   -9708.3325    15333.119    23910.498   -68368.615      15.2149      13.1765      28.7324    5760.2466 
  202000      201.988    276.50768     11.54448   -462.31624   -450.77176   -9636.7557    15948.754    25484.414   -70343.435      15.2149      13.1765      28.7324    5760.2466 
  202500      202.488    289.90287    12.103743   -462.85837   -450.75462   -8827.9419    15386.961    21999.802   -63870.588      15.2149      13.1765      28.7324    5760.2466 
  203000      202.988    278.89432    11.644124   -462.38077   -450.73665   -8974.7482    14673.208    24508.413   -66105.866      15.2149      13.1765      28.7324    5760.2466 
  203500      203.488    270.85713    11.308563   -462.02747   -450.71891   -9061.9374    15790.214    27773.506   -70749.532      15.2149      13.1765      28.7324    5760.2466 
  204000      203.988    262.58864    10.963345   -461.66443   -450.70109   -8740.7137    15785.906    25509.085   -67517.133      15.2149      13.1765      28.7324    5760.2466 
  204500      204.488     283.0365    11.817065   -462.50007     -450.683   -8910.8799    19680.547    21295.916   -67709.102      15.2149      13.1765      28.7324    5760.2466 
  205000      204.988    279.73593    11.679262   -462.34392   -450.66465   -8732.7443    18197.189    23300.561   -67695.983      15.2149      13.1765      28.7324    5760.2466 
  205500      205.488    279.00701    11.648829   -462.29579   -450.64696   -9309.2033    14936.624    21658.849   -64523.083      15.2149      13.1765      28.7324    5760.2466 
  206000      205.988    283.30567    11.828303   -462.45747   -450.62916   -8627.3696    19032.785    20987.924   -65902.818      15.2149      13.1765      28.7324    5760.2466 
  206500      206.488    277.15355    11.571445   -462.18246   -450.61101   -8403.6722    15517.336    23536.577   -64264.929      15.2149      13.1765      28.7324    5760.2466 
  207000      206.988    278.89746    11.644255   -462.23783   -450.59357   -8472.9068    18162.441    22482.676   -66063.837      15.2149      13.1765      28.7324    5760.2466 
  207500      207.488    273.44673    11.416682   -461.99275   -450.57607   -8857.0696    17811.647    22049.226   -66432.082      15.2149      13.1765      28.7324    5760.2466 
  208000      207.988    278.66562    11.634576   -462.19284   -450.55827   -8146.7274    16512.438    24642.867   -65595.487      15.2149      13.1765      28.7324    5760.2466 
  208500      208.488    285.47573    11.918905   -462.45867   -450.53977   -7665.2805    17038.763    27068.345   -67102.949      15.2149      13.1765      28.7324    5760.2466 
  209000      208.988    270.46702    11.292276   -461.81416   -450.52189   -9002.7737     14644.65    27090.136   -68743.106      15.2149      13.1765      28.7324    5760.2466 
  209500      209.488    277.17355     11.57228   -462.07708    -450.5048   -8567.1532     16049.03     26166.47    -67916.96      15.2149      13.1765      28.7324    5760.2466 
  210000      209.988    274.46121    11.459037   -461.94455   -450.48551   -8786.8178    18763.267     24815.82   -69939.541      15.2149      13.1765      28.7324    5760.2466 
  210500      210.488    282.93059    11.812642   -462.28047   -450.46783   -10236.105    19547.985     22383.76   -72640.061      15.2149      13.1765      28.7324    5760.2466 
  211000      210.988    282.88485    11.810733   -462.26083    -450.4501   -8793.9192    15358.375    25860.564   -67600.697      15.2149      13.1765      28.7324    5760.2466 
  211500      211.488    272.15165    11.362611    -461.7947   -450.43209   -8294.9154    14592.355    24560.062   -64037.163      15.2149      13.1765      28.7324    5760.2466 
  212000      211.988    279.34137    11.662789   -462.07646   -450.41367   -8844.3846    17554.043    23583.059   -67670.256      15.2149      13.1765      28.7324    5760.2466 
[...]
  948500      948.488    385.98917    16.115444   -458.74265    -442.6272   -7347.8094    17459.881    30079.613   -69582.923      15.2149      13.1765      28.7324    5760.2466 
  949000      948.988    360.77264    15.062628   -457.68728   -442.62465   -4066.4418    22427.122    27564.466   -62190.912      15.2149      13.1765      28.7324    5760.2466 
  949500      949.488    379.49884    15.844466   -458.46818   -442.62371   -5591.5847    19943.509     29521.34   -66239.603      15.2149      13.1765      28.7324    5760.2466 
  950000      949.988    375.68559    15.685259   -458.30675   -442.62149   -5524.2837    19499.447    26945.357   -63017.655      15.2149      13.1765      28.7324    5760.2466 
  950500      950.488    396.53034    16.555549   -459.17599   -442.62044   -6553.8869     20909.22    24589.002   -65159.883      15.2149      13.1765      28.7324    5760.2466 
  951000      950.988    375.64824      15.6837   -458.30159   -442.61789   -6382.6311    18668.523    28119.063   -65935.479      15.2149      13.1765      28.7324    5760.2466 
  951500      951.488    382.02146    15.949788    -458.5661   -442.61631    -6873.317    21341.602    26825.136   -68786.689      15.2149      13.1765      28.7324    5760.2466 
  952000      951.988     380.6347     15.89189   -458.50596   -442.61407   -6869.6257    18571.721    28592.772    -67773.37      15.2149      13.1765      28.7324    5760.2466 
  952500      952.488    365.64864    15.266206   -457.87894   -442.61273   -5166.9041    19949.788    27979.307   -63429.808      15.2149      13.1765      28.7324    5760.2466 
  953000      952.988    382.89277    15.986166   -458.59562   -442.60945   -5692.2785     16693.02    28835.558   -62605.414      15.2149      13.1765      28.7324    5760.2466 
  953500      953.488    375.63393    15.683102   -458.29106   -442.60795   -5812.9703      18141.4    27171.418   -62751.729      15.2149      13.1765      28.7324    5760.2466 
  954000      953.988    396.52344    16.555261   -459.16167   -442.60641   -6611.5899    18248.666    28186.774    -66270.21      15.2149      13.1765      28.7324    5760.2466 
  954500      954.488    368.74069    15.395302   -457.99827   -442.60297   -5367.9123    20458.844    27617.635   -64180.216      15.2149      13.1765      28.7324    5760.2466 
  955000      954.988    370.02081    15.448749   -458.04821   -442.59946   -5301.2743    21354.367    28467.854   -65726.043      15.2149      13.1765      28.7324    5760.2466 
  955500      955.488    352.16911    14.703422   -457.30108   -442.59765   -6135.4148    18188.337    27861.403   -64455.985      15.2149      13.1765      28.7324    5760.2466 
  956000      955.988    373.02554    15.574199    -458.1703    -442.5961   -5369.6371    20288.454    26032.633   -62429.998      15.2149      13.1765      28.7324    5760.2466 
  956500      956.488    374.78439    15.647633   -458.24162   -442.59399   -6131.6109    19226.152    28221.367   -65842.352      15.2149      13.1765      28.7324    5760.2466 
  957000      956.988    377.96078    15.780251   -458.37057   -442.59032   -5528.7077    22149.913     27896.67   -66632.706      15.2149      13.1765      28.7324    5760.2466 
  957500      957.488    369.03128    15.407435   -457.99557   -442.58814   -7149.4286    19173.498     27462.66   -68084.444      15.2149      13.1765      28.7324    5760.2466 
  958000      957.988    349.36573    14.586378   -457.17062   -442.58424   -6266.6985    17545.847     25161.43   -61507.372      15.2149      13.1765      28.7324    5760.2466 
  958500      958.488    375.86143    15.692601   -458.27531   -442.58271   -5347.7734    17169.534    26832.849   -60045.703      15.2149      13.1765      28.7324    5760.2466 
  959000      958.988    374.42814    15.632759   -458.21329   -442.58053   -5704.0821    19347.534    29196.148   -65655.928      15.2149      13.1765      28.7324    5760.2466 
  959500      959.488    378.66994    15.809859   -458.38809   -442.57823   -6668.7251    19641.292    25786.071   -65433.538      15.2149      13.1765      28.7324    5760.2466 
  960000      959.988    382.73657    15.979645   -458.55466   -442.57501   -6020.7372     17921.77    26389.488    -62373.47      15.2149      13.1765      28.7324    5760.2466 
  960500      960.488    368.29813    15.376825   -457.95019   -442.57336    -4877.751    20927.252    28758.336   -64318.841      15.2149      13.1765      28.7324    5760.2466 
  961000      960.988    374.56678    15.638547   -458.20793   -442.56938   -6379.0351    20921.218    25169.671   -65227.995      15.2149      13.1765      28.7324    5760.2466 
  961500      961.488    354.48649    14.800175   -457.36683   -442.56666   -5776.6489    19643.421    23349.776   -60323.143      15.2149      13.1765      28.7324    5760.2466 
  962000      961.988    369.20209    15.414566   -457.98041   -442.56585   -4772.9954    15193.402    32624.381   -62136.769      15.2149      13.1765      28.7324    5760.2466 
  962500      962.488    378.30653    15.794686   -458.35744   -442.56276   -6708.1306     18426.47    29300.449   -67851.311      15.2149      13.1765      28.7324    5760.2466 
  963000      962.988    382.55739    15.972164   -458.53261   -442.56045   -5361.4543    19741.762     28640.87   -64466.995      15.2149      13.1765      28.7324    5760.2466 
  963500      963.488    403.43319     16.84375    -459.4003   -442.55655   -6575.8438    18786.041    25338.622   -63852.195      15.2149      13.1765      28.7324    5760.2466 
  964000      963.988    376.95734    15.738356   -458.29241   -442.55405   -6460.5409    19549.096    28104.194   -67034.913      15.2149      13.1765      28.7324    5760.2466 
  964500      964.488    372.83625    15.566296   -458.11694   -442.55064   -7053.9197    22519.525    23693.385    -67374.67      15.2149      13.1765      28.7324    5760.2466 
  965000      964.988    383.98118    16.031609   -458.58026   -442.54865   -5887.4835    21330.389     27927.37   -66920.209      15.2149      13.1765      28.7324    5760.2466 
  965500      965.488    390.81256    16.316825   -458.86149   -442.54466   -5732.3525    19926.824    30903.186   -68027.068      15.2149      13.1765      28.7324    5760.2466 
  966000      965.988    364.05851    15.199816   -457.74055   -442.54073   -5023.9292    22362.507    30514.443   -67948.738      15.2149      13.1765      28.7324    5760.2466 
  966500      966.488    369.96306    15.446337   -457.98475   -442.53842   -5476.9178    18575.734     28920.64   -63927.127      15.2149      13.1765      28.7324    5760.2466 
  967000      966.988    372.19961    15.539716   -458.07507   -442.53536   -7318.3049    16889.981    28941.283   -67786.179      15.2149      13.1765      28.7324    5760.2466 
  967500      967.488    393.33698    16.422223    -458.9553   -442.53308   -5447.1897    22294.487    24962.305   -63598.361      15.2149      13.1765      28.7324    5760.2466 
  968000      967.988    370.01066    15.448325   -457.97685   -442.52853   -5906.8648    16775.291    27894.445    -62390.33      15.2149      13.1765      28.7324    5760.2466 
  968500      968.488    375.84719    15.692006   -458.21757   -442.52556   -6143.8712    19283.961    27394.253   -65109.828      15.2149      13.1765      28.7324    5760.2466 
  969000      968.988     371.2696    15.500887   -458.02394   -442.52306   -5452.3588    20647.823    28981.696   -65986.596      15.2149      13.1765      28.7324    5760.2466 
  969500      969.488    360.64123    15.057142   -457.57496   -442.51782   -5544.5959    21429.014    28744.614   -66807.415      15.2149      13.1765      28.7324    5760.2466 
  970000      969.988    373.40611    15.590088   -458.10487   -442.51479   -6261.6428     18917.26    22794.036   -60496.224      15.2149      13.1765      28.7324    5760.2466 
  970500      970.488     374.8115    15.648765   -458.15953   -442.51077   -5657.5581    23269.743    26831.849   -67074.267      15.2149      13.1765      28.7324    5760.2466 
  971000      970.988    390.17314    16.290129   -458.79786   -442.50774   -6887.7195    19365.895    27713.128   -67742.181      15.2149      13.1765      28.7324    5760.2466 
  971500      971.488    365.81983    15.273354   -457.77782   -442.50447   -5075.2733    21708.315    28994.306   -65928.441      15.2149      13.1765      28.7324    5760.2466 
  972000      971.988    363.82614    15.190115   -457.69222    -442.5021   -6197.7776    20535.929    27200.968    -66330.23      15.2149      13.1765      28.7324    5760.2466 
  972500      972.488    384.81391    16.066376   -458.56503   -442.49866     -6197.86    17699.742    29196.321   -65489.643      15.2149      13.1765      28.7324    5760.2466 
  973000      972.988    387.76102    16.189421   -458.68558   -442.49616   -6381.0148    20288.274    26172.171   -65603.489      15.2149      13.1765      28.7324    5760.2466 
  973500      973.488    382.69179    15.977775   -458.46984   -442.49207   -5366.0136    21431.038    28446.145   -65975.223      15.2149      13.1765      28.7324    5760.2466 
  974000      973.988    372.78435     15.56413   -458.05232   -442.48819   -3961.1983    23444.888    27816.363   -63144.846      15.2149      13.1765      28.7324    5760.2466 
  974500      974.488    366.35746      15.2958   -457.78107   -442.48527    -5587.232    19985.316    26940.621   -63687.634      15.2149      13.1765      28.7324    5760.2466 
  975000      974.988    370.47546    15.467731    -457.9481   -442.48036   -5271.0747    18707.242    31645.161   -66165.627      15.2149      13.1765      28.7324    5760.2466 
  975500      975.488    371.14792    15.495807    -457.9721   -442.47629   -4790.3845    20735.002    26344.831   -61450.986      15.2149      13.1765      28.7324    5760.2466 
  976000      975.988    373.98134    15.614105   -458.08688   -442.47277   -5670.5508     23722.65    26955.279   -67689.581      15.2149      13.1765      28.7324    5760.2466 
  976500      976.488    351.74601    14.685757   -457.15476     -442.469   -3840.9928    23852.759    31511.136   -66886.873      15.2149      13.1765      28.7324    5760.2466 
  977000      976.988    363.99732    15.197262   -457.66332   -442.46606   -5440.2642    16837.929    33093.991   -66252.713      15.2149      13.1765      28.7324    5760.2466 
  977500      977.488    381.13708    15.912864   -458.37543   -442.46256   -6430.0626    22100.692    26166.307   -67557.187      15.2149      13.1765      28.7324    5760.2466 
  978000      977.988    355.76376    14.853502   -457.31044   -442.45694   -5942.0363    20994.846    24903.252   -63724.206      15.2149      13.1765      28.7324    5760.2466 
  978500      978.488    363.52602    15.177585   -457.63029   -442.45271   -4646.1039    20944.023    30690.823   -65573.158      15.2149      13.1765      28.7324    5760.2466 
  979000      978.988    367.35773    15.337562   -457.78621   -442.44865   -5797.3334    23152.715    26233.178   -66777.893      15.2149      13.1765      28.7324    5760.2466 
  979500      979.488       372.87    15.567706   -458.01331    -442.4456   -6280.5654    17005.601    30006.159   -65853.457      15.2149      13.1765      28.7324    5760.2466 
  980000      979.988    358.42894    14.964776   -457.40608    -442.4413   -4627.5497    24145.843    28942.783   -66971.274      15.2149      13.1765      28.7324    5760.2466 
  980500      980.488    368.25692    15.375105   -457.81168   -442.43657   -5321.4212    21789.774    26727.714   -64481.751      15.2149      13.1765      28.7324    5760.2466 
  981000      980.988    386.89103    16.153098   -458.58542   -442.43232   -6053.4244    19806.973    25671.921   -63639.168      15.2149      13.1765      28.7324    5760.2466 
  981500      981.488    379.13479    15.829267   -458.25727   -442.42801   -5532.4731    24863.742    28547.149    -70008.31      15.2149      13.1765      28.7324    5760.2466 
  982000      981.988    359.96926    15.029086   -457.45308     -442.424   -5648.2839    20416.446    29966.017   -67327.314      15.2149      13.1765      28.7324    5760.2466 
  982500      982.488    384.59886    16.057397   -458.47689   -442.41949   -5382.9737    23928.646    26944.122   -67021.689      15.2149      13.1765      28.7324    5760.2466 
  983000      982.988    387.42043    16.175201   -458.59159   -442.41639   -5143.4121     21774.91    28121.946   -65327.092      15.2149      13.1765      28.7324    5760.2466 
  983500      983.488    351.46246    14.673919   -457.08353   -442.40961   -6061.0569    22210.501    26058.349   -66452.022      15.2149      13.1765      28.7324    5760.2466 
  984000      983.988    373.75359    15.604596   -458.01064   -442.40605   -5790.2134    18125.786    29366.853   -64863.279      15.2149      13.1765      28.7324    5760.2466 
  984500      984.488    381.55005    15.930106    -458.3318   -442.40169   -5142.2066    22596.244    28980.598   -67003.462      15.2149      13.1765      28.7324    5760.2466 
  985000      984.988    391.35743    16.339574   -458.73737   -442.39779   -6265.7996    18602.809    32634.096   -70034.304      15.2149      13.1765      28.7324    5760.2466 
  985500      985.488    368.41173    15.381568   -457.77419   -442.39263   -5653.3522    19481.593    33005.785   -69447.434      15.2149      13.1765      28.7324    5760.2466 
  986000      985.988    365.51915      15.2608   -457.64915   -442.38835   -5316.7134    22162.509    33057.389   -71170.039      15.2149      13.1765      28.7324    5760.2466 
  986500      986.488    380.04325    15.867196   -458.25014   -442.38294   -6445.1155    19701.328    29333.438   -68370.112      15.2149      13.1765      28.7324    5760.2466 
  987000      986.988    374.82937    15.649511   -458.02822   -442.37871   -4774.3903    19583.075     30887.12   -64793.366      15.2149      13.1765      28.7324    5760.2466 
  987500      987.488    368.69789    15.393515    -457.7679   -442.37439   -5291.3508    21540.281    27828.096   -65242.429      15.2149      13.1765      28.7324    5760.2466 
  988000      987.988    380.86424    15.901473   -458.27202   -442.37055   -5410.6047    20690.893    26387.775   -63310.482      15.2149      13.1765      28.7324    5760.2466 
  988500      988.488    395.34695    16.506141   -458.87094    -442.3648    -5303.015    19308.408    27709.031   -62926.484      15.2149      13.1765      28.7324    5760.2466 
  989000      988.988    350.88647     14.64987   -457.00845   -442.35858   -4316.4433    21281.621    27511.374   -61742.324      15.2149      13.1765      28.7324    5760.2466 
  989500      989.488    374.82766     15.64944   -458.00464    -442.3552   -5848.5274      18521.8    31502.726   -67570.108      15.2149      13.1765      28.7324    5760.2466 
  990000      989.988    389.57713    16.265245    -458.6161   -442.35085   -5003.3624    19001.052    26634.909   -60646.048      15.2149      13.1765      28.7324    5760.2466 
  990500      990.488    389.17441    16.248431   -458.59411   -442.34568   -5336.4259     20915.79    25248.834   -62173.902      15.2149      13.1765      28.7324    5760.2466 
  991000      990.988    374.33967    15.629066    -457.9691   -442.34004   -7089.3251    18931.598    27226.771   -67426.344      15.2149      13.1765      28.7324    5760.2466 
  991500      991.488    366.37687     15.29661   -457.63143   -442.33482   -5547.7969    20658.891    22161.755   -59464.037      15.2149      13.1765      28.7324    5760.2466 
  992000      991.988    354.10905    14.784416   -457.11396   -442.32954   -6106.1479     18913.52      26952.3   -64184.263      15.2149      13.1765      28.7324    5760.2466 
  992500      992.488    377.00783    15.740464   -458.06564   -442.32517   -6299.5144      17894.7     28785.56   -65578.804      15.2149      13.1765      28.7324    5760.2466 
  993000      992.988    374.98822    15.656143   -457.97692   -442.32078   -5514.0105    21160.381    26957.864   -64660.276      15.2149      13.1765      28.7324    5760.2466 
  993500      993.488    396.57624    16.557465   -458.87333   -442.31587   -6344.6546    17949.401    27002.926   -63986.291      15.2149      13.1765      28.7324    5760.2466 
  994000      993.988    373.56358    15.596663   -457.90698   -442.31031   -4879.6951    19195.702    28494.677   -62329.464      15.2149      13.1765      28.7324    5760.2466 
  994500      994.488    376.77417    15.730709   -458.03602   -442.30531   -5039.8231    18345.444    31725.325   -65190.238      15.2149      13.1765      28.7324    5760.2466 
  995000      994.988    349.50728    14.592288   -456.89199    -442.2997   -5852.4839    19077.991    25852.924   -62488.367      15.2149      13.1765      28.7324    5760.2466 
  995500      995.488    394.69827    16.479058     -458.773   -442.29395   -5593.5463    21188.024     22173.67   -60142.333      15.2149      13.1765      28.7324    5760.2466 
  996000      995.988      367.531    15.344797   -457.63358   -442.28878   -5901.0346    20646.551    25719.946     -64069.6      15.2149      13.1765      28.7324    5760.2466 
  996500      996.488    390.44033    16.301285   -458.58619   -442.28491   -5536.2654    20709.905    29266.557   -66585.258      15.2149      13.1765      28.7324    5760.2466 
  997000      996.988    376.81218    15.732295   -458.01183   -442.27953   -6061.8818    20228.608    27382.684   -65796.938      15.2149      13.1765      28.7324    5760.2466 
  997500      997.488    383.57589    16.014687   -458.28789    -442.2732    -5780.968      18371.5    33139.265   -68853.668      15.2149      13.1765      28.7324    5760.2466 
  998000      997.988    376.37324    15.713969   -457.98341   -442.26944   -6308.5271    17919.072    27633.181   -64477.833      15.2149      13.1765      28.7324    5760.2466 
  998500      998.488    385.03899    16.075773   -458.33955   -442.26378   -4395.2654    20298.651    28358.604   -61843.051      15.2149      13.1765      28.7324    5760.2466 
  999000      998.988    372.44366    15.549905   -457.80706   -442.25715   -5331.8023    19788.495    26333.339   -62117.241      15.2149      13.1765      28.7324    5760.2466 
  999500      999.488    351.76863    14.686701   -456.93813   -442.25143   -4506.6969    20712.055    31432.664    -65664.81      15.2149      13.1765      28.7324    5760.2466 
 1000000      999.988    390.92414    16.321484   -458.56835   -442.24687   -5874.1811    18480.925    31083.322   -67186.791      15.2149      13.1765      28.7324    5760.2466 
 1000012         1000    376.95319    15.738183   -457.98446   -442.24628    -5702.715    19729.202    29814.654   -66652.001      15.2149      13.1765      28.7324    5760.2466 
Loop time of 887.382 on 28 procs for 1000000 steps with 324 atoms

Performance: 97.365 ns/day, 0.246 hours/ns, 1126.911 timesteps/s
88.2% CPU use with 28 MPI tasks x no OpenMP threads

MPI task timing breakdown:
Section |  min time  |  avg time  |  max time  |%varavg| %total
---------------------------------------------------------------
Pair    | 737.75     | 780.29     | 817.51     |  72.9 | 87.93
Neigh   | 0          | 0          | 0          |   0.0 |  0.00
Comm    | 58.005     | 94.593     | 136.8      | 204.4 | 10.66
Output  | 0.098395   | 0.10138    | 0.11867    |   1.1 |  0.01
Modify  | 5.7807     | 7.3379     | 11.846     |  65.6 |  0.83
Other   |            | 5.064      |            |       |  0.57

Nlocal:    11.5714 ave 15 max 9 min
Histogram: 6 3 0 4 0 7 4 0 0 4
Nghost:    663.214 ave 711 max 627 min
Histogram: 6 2 3 3 4 2 1 1 2 4
Neighs:    723.25 ave 964 max 527 min
Histogram: 3 4 2 2 7 4 2 0 1 3
FullNghs:  1446.5 ave 1882 max 1112 min
Histogram: 6 1 2 4 3 4 3 1 0 4

Total # of neighbors = 40502
Ave neighs/atom = 125.006
Neighbor list builds = 0
Dangerous builds = 0

write_restart   POSCAR_1x1x1.rest

#unfix    1
#undump   1
Total wall time: 0:14:47
