LAMMPS (7 Dec 2015)
#----------- Initialize Simulation ------------ restart01
#processors	2 2 2
units		metal
boundary	p p p     ## periodic boundary condition  on x y z axis ##
atom_style atomic
#atom_modify map array sort 0 0.0

read_data	POSCAR_1x1x1.lammps
  triclinic box = (0 0 0) to (14.88 12.8865 28.7324) with tilt (-7.44 0 0)
  1 by 2 by 4 MPI processor grid
  reading atoms ...
  324 atoms

#----------- Define Potential -----------------
pair_style meam
pair_coeff * * MgAlZn.library.meam Mg Al Zn MgAlZn.parameter.meam Mg Al Zn 	#1=Mg 2=Al 3=Zn	#atoms/mass

#----------- Neighbor List --------------------
neighbor 2.0 bin
neigh_modify delay 10 check yes

#--------------  Run a simulation (minimization) ---------------------------------------
minimize       1.0e-4   1.0e-6   100   1000          #結構優化的條件
WARNING: Resetting reneighboring criteria during minimization (../min.cpp:168)
Neighbor list info ...
  2 neighbor list requests
  update every 1 steps, delay 0 steps, check yes
  max neighbors/atom: 2000, page size: 100000
  master list distance cutoff = 8
  ghost atom cutoff = 8
  binsize = 4 -> bins = 6 4 8
Memory usage per processor = 8.21261 Mbytes
Step Temp E_pair E_mol TotEng Press 
       0            0   -716.59482            0   -716.59482    34434.371 
       4            0    -720.2449            0    -720.2449     35560.25 
Loop time of 0.0374469 on 8 procs for 4 steps with 324 atoms

98.8% CPU use with 8 MPI tasks x no OpenMP threads

Minimization stats:
  Stopping criterion = energy tolerance
  Energy initial, next-to-last, final = 
        -716.594818235     -720.227403974     -720.244904954
  Force two-norm initial, final = 13.941 0.899835
  Force max component initial, final = 1.24613 0.075193
  Final line search alpha, max atom move = 1 0.075193
  Iterations, force evaluations = 4 8

MPI task timing breakdown:
Section |  min time  |  avg time  |  max time  |%varavg| %total
---------------------------------------------------------------
Pair    | 0.032972   | 0.034897   | 0.036108   |   0.6 | 93.19
Neigh   | 0          | 0          | 0          |   0.0 |  0.00
Comm    | 0.00092649 | 0.0021469  | 0.0040309  |   2.6 |  5.73
Output  | 0          | 0          | 0          |   0.0 |  0.00
Modify  | 0          | 0          | 0          |   0.0 |  0.00
Other   |            | 0.0004032  |            |       |  1.08

Nlocal:    40.5 ave 45 max 36 min
Histogram: 2 0 0 2 0 0 2 0 0 2
Nghost:    948 ave 956 max 940 min
Histogram: 2 0 0 2 0 0 2 0 0 2
Neighs:    2664 ave 2973 max 2355 min
Histogram: 2 0 0 2 0 0 2 0 0 2
FullNghs:  5328 ave 5946 max 4710 min
Histogram: 2 0 0 2 0 0 2 0 0 2

Total # of neighbors = 42624
Ave neighs/atom = 131.556
Neighbor list builds = 0
Dangerous builds = 0
velocity all  create 393.0 4928459 #rot yes dist gaussian

#--------------  Run a simulation (Relaxation)  ----------------------------------------
fix  1  all  nvt   temp  393.0  393.0  100				#damping constant
#fix  2  all  npt   temp  393.0  393.0  50 iso 0.0 0.0 1000.0
fix  2  all deform 1 x final 0 15.6906 y final 0 13.5884 z final 0 25.2339 xy final -7.8452 units lattice
#fix  3  all  npt   temp  393.0  393.0  50 z 0.0 0.0 1000.0

#variable b equal 1
#fix 2 all efield  0.0  0.0  v_b
#compute pot all pe/atom


#----------- Output --------------------------
thermo	 500
timestep  0.001		#1.0 fs
thermo_style	custom step time temp ke pe etotal press pxx pyy pzz lx ly lz vol

dump 1 all custom 10000 dump.eq id type x y z
dump_modify 1 sort  id

run        10000000	#10000 ps
Neighbor list info ...
  2 neighbor list requests
  update every 1 steps, delay 10 steps, check yes
  max neighbors/atom: 2000, page size: 100000
  master list distance cutoff = 8
  ghost atom cutoff = 8
  binsize = 4 -> bins = 6 4 8
Memory usage per processor = 7.11825 Mbytes
Step Time Temp KinEng PotEng TotEng Press Pxx Pyy Pzz Lx Ly Lz Volume 
       4            0          393    16.408154    -720.2449   -703.83675    38741.302    53644.077    53920.423     8659.406        14.88    12.886458    28.732378    5509.4478 
     500        0.496    527.55225    22.025848   -725.85762   -703.83177    51470.439    83181.962    82846.225   -11616.869     14.88004    12.886493    28.732204    5509.4443 
    1000        0.996    381.04316    15.908943   -719.74526   -703.83632    45250.232    74699.711     68921.07   -7870.0854    14.880081    12.886528     28.73203    5509.4408 
    1500        1.496    411.73125    17.190203   -721.02758   -703.83738    49961.382    77041.993    81660.122   -8817.9691    14.880121    12.886563    28.731855    5509.4372 
    2000        1.996    444.87014    18.573785   -722.41217   -703.83838    52310.073     82876.75    81904.802   -7851.3342    14.880162    12.886598     28.73168    5509.4337 
    2500        2.496    451.72068    18.859802   -722.70007   -703.84026    51808.445    81640.119    82272.195   -8486.9775    14.880202    12.886633    28.731505    5509.4302 
    3000        2.996    460.55491     19.22864   -723.07084    -703.8422     53235.47    84862.766    86696.878   -11853.235    14.880243    12.886668     28.73133    5509.4266 
    3500        3.496    417.14072    17.416053   -721.26105     -703.845    52409.951    83540.019    82405.663   -8715.8306    14.880284    12.886704    28.731155    5509.4231 
    4000        3.996    448.47505    18.724294   -722.57098   -703.84669    54382.843    82922.841    92325.811   -12100.124    14.880324    12.886739     28.73098    5509.4196 
    4500        4.496      412.189    17.209314   -721.05753   -703.84822    54979.725    90626.382    85197.963   -10885.171    14.880365    12.886774    28.730805     5509.416 
    5000        4.996    437.31041    18.258159   -722.10845   -703.85029    55558.482    86028.496    90006.848   -9359.9002    14.880405    12.886809     28.73063    5509.4125 
    5500        5.496    442.67744    18.482238   -722.33653   -703.85429     55156.23    91403.368    86642.166   -12576.843    14.880446    12.886844    28.730455     5509.409 
    6000        5.996    435.55512    18.184873   -722.04017    -703.8553    53855.085    88916.095    87178.519   -14529.358    14.880486    12.886879     28.73028    5509.4054 
    6500        6.496    438.24581    18.297213   -722.15713   -703.85992    53515.235    87869.431    84262.323   -11586.048    14.880527    12.886914    28.730105    5509.4019 
    7000        6.996    429.12564    17.916436   -721.77795   -703.86151    55672.841    86281.198    90769.648   -10032.322    14.880567    12.886949     28.72993    5509.3984 
    7500        7.496    403.96057    16.865769   -720.73192   -703.86615    54734.512    87319.397    88074.271   -11190.134    14.880608    12.886984    28.729756    5509.3948 
    8000        7.996    477.54167    19.937855   -723.80694   -703.86909    56556.953    92608.124    91623.959   -14561.222    14.880648    12.887019    28.729581    5509.3913 
    8500        8.496    419.27873    17.505317   -721.37687   -703.87155    54293.094    89500.553    86010.058    -12631.33    14.880689    12.887054    28.729406    5509.3878 
    9000        8.996    422.33557    17.632944   -721.50698   -703.87403      52737.2    86575.206    87222.754    -15586.36    14.880729     12.88709    28.729231    5509.3842 
    9500        9.496     424.9127    17.740541    -721.6182   -703.87766    55745.023    87925.164    88391.671   -9081.7674     14.88077    12.887125    28.729056    5509.3807 
   10000        9.996    458.23266    19.131684   -723.01324   -703.88156     56197.35     88021.46    92700.476   -12129.887     14.88081     12.88716    28.728881    5509.3772 
   10500       10.496    427.31389    17.840794   -721.72553   -703.88473    53704.707    87269.848    85597.136   -11752.862    14.880851    12.887195    28.728706    5509.3736 
   11000       10.996    420.07211    17.538442   -721.42646   -703.88802    55610.703    90344.132    87823.759   -11335.781    14.880891     12.88723    28.728531    5509.3701 
   11500       11.496    452.30152    18.884053   -722.77813   -703.89407     54630.92    88833.909    87024.183   -11965.332    14.880932    12.887265    28.728356    5509.3666 
   12000       11.996    431.78926    18.027645   -721.92319   -703.89554    54863.168    90046.692    85312.998   -10770.187    14.880973      12.8873    28.728181     5509.363 
   12500       12.496    446.18828    18.628819   -722.52985   -703.90104    56390.086    86685.283    91308.883   -8823.9082    14.881013    12.887335    28.728006    5509.3595 
   13000       12.996    427.37941    17.843529   -721.74941   -703.90588     55743.96    90197.497    89409.109   -12374.726    14.881054     12.88737    28.727831     5509.356 
   13500       13.496    419.21927    17.502835   -721.41209   -703.90925     56491.37    90092.207    91152.118   -11770.213    14.881094    12.887405    28.727656    5509.3524 
   14000       13.996    436.61071    18.228945   -722.14266   -703.91372    55159.086    89042.253    90149.965    -13714.96    14.881135    12.887441    28.727482    5509.3489 
   14500       14.496    444.90113    18.575079   -722.49391   -703.91883    56095.987     92082.19    91654.745   -15448.973    14.881175    12.887476    28.727307    5509.3453 
   15000       14.996    468.29754    19.551903   -723.47575   -703.92384    52503.785    85890.707    87156.777   -15536.131    14.881216    12.887511    28.727132    5509.3418 
   15500       15.496    429.81017    17.945016    -721.8733   -703.92828    56179.136    91718.303    88325.022   -11505.916    14.881256    12.887546    28.726957    5509.3383 
   16000       15.996    455.65542    19.024082   -722.95769   -703.93361     54762.33    90160.979    88405.619   -14279.608    14.881297    12.887581    28.726782    5509.3347 
   16500       16.496    441.57776    18.436325   -722.37459   -703.93826    53843.738    87198.108    90020.963   -15687.856    14.881337    12.887616    28.726607    5509.3312 
   17000       16.996    425.20968    17.752941   -721.69564    -703.9427    53793.371    83902.531    87253.464   -9775.8834    14.881378    12.887651    28.726432    5509.3276 
   17500       17.496    442.91002    18.491948   -722.44178   -703.94983    56550.275    89198.005     89128.67   -8675.8524    14.881418    12.887686    28.726257    5509.3241 
   18000       17.996    430.07692    17.956153   -721.91093   -703.95477    56842.702    94092.617    88749.552   -12314.063    14.881459    12.887721    28.726082    5509.3206 
   18500       18.496    445.66902    18.607139   -722.56765   -703.96051    55781.282    88069.636     89223.25     -9949.04    14.881499    12.887756    28.725907     5509.317 
   19000       18.996    450.59091    18.812633   -722.77842   -703.96579    55799.001     92762.91    87925.392   -13291.299     14.88154    12.887792    28.725732    5509.3135 
   19500       19.496    421.94113    17.616475   -721.58775   -703.97127    55399.613    89916.108    91183.446   -14900.716     14.88158    12.887827    28.725557    5509.3099 
   20000       19.996    431.11263    17.999395   -721.97655   -703.97716    54237.563    86285.027    88421.601    -11993.94    14.881621    12.887862    28.725382    5509.3064 
   20500       20.496    452.98075    18.912412   -722.89499   -703.98258    54899.939      91082.8    88651.201   -15034.183    14.881662    12.887897    28.725208    5509.3029 
   21000       20.996    439.93828    18.367875   -722.35702   -703.98915    54582.987    86505.128     90254.28   -13010.447    14.881702    12.887932    28.725033    5509.2993 
   21500       21.496    437.99795    18.286864   -722.28253   -703.99567    54471.956    89246.948     88004.97   -13836.051    14.881743    12.887967    28.724858    5509.2958 
   22000       21.996    461.10495    19.251605   -723.25493   -704.00333    55992.899    89913.101    88378.527   -10312.931    14.881783    12.888002    28.724683    5509.2922 
   22500       22.496    436.97164    18.244015   -722.25116   -704.00714    54571.476    87265.035    88180.269   -11730.876    14.881824    12.888037    28.724508    5509.2887 
   23000       22.996    445.37618    18.594913    -722.6094   -704.01449    54608.079     85676.75    90435.597   -12288.109    14.881864    12.888072    28.724333    5509.2852 
   23500       23.496    431.13807    18.000457   -722.02174   -704.02128     55863.28    90056.293    87115.255   -9581.7081    14.881905    12.888107    28.724158    5509.2816 
   24000       23.996     440.9922    18.411877   -722.43865   -704.02677    54818.976    86291.158    88350.267   -10184.497    14.881945    12.888142    28.723983    5509.2781 
   24500       24.496    459.01723    19.164441   -723.19915   -704.03471    55515.353    86796.871    89864.644   -10115.454    14.881986    12.888178    28.723808    5509.2745 
   25000       24.996    456.04081    19.040172   -723.08159   -704.04142    54916.855    89981.629     90701.47   -15932.533    14.882026    12.888213    28.723633     5509.271 
   25500       25.496      432.784    18.069176   -722.11721   -704.04803    55795.469    89298.243    88573.934   -10485.769    14.882067    12.888248    28.723458    5509.2674 
   26000       25.996    427.17961    17.835187   -721.88905   -704.05386    56340.139    89016.269    85911.637   -5907.4897    14.882107    12.888283    28.723283    5509.2639 
   26500       26.496    410.78915    17.150869    -721.2118   -704.06093    55193.676    90674.259    92000.115   -17093.347    14.882148    12.888318    28.723108    5509.2603 
   27000       26.996    460.13386    19.211061   -723.28178   -704.07072    53698.524    85891.086    84243.895   -9039.4089    14.882188    12.888353    28.722934    5509.2568 
   27500       27.496    452.89442    18.908807   -722.98656   -704.07776    54812.656    87479.801    90436.974   -13478.807    14.882229    12.888388    28.722759    5509.2533 
   28000       27.996    438.10559    18.291358   -722.37632   -704.08496    55517.413        91778    86556.344   -11782.105    14.882269    12.888423    28.722584    5509.2497 
   28500       28.496    438.15235     18.29331   -722.38624   -704.09293    53143.104    86212.831    85487.233   -12270.753     14.88231    12.888458    28.722409    5509.2462 
   29000       28.996    442.88274    18.490809   -722.59202   -704.10121    56736.853    90067.297    92213.058   -12069.796    14.882351    12.888493    28.722234    5509.2426 
   29500       29.496    434.63103    18.146292   -722.25474   -704.10845    54803.357    90269.998    87968.599   -13828.526    14.882391    12.888529    28.722059    5509.2391 
   30000       29.996    434.25573    18.130623   -722.24726   -704.11664    55774.121    89848.033    89809.888    -12335.56    14.882432    12.888564    28.721884    5509.2355 
   30500       30.496    447.17018    18.669814   -722.79508   -704.12527    53424.658    88995.017    87192.365   -15913.409    14.882472    12.888599    28.721709     5509.232 
   31000       30.996    465.70686     19.44374   -723.57724    -704.1335    54643.355     88451.83    89815.033   -14336.798    14.882513    12.888634    28.721534    5509.2284 
   31500       31.496    433.32291    18.091677   -722.23243   -704.14076    55103.347    89732.213    87015.711   -11437.882    14.882553    12.888669    28.721359    5509.2249 
   32000       31.996    454.15047    18.961248   -723.11158   -704.15033    54049.736     88303.12    85632.877    -11786.79    14.882594    12.888704    28.721184    5509.2213 
   32500       32.496    455.23577    19.006561   -723.16597   -704.15941    55413.953     88177.72    89282.554   -11218.415    14.882634    12.888739    28.721009    5509.2178 
   33000       32.996    438.10668    18.291404   -722.45902   -704.16762    53457.501    88681.379    86734.837   -15043.714    14.882675    12.888774    28.720834    5509.2142 
   33500       33.496    444.04437    18.539308    -722.7152   -704.17589    54975.443    88400.763    90574.601   -14049.035    14.882715    12.888809     28.72066    5509.2107 
   34000       33.996     453.0935    18.917119   -723.10477   -704.18765    54098.028    87212.215    89359.808   -14277.939    14.882756    12.888844    28.720485    5509.2071 
   34500       34.496    437.41512     18.26253   -722.45852   -704.19599    56680.015    88896.016    88341.333   -7197.3051    14.882796     12.88888     28.72031    5509.2036 
   35000       34.996    421.46545    17.596615   -721.79996   -704.20335    55478.047     89643.16    88490.412   -11699.433    14.882837    12.888915    28.720135       5509.2 
   35500       35.496    433.35643    18.093076   -722.30805   -704.21497    53656.076    86158.779    87850.247     -13040.8    14.882877     12.88895     28.71996    5509.1965 
   36000       35.996    432.93514    18.075487   -722.30028   -704.22479    55898.643    85321.944    91275.733   -8901.7491    14.882918    12.888985    28.719785    5509.1929 
   36500       36.496    414.04016    17.286602   -721.51981   -704.23321    55769.739    88426.956      89956.9   -11074.639    14.882958     12.88902     28.71961    5509.1894 
   37000       36.996     432.0829    18.039905   -722.28278   -704.24287    55107.307    85209.956    90497.174   -10385.209    14.882999    12.889055    28.719435    5509.1858 
   37500       37.496    447.92351    18.701266   -722.95489   -704.25362    53614.201    90410.185    86047.348   -15614.931     14.88304     12.88909     28.71926    5509.1823 
   38000       37.996    424.52034     17.72416   -721.98722   -704.26306    55197.646    88015.975    88773.935   -11196.973     14.88308    12.889125    28.719085    5509.1787 
   38500       38.496    438.34005    18.301147   -722.57513   -704.27398    54081.733    85326.925    87803.739   -10885.464    14.883121     12.88916     28.71891    5509.1752 
   39000       38.996    424.17818    17.709875   -721.99391   -704.28403    55780.222    91036.977    92872.905   -16569.215    14.883161    12.889195    28.718735    5509.1716 
   39500       39.496    448.66889    18.732387   -723.02514   -704.29276    54641.033    88075.119    89188.788   -13340.809    14.883202     12.88923     28.71856    5509.1681 
   40000       39.996    457.81716    19.114336    -723.4201   -704.30576    54465.778    87829.141    88889.538   -13321.345    14.883242    12.889266    28.718385    5509.1645 
   40500       40.496    424.19016    17.710375   -722.02485   -704.31448    55157.733    90222.242    92632.373   -17381.417    14.883283    12.889301    28.718211     5509.161 
   41000       40.996    440.70284    18.399796   -722.72631   -704.32651    54823.138    89444.278    86954.036     -11928.9    14.883323    12.889336    28.718036    5509.1574 
   41500       41.496    427.53152     17.84988   -722.18574   -704.33586    55788.147    89164.704    90560.568   -12360.832    14.883364    12.889371    28.717861    5509.1539 
   42000       41.996    432.68483    18.065036   -722.41227   -704.34723    53622.878    86280.775     84259.27   -9671.4121    14.883404    12.889406    28.717686    5509.1503 
   42500       42.496    439.79709     18.36198   -722.72013   -704.35815    53739.217    84015.787        85752   -8550.1364    14.883445    12.889441    28.717511    5509.1468 
   43000       42.996    439.88177    18.365516   -722.73468   -704.36916    53884.403     86839.78    87626.819   -12813.388    14.883485    12.889476    28.717336    5509.1432 
   43500       43.496    442.79834    18.487285   -722.86669    -704.3794    53379.513    89221.042    87045.352   -16127.855    14.883526    12.889511    28.717161    5509.1397 
   44000       43.996    440.36317    18.385614   -722.77752   -704.39191    55407.897     87774.79    88699.412   -10250.512    14.883566    12.889546    28.716986    5509.1361 
   44500       44.496    454.85325     18.99059   -723.39369    -704.4031    55751.715    88219.841     87886.07   -8850.7656    14.883607    12.889581    28.716811    5509.1325 
   45000       44.996    432.42842     18.05433   -722.46809   -704.41376    54058.526    87104.601    88341.055   -13270.079    14.883647    12.889617    28.716636     5509.129 
   45500       45.496    430.94005    17.992189   -722.41741   -704.42522     54287.29    89600.523    89644.268    -16382.92    14.883688    12.889652    28.716461    5509.1254 
   46000       45.996    434.29067    18.132082   -722.57005   -704.43797    55561.507    87960.677    89592.397   -10868.553    14.883729    12.889687    28.716286    5509.1219 
   46500       46.496    428.21306    17.878335   -722.32603    -704.4477    56970.924    89638.553    90672.049   -9397.8304    14.883769    12.889722    28.716111    5509.1183 
   47000       46.996    438.69896    18.316132   -722.77694    -704.4608    53778.447    84746.831    89451.571   -12863.062     14.88381    12.889757    28.715937    5509.1148 
   47500       47.496    429.19416    17.919297    -722.3911    -704.4718    55715.841    91389.462    86788.914   -11030.854     14.88385    12.889792    28.715762    5509.1112 
   48000       47.996    422.40771    17.635956   -722.11941   -704.48345    53489.529    86607.061     86694.35   -12832.825    14.883891    12.889827    28.715587    5509.1077 
   48500       48.496    424.30271    17.715074   -722.21132   -704.49624    55402.018    86828.224    91739.408   -12361.577    14.883931    12.889862    28.715412    5509.1041 
   49000       48.996    410.37469    17.133565   -721.64108   -704.50752    55069.789     88411.17     85555.55   -8757.3538    14.883972    12.889897    28.715237    5509.1005 
   49500       49.496    446.47417    18.640755   -723.16274   -704.52198    53327.627    88907.886    87172.672   -16097.676    14.884012    12.889932    28.715062     5509.097 
   50000       49.996     445.8643    18.615292   -723.15019    -704.5349    55093.972    89292.941    87164.333   -11175.358    14.884053    12.889968    28.714887    5509.0934 
   50500       50.496    430.98416    17.994031   -722.54043    -704.5464    54718.853    86298.461    89170.295   -11312.197    14.884093    12.890003    28.714712    5509.0899 
   51000       50.996    461.91902    19.285593   -723.84593   -704.56034    53604.482    87433.745    88700.639   -15320.939    14.884134    12.890038    28.714537    5509.0863 
   51500       51.496    439.13363     18.33428   -722.90657   -704.57229    53926.602    91309.951    83951.971   -13482.116    14.884174    12.890073    28.714362    5509.0827 
   52000       51.996    417.87068     17.44653   -722.03132   -704.58479    54755.807    87209.104    92011.738   -14953.421    14.884215    12.890108    28.714187    5509.0792 
   52500       52.496    450.81112    18.821827    -723.4201   -704.59827    53486.544    86362.853    86711.586   -12614.806    14.884255    12.890143    28.714012    5509.0756 
   53000       52.996    427.61517    17.853372   -722.46317    -704.6098    54966.166    89911.632    87660.333   -12673.466    14.884296    12.890178    28.713837    5509.0721 
   53500       53.496    448.49806    18.725254    -723.3493   -704.62405    53333.085    87245.409    88233.102   -15479.257    14.884336    12.890213    28.713663    5509.0685 
   54000       53.996    428.08623     17.87304   -722.50964    -704.6366    55168.242    89544.323    88594.989   -12634.587    14.884377    12.890248    28.713488    5509.0649 
   54500       54.496    426.01067    17.786383   -722.43538   -704.64899    54457.478    86392.829    91156.211   -14176.606    14.884418    12.890283    28.713313    5509.0614 
   55000       54.996    449.70282    18.775554     -723.439   -704.66344    53788.914    87497.277    87742.544    -13873.08    14.884458    12.890319    28.713138    5509.0578 
   55500       55.496    418.96603    17.492262   -722.16851   -704.67625     53379.39    87994.823    88100.914   -15957.568    14.884499    12.890354    28.712963    5509.0543 
   56000       55.996    427.16781    17.834695   -722.52442   -704.68972    56025.283    89921.516    87793.656   -9639.3225    14.884539    12.890389    28.712788    5509.0507 
   56500       56.496     425.2918    17.756369   -722.46055   -704.70418    53200.429    88185.255     86157.98   -14741.946     14.88458    12.890424    28.712613    5509.0471 
   57000       56.996     436.5573    18.226715   -722.94374   -704.71703    54522.701     86611.49    87866.153   -10909.541     14.88462    12.890459    28.712438    5509.0436 
   57500       57.496      443.658    18.523177   -723.25617     -704.733    52032.183    84010.573    86284.117   -14198.141    14.884661    12.890494    28.712263      5509.04 
   58000       57.996    443.06981     18.49862   -723.24511   -704.74649    55168.098    89375.802    89633.922    -13505.43    14.884701    12.890529    28.712088    5509.0365 
   58500       58.496    437.03963    18.246853   -723.00602   -704.75917    54650.459    89082.701    88169.943   -13301.266    14.884742    12.890564    28.711913    5509.0329 
   59000       58.996    430.09494    17.956905   -722.73165   -704.77475    53759.949    86274.864    88132.883     -13127.9    14.884782    12.890599    28.711738    5509.0293 
   59500       59.496    419.89478    17.531038   -722.31808   -704.78705    53553.853    86551.032    87009.594   -12899.068    14.884823    12.890634    28.711563    5509.0258 
   60000       59.996    447.37206    18.678243   -723.47994   -704.80169     53614.81    88144.915    86731.114   -14031.598    14.884863    12.890669    28.711389    5509.0222 
   60500       60.496    437.12417    18.250383   -723.06702   -704.81664    55869.878    89526.526    88773.235   -10690.128    14.884904    12.890705    28.711214    5509.0186 
   61000       60.996    420.06286    17.538056   -722.36801   -704.82995    53735.329     84834.42    88612.286    -12240.72    14.884944     12.89074    28.711039    5509.0151 
   61500       61.496    467.37334    19.513317   -724.35945   -704.84614    55069.055    89206.541    89009.997   -13009.372    14.884985    12.890775    28.710864    5509.0115 
   62000       61.996    414.50039    17.305817   -722.16457   -704.85875    56110.466    89398.142    90447.898   -11514.642    14.885026     12.89081    28.710689    5509.0079 
   62500       62.496    421.30905    17.590085   -722.46285   -704.87276    55216.611    88495.957    89785.936   -12632.061    14.885066    12.890845    28.710514    5509.0044 
   63000       62.996    413.20794    17.251856   -722.13869   -704.88683    55090.662    90613.825    90076.033   -15417.874    14.885107     12.89088    28.710339    5509.0008 
   63500       63.496    414.83648    17.319849   -722.22249   -704.90264     54897.65    89431.807    86939.694   -11678.551    14.885147    12.890915    28.710164    5508.9972 
   64000       63.996    428.45972    17.888633   -722.80788   -704.91925    54793.655    85597.474    87726.097   -8942.6061    14.885188     12.89095    28.709989    5508.9937 
   64500       64.496    411.16731    17.166657   -722.09641   -704.92975     55975.09    90475.185     88779.52   -11329.435    14.885228    12.890985    28.709814    5508.9901 
   65000       64.996    415.85639    17.362431   -722.30828   -704.94584    52650.646    84473.223    84277.932   -10799.216    14.885269     12.89102    28.709639    5508.9865 
   65500       65.496    454.54393    18.977676   -723.93981   -704.96213    52989.408    90431.449    86559.174   -18022.399    14.885309    12.891056    28.709464     5508.983 
   66000       65.996    447.52461    18.684612   -723.66129   -704.97668    54303.637    87817.489    88360.966   -13267.544     14.88535    12.891091    28.709289    5508.9794 
   66500       66.496    436.75169    18.234832    -723.2253   -704.99047    54205.312    88626.792    88342.416   -14353.271     14.88539    12.891126    28.709115    5508.9758 
   67000       66.996     437.0026    18.245307   -723.25133   -705.00602    54078.541    90160.113    89198.253   -17122.741    14.885431    12.891161     28.70894    5508.9723 
   67500       67.496    417.70523    17.439622   -722.45884   -705.01922    54002.206    90592.265    90108.943   -18694.592    14.885471    12.891196    28.708765    5508.9687 
   68000       67.996     418.3176     17.46519   -722.50022   -705.03503    55942.059    89238.527    91435.727   -12848.076    14.885512    12.891231     28.70859    5508.9651 
   68500       68.496    438.83037    18.321618   -723.37208   -705.05046    53485.927     87200.67    90416.284   -17159.174    14.885552    12.891266    28.708415    5508.9616 
   69000       68.996    436.05128    18.205589   -723.27169   -705.06611    54391.663    88907.431    85843.249    -11575.69    14.885593    12.891301     28.70824     5508.958 
   69500       69.496    429.96436    17.951454   -723.03159   -705.08013    53975.091    86370.714    88852.528    -13297.97    14.885633    12.891336    28.708065    5508.9544 
   70000       69.996    426.15489    17.792404   -722.88875   -705.09635    55046.847    89577.098     88641.18   -13077.737    14.885674    12.891371     28.70789    5508.9509 
   70500       70.496    418.14961    17.458176   -722.56903   -705.11085    54413.878    90139.749    87091.768   -13989.884    14.885715    12.891407    28.707715    5508.9473 
   71000       70.996    419.55318    17.516776     -722.642   -705.12522    54797.926    87820.233     87652.95   -11079.404    14.885755    12.891442     28.70754    5508.9437 
   71500       71.496    434.03662    18.121475   -723.26262   -705.14115    54190.534    86040.011    90825.574   -14293.981    14.885796    12.891477    28.707365    5508.9402 
   72000       71.996    445.64676     18.60621   -723.76373   -705.15752    56171.004    90572.791    88984.674   -11044.452    14.885836    12.891512     28.70719    5508.9366 
   72500       72.496    443.38967    18.511974   -723.68543   -705.17346    54440.903    88988.028    88142.673   -13807.991    14.885877    12.891547    28.707015     5508.933 
   73000       72.996      434.166    18.126876     -723.315   -705.18812    55819.835    90369.812    90752.271   -13662.578    14.885917    12.891582    28.706841    5508.9294 
   73500       73.496    437.18947    18.253109   -723.45631    -705.2032    53695.172    88076.014    87992.392   -14982.891    14.885958    12.891617    28.706666    5508.9259 
   74000       73.996     446.5907     18.64562   -723.86383   -705.21821    55759.216    88138.498    88270.191   -9131.0421    14.885998    12.891652    28.706491    5508.9223 
   74500       74.496    417.97842    17.451028   -722.68417   -705.23314    54165.017    86001.099    87019.642   -10525.689    14.886039    12.891687    28.706316    5508.9187 
   75000       74.996    422.84137    17.654061   -722.90365   -705.24959    55802.135    90499.078    87097.085   -10189.759    14.886079    12.891722    28.706141    5508.9152 
   75500       75.496    439.44792    18.347402   -723.61264   -705.26523    53525.634    87784.649    86446.014   -13653.761     14.88612    12.891757    28.705966    5508.9116 
   76000       75.996    420.62476    17.561516   -722.84047   -705.27896    54309.397     86816.44    87925.248   -11813.496     14.88616    12.891793    28.705791     5508.908 
   76500       76.496    417.20733    17.418835   -722.71247   -705.29364    55779.817    91282.599    90037.921   -13981.069    14.886201    12.891828    28.705616    5508.9044 
   77000       76.996    419.41034    17.510813   -722.82044   -705.30963    52294.494     84352.87    85409.957   -12879.344    14.886241    12.891863    28.705441    5508.9009 
   77500       77.496    418.51621    17.473482   -722.79838    -705.3249    54407.282    87833.363    88364.628   -12976.145    14.886282    12.891898    28.705266    5508.8973 
   78000       77.996    432.39767    18.053047   -723.39362   -705.34057    54694.297    89990.417    84808.441   -10715.969    14.886322    12.891933    28.705091    5508.8937 
   78500       78.496    441.44526    18.430793   -723.78635   -705.35556    56073.674    91399.866     89218.09   -12396.933    14.886363    12.891968    28.704916    5508.8901 
   79000       78.996    429.35298    17.925928   -723.29746   -705.37153    53349.298    84674.208    86823.191   -11449.505    14.886404    12.892003    28.704741    5508.8866 
   79500       79.496    423.76409    17.692586   -723.07809   -705.38551    54946.691    88491.723     89198.61   -12850.259    14.886444    12.892038    28.704567     5508.883 
   80000       79.996    426.60341    17.811131   -723.21152   -705.40039    54805.186    87939.274    89276.904   -12800.621    14.886485    12.892073    28.704392    5508.8794 
   80500       80.496    425.32654     17.75782   -723.17403   -705.41621    52686.726    85794.368    85809.868   -13544.059    14.886525    12.892108    28.704217    5508.8758 
   81000       80.996    422.46343    17.638282   -723.07027   -705.43199    55568.391    87280.863    92053.574   -12629.265    14.886566    12.892144    28.704042    5508.8723 
   81500       81.496    431.62572    18.020817   -723.46842   -705.44761    54865.718    89976.846    86851.322   -12231.015    14.886606    12.892179    28.703867    5508.8687 
   82000       81.996    460.43884    19.223794   -724.68638   -705.46258    53024.293    84988.889    88590.272   -14506.282    14.886647    12.892214    28.703692    5508.8651 
   82500       82.496     431.1502    18.000964   -723.47744   -705.47648    53530.639      87661.1    88390.729   -15459.912    14.886687    12.892249    28.703517    5508.8615 
   83000       82.996    418.51804    17.473558   -722.96682   -705.49326    55043.123    87701.202    88034.308    -10606.14    14.886728    12.892284    28.703342     5508.858 
   83500       83.496    433.02372    18.079185   -723.58665   -705.50746    53218.491    85688.926    87114.666   -13148.119    14.886768    12.892319    28.703167    5508.8544 
   84000       83.996    441.02695    18.413328   -723.93649   -705.52317    54230.003    87253.227     83564.55   -8127.7668    14.886809    12.892354    28.702992    5508.8508 
   84500       84.496    411.16901    17.166728   -722.70327   -705.53654    55167.482    87971.236    90917.296   -13386.086    14.886849    12.892389    28.702817    5508.8472 
   85000       84.996    410.55436    17.141066   -722.69356    -705.5525    54878.244     90419.21    85597.919   -11382.395     14.88689    12.892424    28.702642    5508.8437 
   85500       85.496    419.53407    17.515978   -723.08326   -705.56728    54110.965    88375.961    90369.755   -16412.822     14.88693    12.892459    28.702467    5508.8401 
   86000       85.996    433.82146    18.112491   -723.69615   -705.58366    53444.801    88153.123    89171.672   -16990.391    14.886971    12.892495    28.702292    5508.8365 
   86500       86.496    435.71773    18.191663   -723.78995   -705.59829    53627.103    87538.422     87029.02   -13686.132    14.887011     12.89253    28.702118    5508.8329 
   87000       86.996    438.79691    18.320221   -723.93314   -705.61292    52037.017    84785.015    87200.233   -15874.198    14.887052    12.892565    28.701943    5508.8293 
   87500       87.496    414.94712    17.324468   -722.95349   -705.62902    55277.721    87420.346    87325.246   -8912.4288    14.887093      12.8926    28.701768    5508.8258 
   88000       87.996     419.2188    17.502815   -723.14468   -705.64186    53457.584    89324.596    87832.911   -16784.753    14.887133    12.892635    28.701593    5508.8222 
   88500       88.496    424.38351    17.718448   -723.37628   -705.65783    54411.548    86353.987    86907.137    -10026.48    14.887174     12.89267    28.701418    5508.8186 
   89000       88.996    411.27416    17.171118   -722.84273   -705.67161    55082.492    87960.205    90429.165   -13141.895    14.887214    12.892705    28.701243     5508.815 
   89500       89.496    427.78123    17.860306   -723.54826   -705.68795    53748.208    88440.909    87870.918   -15067.203    14.887255     12.89274    28.701068    5508.8114 
   90000       89.996    402.95017    16.823583    -722.5242   -705.70062     53421.22    88331.671    87741.995   -15810.007    14.887295    12.892775    28.700893    5508.8079 
   90500       90.496    421.39443     17.59365   -723.30948   -705.71583    54438.421    87434.791    90535.239   -14654.768    14.887336     12.89281    28.700718    5508.8043 
   91000       90.996    420.11379    17.540182   -723.26996   -705.72977    53042.327    87404.499    84818.347   -13095.867    14.887376    12.892845    28.700543    5508.8007 
   91500       91.496    411.78394    17.192403   -722.93692   -705.74451    54409.818    87202.895     90025.77    -13999.21    14.887417    12.892881    28.700368    5508.7971 
   92000       91.996    418.44912     17.47068   -723.22937   -705.75869    53471.171    88239.124    87652.849   -15478.459    14.887457    12.892916    28.700193    5508.7935 
   92500       92.496    416.53828    17.390901   -723.16346   -705.77256    53334.078    85954.315    88335.761   -14287.842    14.887498    12.892951    28.700018    5508.7899 
   93000       92.996    431.18183    18.002284   -723.79034   -705.78805    53712.979    87570.646    87610.574   -14042.284    14.887538    12.892986    28.699844    5508.7864 
   93500       93.496    429.16612    17.918126   -723.72063    -705.8025    53321.746    90578.399    86475.059    -17088.22    14.887579    12.893021    28.699669    5508.7828 
   94000       93.996     429.8052    17.944809    -723.7616   -705.81679    55151.519    87762.163    90282.927   -12590.533    14.887619    12.893056    28.699494    5508.7792 
   94500       94.496    430.02341    17.953919   -723.78512    -705.8312    54777.007    89000.049    88667.393    -13336.42     14.88766    12.893091    28.699319    5508.7756 
   95000       94.996    415.06917    17.329564    -723.1731   -705.84353    54668.104    87663.494    87630.172   -11289.352      14.8877    12.893126    28.699144     5508.772 
   95500       95.496    411.55555    17.182867   -723.04003   -705.85717    54988.415    86962.477    87616.592   -9613.8237    14.887741    12.893161    28.698969    5508.7684 
   96000       95.996    412.33184    17.215278   -723.08577    -705.8705    54137.699    88002.867    84899.608   -10489.379    14.887782    12.893196    28.698794    5508.7649 
   96500       96.496    420.14947    17.541672   -723.42667     -705.885    53646.639    88241.909    86919.885   -14221.876    14.887822    12.893232    28.698619    5508.7613 
   97000       96.996     439.8499    18.364185   -724.26447   -705.90028    55393.665    89417.946     86753.67   -9990.6201    14.887863    12.893267    28.698444    5508.7577 
   97500       97.496    405.73035    16.939659   -722.85205    -705.9124    55008.826    87261.481    88656.472   -10891.474    14.887903    12.893302    28.698269    5508.7541 
   98000       97.996    410.48099    17.138003   -723.06329   -705.92529    54889.448     86670.16    88239.527   -10241.343    14.887944    12.893337    28.698094    5508.7505 
   98500       98.496    414.09863    17.289043   -723.22696   -705.93792    54126.961    86725.321    89569.992   -13914.432    14.887984    12.893372    28.697919    5508.7469 
   99000       98.996    437.21933    18.254356   -724.20886    -705.9545    52877.107    86295.068    84996.889   -12660.636    14.888025    12.893407    28.697744    5508.7434 
   99500       99.496     401.5612    16.765592   -722.73142   -705.96583    53211.259    83041.125    88774.455   -12181.804    14.888065    12.893442     28.69757    5508.7398 
  100000       99.996    398.10709     16.62138   -722.60077   -705.97939    53587.786    87042.978    88079.532   -14359.153    14.888106    12.893477    28.697395    5508.7362 
  100500      100.496    407.68123     17.02111   -723.01405   -705.99294    55023.718     88672.24    87096.919   -10698.005    14.888146    12.893512     28.69722    5508.7326 
  101000      100.996    428.99572    17.911012   -723.91695   -706.00593    52786.128    84243.199    91219.326   -17104.141    14.888187    12.893547    28.697045     5508.729 
  101500      101.496    429.14214    17.917125   -723.93697   -706.01984    53973.805    87762.399     85172.95   -11013.933    14.888227    12.893583     28.69687    5508.7254 
  102000      101.996    428.58603    17.893907   -723.92696   -706.03305    54302.507    87119.762    87921.932   -12134.173    14.888268    12.893618    28.696695    5508.7218 
  102500      102.496    415.43825    17.344973   -723.38984   -706.04486    55363.116    89939.232     87292.88   -11142.763    14.888308    12.893653     28.69652    5508.7182 
  103000      102.996    420.02606    17.536519   -723.59491   -706.05839    53898.865    89918.949    88217.207   -16439.559    14.888349    12.893688    28.696345    5508.7147 
  103500      103.496    428.92282    17.907968   -723.97969   -706.07172    54418.115    89033.216    89003.133   -14782.004    14.888389    12.893723     28.69617    5508.7111 
  104000      103.996    419.85501    17.529378   -723.61311   -706.08373    54308.616    88108.393     87025.36   -12207.905     14.88843    12.893758    28.695995    5508.7075 
  104500      104.496    433.15535     18.08468   -724.18115   -706.09647    55176.345     87583.59     90022.36   -12076.914    14.888471    12.893793     28.69582    5508.7039 
  105000      104.996     430.0092    17.953326   -724.06172    -706.1084    55488.123    89979.758    88079.181   -11594.569    14.888511    12.893828    28.695645    5508.7003 
  105500      105.496    411.81847    17.193844   -723.31523   -706.12139     54855.06    87465.171    86781.975   -9681.9651    14.888552    12.893863     28.69547    5508.6967 
  106000      105.996    411.84172    17.194815    -723.3282   -706.13339    54082.098    86897.528    87838.058   -12489.292    14.888592    12.893898    28.695296    5508.6931 
  106500      106.496    415.79257    17.359767   -723.50625   -706.14648    53758.942    86984.709    87417.748   -13125.632    14.888633    12.893934    28.695121    5508.6895 
  107000      106.996    416.62614    17.394569   -723.55424   -706.15967     54553.53    87711.301    91390.224   -15440.934    14.888673    12.893969    28.694946    5508.6859 
  107500      107.496    419.10022    17.497864   -723.66894   -706.17108    54479.046    86481.967    90798.386   -13843.217    14.888714    12.894004    28.694771    5508.6824 
  108000      107.996    427.31825    17.840976   -724.02458    -706.1836    53628.307    84959.006    88561.597   -12635.682    14.888754    12.894039    28.694596    5508.6788 
  108500      108.496    418.33085    17.465742   -723.66101   -706.19527    53381.804    86187.551    85182.081    -11224.22    14.888795    12.894074    28.694421    5508.6752 
  109000      108.996    426.72244      17.8161   -724.02363   -706.20753    54312.935    87296.037    88702.221   -13059.452    14.888835    12.894109    28.694246    5508.6716 
  109500      109.496    436.70011    18.232678   -724.45218    -706.2195    53639.722    87320.382    84197.839   -10599.055    14.888876    12.894144    28.694071     5508.668 
  110000      109.996    400.09092    16.704207   -722.93479   -706.23058    53504.561    85241.134    87703.298   -12430.749    14.888916    12.894179    28.693896    5508.6644 
  110500      110.496    415.97293    17.367297   -723.61001   -706.24272    54286.047    87571.694    88300.486    -13014.04    14.888957    12.894214    28.693721    5508.6608 
  111000      110.996    407.56578     17.01629   -723.27046   -706.25417    53507.367    88314.997    85163.802   -12956.697    14.888997    12.894249    28.693546    5508.6572 
  111500      111.496    404.73282    16.898011    -723.1645   -706.26649    52910.884     82857.37    87913.304   -12038.021    14.889038    12.894284    28.693371    5508.6536 
  112000      111.996    425.77668    17.776614   -724.05477   -706.27816    52092.344    85673.503    84130.321   -13526.792    14.889079     12.89432    28.693196      5508.65 
  112500      112.496    422.79582     17.65216   -723.94116     -706.289    54537.319     87727.55    89068.491   -13184.082    14.889119    12.894355    28.693022    5508.6464 
  113000      112.996    402.24154    16.793997    -723.0946   -706.30061    55271.392    87451.893    88147.807    -9785.524     14.88916     12.89439    28.692847    5508.6428 
  113500      113.496    415.41492    17.343999   -723.65646   -706.31246    55109.816    89224.428    87385.012   -11279.992      14.8892    12.894425    28.692672    5508.6392 
  114000      113.996    435.51024       18.183   -724.50607   -706.32307    52878.436     86207.74     87510.38   -15082.811    14.889241     12.89446    28.692497    5508.6356 
  114500      114.496    436.02563    18.204518   -724.54159   -706.33707    51456.322    84206.663    85646.677   -15484.375    14.889281    12.894495    28.692322    5508.6321 
  115000      114.996    407.82405    17.027073   -723.37352   -706.34645    54418.209    87198.514     90412.08   -14355.966    14.889322     12.89453    28.692147    5508.6285 
  115500      115.496    425.10448    17.748549   -724.10627   -706.35773    52191.255     85577.05    84767.142   -13770.429    14.889362    12.894565    28.691972    5508.6249 
  116000      115.996    418.19228    17.459957   -723.82766    -706.3677    53589.273     84442.49    89000.542   -12675.213    14.889403      12.8946    28.691797    5508.6213 
  116500      116.496    422.90152    17.656573   -724.03651   -706.37993    52793.231    84831.106    86145.441   -12596.855    14.889443    12.894635    28.691622    5508.6177 
  117000      116.996    431.53869    18.017184   -724.40681   -706.38963    53209.472    85170.026     85950.94   -11492.551    14.889484    12.894671    28.691447    5508.6141 
  117500      117.496     408.6724    17.062492   -723.46243   -706.39993    52319.356    84973.868     87007.69    -15023.49    14.889524    12.894706    28.691272    5508.6105 
  118000      117.996    406.92059    16.989353   -723.40006   -706.41071    53237.365     86703.28    85030.942   -12022.126    14.889565    12.894741    28.691097    5508.6069 
  118500      118.496    423.93296    17.699636   -724.12157   -706.42194     53974.88    88029.103    88868.967   -14973.431    14.889605    12.894776    28.690922    5508.6033 
  119000      118.996    411.65457    17.187001   -723.62039   -706.43339     52639.18    85209.553    86124.742   -13416.757    14.889646    12.894811    28.690748    5508.5997 
  119500      119.496    402.25607    16.794604   -723.23741   -706.44281    55599.165    89035.749    91788.216   -14026.471    14.889686    12.894846    28.690573    5508.5961 
  120000      119.996    416.53493    17.390761   -723.84544   -706.45468    52803.392    86992.066    86914.697   -15496.588    14.889727    12.894881    28.690398    5508.5925 
  120500      120.496     415.8608    17.362615    -723.8263   -706.46369    54593.158    86416.624     89869.44    -12506.59    14.889768    12.894916    28.690223    5508.5889 
  121000      120.996     409.3837     17.09219   -723.56566   -706.47347     52705.79    87588.991    86299.455   -15771.076    14.889808    12.894951    28.690048    5508.5853 
  121500      121.496    416.14067      17.3743   -723.85914   -706.48484    54265.928    87843.385    87578.178   -12623.779    14.889849    12.894986    28.689873    5508.5817 
  122000      121.996    406.84527    16.986208   -723.48122   -706.49501    52191.387    85443.697    86543.662   -15413.199    14.889889    12.895022    28.689698    5508.5781 
  122500      122.496    427.12793     17.83303   -724.34006   -706.50703    52337.499    84784.925    87184.568   -14956.995     14.88993    12.895057    28.689523    5508.5745 
  123000      122.996    394.78697    16.482761   -722.99707   -706.51431    54654.402    88098.108    89558.565   -13693.468     14.88997    12.895092    28.689348    5508.5709 
  123500      123.496    413.83379    17.277986   -723.80291   -706.52493    54512.474    88270.435    87361.096   -12094.108    14.890011    12.895127    28.689173    5508.5673 
  124000      123.996    401.53815     16.76463   -723.29945   -706.53482    53843.201    85965.846    88136.424   -12572.666    14.890051    12.895162    28.688998    5508.5637 
  124500      124.496    403.47426    16.845465   -723.39095   -706.54549    54379.778    83977.717    90273.036   -11111.417    14.890092    12.895197    28.688823    5508.5601 
  125000      124.996    408.14811    17.040603   -723.59581    -706.5552    54278.668     89380.01    87674.489   -14218.496    14.890132    12.895232    28.688648    5508.5565 
  125500      125.496    414.04218    17.286686   -723.85153   -706.56485    53395.646    84497.558    87952.399   -12263.019    14.890173    12.895267    28.688474    5508.5529 
  126000      125.996    405.84249    16.944341   -723.51938   -706.57504    54171.856    88981.432    85787.762   -12253.625    14.890213    12.895302    28.688299    5508.5493 
  126500      126.496    421.42066    17.594745   -724.17952   -706.58478    54903.188    90303.685    87809.253   -13403.373    14.890254    12.895337    28.688124    5508.5457 
  127000      126.996    411.20777    17.168347   -723.76314    -706.5948    55482.986     85443.17    88649.386   -7643.5985    14.890294    12.895372    28.687949    5508.5421 
  127500      127.496    419.43114    17.511681   -724.11563   -706.60395    55583.881    89974.869    89634.049   -12857.275    14.890335    12.895408    28.687774    5508.5385 
  128000      127.996    415.45427    17.345643   -723.95883   -706.61319    53509.931    84005.589    86811.511   -10287.307    14.890375    12.895443    28.687599    5508.5349 
  128500      128.496    405.78356    16.941881   -723.56431   -706.62243    53969.132    86199.951    88239.549   -12532.103    14.890416    12.895478    28.687424    5508.5313 
  129000      128.996    407.20874    17.001383   -723.63316   -706.63177    54215.496    86750.768    86968.373   -11072.654    14.890457    12.895513    28.687249    5508.5277 
  129500      129.496    406.88978    16.988066    -723.6301   -706.64203    53552.045    84147.032    86979.339   -10470.235    14.890497    12.895548    28.687074    5508.5241 
  130000      129.996     417.2753    17.421672   -724.07228   -706.65061    54054.825    88939.813    85956.976   -12732.314    14.890538    12.895583    28.686899    5508.5205 
  130500      130.496    411.32085    17.173068    -723.8337   -706.66064    54961.735    87354.555    88790.624   -11259.974    14.890578    12.895618    28.686724    5508.5169 
  131000      130.996    426.73188    17.816494   -724.48648   -706.66998    54272.829    86566.293     88931.33   -12679.136    14.890619    12.895653    28.686549    5508.5133 
  131500      131.496    409.58223    17.100479   -723.77869   -706.67821    54330.326    88191.769    86436.145   -11636.937    14.890659    12.895688    28.686374    5508.5097 
  132000      131.996    395.21848    16.500778   -723.18801   -706.68723    54004.218    85360.603    88693.397   -12041.345      14.8907    12.895723    28.686199    5508.5061 
  132500      132.496     422.8211    17.653215   -724.35018   -706.69696    53849.951    87820.598     89412.25   -15682.994     14.89074    12.895759    28.686025    5508.5025 
  133000      132.996     422.6204    17.644836   -724.35061   -706.70577    53798.739    86014.603    88804.357   -13422.743    14.890781    12.895794     28.68585    5508.4988 
  133500      133.496    426.21247    17.794808   -724.51036   -706.71556    53451.983    86266.495    86372.344   -12282.889    14.890821    12.895829    28.685675    5508.4952 
  134000      133.996    419.53951    17.516205    -724.2403   -706.72409    53884.976    88142.292    89999.542   -16486.908    14.890862    12.895864      28.6855    5508.4916 
  134500      134.496    406.32603    16.964529    -723.6963   -706.73177    54075.527    90857.152    86568.641   -15199.212    14.890902    12.895899    28.685325     5508.488 
  135000      134.996    393.21139    16.416979   -723.15646   -706.73948    53994.676    85192.459    87562.635   -10771.067    14.890943    12.895934     28.68515    5508.4844 
  135500      135.496    423.15771    17.667269   -724.41722   -706.74995    53235.264    87850.309    86442.362   -14586.881    14.890983    12.895969    28.684975    5508.4808 
  136000      135.996    398.57722    16.641008   -723.40101      -706.76    54689.618    85963.613    87850.609   -9745.3691    14.891024    12.896004      28.6848    5508.4772 
  136500      136.496    397.24781    16.585504   -723.35245   -706.76694    55587.674    87833.033    88698.747   -9768.7583    14.891064    12.896039    28.684625    5508.4736 
  137000      136.996    399.80661    16.692336   -723.46848   -706.77615    55147.375    88497.201    84964.727   -8019.8045    14.891105    12.896074     28.68445      5508.47 
  137500      137.496    387.23401    16.167417   -722.95105   -706.78363    52454.551    84764.266    86480.565   -13881.178    14.891146     12.89611    28.684275    5508.4664 
  138000      137.996    403.36378    16.840852   -723.63402   -706.79317    52379.553    87662.326    85874.923    -16398.59    14.891186    12.896145      28.6841    5508.4628 
  138500      138.496    386.71963    16.145942   -722.94707   -706.80113    54123.429    87307.571    87642.882   -12580.165    14.891227     12.89618    28.683925    5508.4592 
  139000      138.996    405.31107    16.922153   -723.73167   -706.80952     55130.73    89629.239    90046.164   -14283.215    14.891267    12.896215    28.683751    5508.4556 
  139500      139.496    407.98826    17.033929   -723.85309   -706.81916    53694.407    85111.059    87067.095   -11094.932    14.891308     12.89625    28.683576     5508.452 
  140000      139.996    389.60531    16.266422   -723.09318   -706.82675     53240.59    84587.425    89152.303   -14017.958    14.891348    12.896285    28.683401    5508.4483 
  140500      140.496    406.52473    16.972825   -723.80818   -706.83536    54033.948    84650.696    86468.775   -9017.6265    14.891389     12.89632    28.683226    5508.4447 
  141000      140.996    431.92967    18.033507   -724.87803   -706.84452    52417.938    87311.656    86863.837    -16921.68    14.891429    12.896355    28.683051    5508.4411 
  141500      141.496    409.25355    17.086756   -723.93912   -706.85236    52870.115    86058.443    85365.949   -12814.046     14.89147     12.89639    28.682876    5508.4375 
  142000      141.996    391.09008    16.328412    -723.1887   -706.86028    53440.546    86885.372    87283.974    -13847.71     14.89151    12.896425    28.682701    5508.4339 
  142500      142.496    411.22178    17.168932   -724.03784   -706.86891    53628.921    88068.857    88245.936   -15428.031    14.891551     12.89646    28.682526    5508.4303 
  143000      142.996    399.01036    16.659092   -723.53724   -706.87815    53151.099    88901.729     84191.01   -13639.443    14.891591    12.896496    28.682351    5508.4267 
  143500      143.496    392.04153    16.368137   -723.25288   -706.88475    54027.406    85706.761    87745.442   -11369.985    14.891632    12.896531    28.682176    5508.4231 
  144000      143.996     410.9991    17.159634   -724.05363     -706.894    52059.715    85478.303    81098.428   -10397.587    14.891672    12.896566    28.682001    5508.4195 
  144500      144.496    406.39426    16.967378   -723.86844   -706.90107    53884.731    83867.583    89599.107   -11812.498    14.891713    12.896601    28.681826    5508.4158 
  145000      144.996    433.63583    18.104741   -725.01487   -706.91013    53021.846    84957.632    85790.874   -11682.967    14.891753    12.896636    28.681651    5508.4122 
  145500      145.496    399.71267    16.688414   -723.60739   -706.91898    52538.426    84722.783    84659.895     -11767.4    14.891794    12.896671    28.681477    5508.4086 
  146000      145.996    404.77507    16.899775   -723.82489   -706.92511    52167.966    85371.766    85524.629   -14392.498    14.891835    12.896706    28.681302     5508.405 
  146500      146.496    388.50047    16.220293   -723.15437   -706.93408    54012.313     85543.09     89199.92   -12706.072    14.891875    12.896741    28.681127    5508.4014 
  147000      146.996    438.41936    18.304458    -725.2483   -706.94384    53505.589    83507.067    87238.534   -10228.835    14.891916    12.896776    28.680952    5508.3978 
  147500      147.496    400.19724    16.708646   -723.65855    -706.9499    54162.113    88094.178    89459.497   -15067.336    14.891956    12.896811    28.680777    5508.3942 
  148000      147.996    402.24492    16.794138   -723.75311   -706.95897    53632.081    85307.868    87529.528   -11941.152    14.891997    12.896847    28.680602    5508.3906 
  148500      148.496    394.89333    16.487202   -723.45363   -706.96643    53927.027    89880.829    84798.581   -12898.331    14.892037    12.896882    28.680427    5508.3869 
  149000      148.996    422.00877      17.6193    -724.5947    -706.9754    52965.968    85056.014    86107.229   -12265.338    14.892078    12.896917    28.680252    5508.3833 
  149500      149.496    393.17358    16.415401   -723.39769   -706.98229     52551.15    84481.505    85442.979   -12271.033    14.892118    12.896952    28.680077    5508.3797 
  150000      149.996    403.91874    16.864022   -723.85441   -706.99039    53632.951    87494.008    88098.306   -14693.462    14.892159    12.896987    28.679902    5508.3761 
  150500      150.496    421.32295    17.590666   -724.59026   -706.99959    53403.946    87096.707    86570.971   -13455.839    14.892199    12.897022    28.679727    5508.3725 
  151000      150.996    426.24685    17.796244   -724.80376   -707.00752    53089.554    84357.246    87477.948   -12566.533     14.89224    12.897057    28.679552    5508.3689 
  151500      151.496    398.18246    16.624527   -723.63914   -707.01461    55750.057    87059.988    92100.931   -11910.748     14.89228    12.897092    28.679377    5508.3653 
  152000      151.996    429.08704    17.914825   -724.93823   -707.02341    54521.372    88013.899    88293.894   -12743.675    14.892321    12.897127    28.679203    5508.3616 
  152500      152.496    420.00296    17.535555   -724.56638   -707.03083    52472.493    84722.001    86786.385   -14090.906    14.892361    12.897162    28.679028     5508.358 
  153000      152.996    416.56668    17.392086   -724.43093   -707.03885    52697.244    84721.211    86291.087   -12920.567    14.892402    12.897198    28.678853    5508.3544 
  153500      153.496     382.2776    15.960482    -723.0051   -707.04462    53903.203     86339.13    88360.252   -12989.773    14.892442    12.897233    28.678678    5508.3508 
  154000      153.996    405.21641    16.918201   -723.97142   -707.05322    53009.423    83211.437    87271.429   -11454.596    14.892483    12.897268    28.678503    5508.3472 
  154500      154.496    421.19383    17.585275   -724.64687    -707.0616    51692.305    87373.465    83883.856   -16180.406    14.892524    12.897303    28.678328    5508.3436 
  155000      154.996    408.51189    17.055791   -724.12481   -707.06902    52812.155    87469.264    86154.363   -15187.161    14.892564    12.897338    28.678153    5508.3399 
  155500      155.496     417.9712    17.450727   -724.52728   -707.07656    54557.522    85492.878    87907.059   -9727.3702    14.892605    12.897373    28.677978    5508.3363 
  156000      155.996    430.76144    17.984732   -725.06925   -707.08452    54590.744    88004.129    87451.199   -11683.094    14.892645    12.897408    28.677803    5508.3327 
  156500      156.496    409.26326    17.087161   -724.17854   -707.09137    53072.645     85432.34    87475.143   -13689.546    14.892686    12.897443    28.677628    5508.3291 
  157000      156.996     400.4584    16.719549   -723.81852   -707.09897    53874.704    83878.406    87508.952   -9763.2452    14.892726    12.897478    28.677453    5508.3255 
  157500      157.496    417.28566    17.422105   -724.53015   -707.10804    53421.577    87563.913    85930.471   -13229.653    14.892767    12.897513    28.677278    5508.3218 
  158000      157.996    402.41403    16.801199   -723.91623   -707.11503    53630.056    89230.684    87180.382   -15520.897    14.892807    12.897549    28.677103    5508.3182 
  158500      158.496    408.20023    17.042779   -724.16551   -707.12273    53773.636    85869.298    82275.056   -6823.4456    14.892848    12.897584    28.676929    5508.3146 
  159000      158.996    384.44969    16.051169   -723.18052   -707.12935    54502.605    88358.238    87134.152   -11984.576    14.892888    12.897619    28.676754     5508.311 
  159500      159.496     407.2828    17.004475    -724.1416   -707.13713    53554.482    88707.173     86171.41   -14215.137    14.892929    12.897654    28.676579    5508.3074 
  160000      159.996    400.54073    16.722987   -723.86942   -707.14644    52724.942    88252.894    84704.672   -14782.738    14.892969    12.897689    28.676404    5508.3037 
  160500      160.496    384.87356    16.068866   -723.22082   -707.15195    54458.422    86447.966    87864.752   -10937.454     14.89301    12.897724    28.676229    5508.3001 
  161000      160.996      394.593    16.474663    -723.6348   -707.16014    54319.187    87420.997    86891.173    -11354.61     14.89305    12.897759    28.676054    5508.2965 
  161500      161.496    406.89415    16.988249   -724.15664   -707.16839    54120.327    85330.084    86762.084   -9731.1881    14.893091    12.897794    28.675879    5508.2929 
  162000      161.996    409.23811    17.086111   -724.26086   -707.17475     53699.21    87478.535    88061.743   -14442.647    14.893132    12.897829    28.675704    5508.2893 
  162500      162.496    400.67692    16.728673   -723.91204   -707.18337    53709.531    84516.849    86860.733   -10248.991    14.893172    12.897864    28.675529    5508.2856 
  163000      162.996     374.1182    15.619819   -722.80894   -707.18912    53326.259    84055.751    88211.628   -12288.603    14.893213    12.897899    28.675354     5508.282 
  163500      163.496    398.77915    16.649439   -723.84696   -707.19752    53702.008     86143.71    89607.089   -14644.776    14.893253    12.897935    28.675179    5508.2784 
  164000      163.996    407.99268    17.034113   -724.24012     -707.206    53178.314     89050.45     85238.34   -14753.849    14.893294     12.89797    28.675004    5508.2748 
  164500      164.496    434.19073    18.127909   -725.34319   -707.21528    52881.047    84540.529    85460.816   -11358.204    14.893334    12.898005    28.674829    5508.2711 
  165000      164.996    410.13452    17.123537    -724.3447   -707.22116    52680.266    85426.488    86382.892   -13768.581    14.893375     12.89804    28.674655    5508.2675 
  165500      165.496    418.61586    17.477642   -724.70674   -707.22909     54206.31    88692.248     86088.74   -12162.058    14.893415    12.898075     28.67448    5508.2639 
  166000      165.996    409.72522    17.106449   -724.34255    -707.2361    55018.546    88624.562    87071.783   -10640.707    14.893456     12.89811    28.674305    5508.2603 
  166500      166.496    390.20803    16.291586   -723.53442   -707.24284     55149.33    87845.601    85851.204   -8248.8152    14.893496    12.898145     28.67413    5508.2567 
  167000      166.996    387.91705    16.195935   -723.44578   -707.24984    52422.372    84173.634    85569.987   -12476.504    14.893537     12.89818    28.673955     5508.253 
  167500      167.496    393.67009     16.43613   -723.69449   -707.25836    51690.058    84837.752    85742.009   -15509.587    14.893577    12.898215     28.67378    5508.2494 
  168000      167.996    405.06351    16.911817   -724.17813   -707.26632    55559.643    89596.869    88458.887   -11376.826    14.893618     12.89825    28.673605    5508.2458 
  168500      168.496    425.38436    17.760234   -725.03425   -707.27402    52826.722    86150.121    87839.596    -15509.55    14.893658    12.898286     28.67343    5508.2422 
  169000      168.996    404.99423    16.908925   -724.19023    -707.2813    52830.958    86263.805    86676.282   -14447.213    14.893699    12.898321    28.673255    5508.2385 
  169500      169.496    406.43892    16.969242   -724.25659   -707.28735    53139.992    85787.323    86063.785   -12431.133    14.893739    12.898356     28.67308    5508.2349 
  170000      169.996    410.50818    17.139138   -724.43488   -707.29574    53059.538    85390.075    86478.845   -12690.304     14.89378    12.898391    28.672905    5508.2313 
  170500      170.496    397.31172    16.588172   -723.89067   -707.30249    53211.168    84050.658    87364.062   -11781.216    14.893821    12.898426     28.67273    5508.2276 
  171000      170.996    399.02481    16.659696   -723.97108   -707.31138    56439.745    89110.842    87374.331   -7165.9371    14.893861    12.898461    28.672555     5508.224 
  171500      171.496    407.03877    16.994286   -724.31291   -707.31862    54113.202    85511.554     87705.74    -10877.69    14.893902    12.898496    28.672381    5508.2204 
  172000      171.996    430.75482    17.984456   -725.31114   -707.32669    53532.892    88688.357    87164.177   -15253.859    14.893942    12.898531    28.672206    5508.2168 
  172500      172.496    412.86981    17.237738   -724.57107   -707.33333    53263.677    86103.508    85719.921   -12032.398    14.893983    12.898566    28.672031    5508.2131 
  173000      172.996    419.77762    17.526147   -724.86627   -707.34012    53780.092     85926.93    88920.975    -13507.63    14.894023    12.898601    28.671856    5508.2095 
  173500      173.496    401.81953    16.776378   -724.12374   -707.34736    54182.049    88304.146    86402.639   -12160.638    14.894064    12.898637    28.671681    5508.2059 
  174000      173.996    397.52957    16.597268   -723.95235   -707.35508    53823.753    86204.022     88246.97   -12979.735    14.894104    12.898672    28.671506    5508.2023 
  174500      174.496    414.63133    17.311284   -724.67277   -707.36149    53913.024    88064.214    86808.212   -13133.352    14.894145    12.898707    28.671331    5508.1986 
  175000      174.996    403.03732    16.827222   -724.19755   -707.37033    54223.412    87133.432      88914.9   -13378.094    14.894185    12.898742    28.671156     5508.195 
  175500      175.496    395.52293    16.513489   -723.88975   -707.37626    53337.167    84241.275    87289.431   -11519.207    14.894226    12.898777    28.670981    5508.1914 
  176000      175.996    391.00987    16.325064   -723.70754   -707.38248    52566.282    85034.055    84909.619   -12244.829    14.894266    12.898812    28.670806    5508.1877 
  176500      176.496    389.24811    16.251508    -723.6428   -707.39129    53752.199    87807.508    87083.133   -13634.044    14.894307    12.898847    28.670631    5508.1841 
  177000      176.996    396.74814    16.564642    -723.9627   -707.39806    53867.353    85596.438     86572.73   -10567.108    14.894347    12.898882    28.670456    5508.1805 
  177500      177.496     374.0403    15.616566   -723.02188   -707.40531    56402.136    89818.083    91774.595    -12386.27    14.894388    12.898917    28.670281    5508.1768 
  178000      177.996    399.28709    16.670646   -724.08276   -707.41211    53892.417    86812.887    89024.282   -14159.917    14.894428    12.898952    28.670106    5508.1732 
  178500      178.496    409.73484     17.10685   -724.52751   -707.42066    52795.689    85543.746    85780.099   -12936.779    14.894469    12.898987    28.669932    5508.1696 
  179000      178.996    392.70137    16.395685   -723.82225   -707.42657    53036.966    85693.186    84075.349   -10657.638     14.89451    12.899023    28.669757     5508.166 
  179500      179.496    407.58402    17.017051    -724.4525   -707.43545    54043.137    86417.471    87737.529    -12025.59     14.89455    12.899058    28.669582    5508.1623 
  180000      179.996    378.87936    15.818602   -723.26027   -707.44166    53769.125    87163.744     85038.92    -10895.29    14.894591    12.899093    28.669407    5508.1587 
  180500      180.496    421.61989    17.603063   -725.05326   -707.45019    54689.853     90451.65    85190.835   -11572.925    14.894631    12.899128    28.669232    5508.1551 
  181000      180.996    409.62538     17.10228   -724.55953   -707.45725    53520.973    85823.393    88357.272   -13617.747    14.894672    12.899163    28.669057    5508.1514 
  181500      181.496    404.26678    16.878553   -724.34219   -707.46364    52475.991    84725.389    85503.263    -12800.68    14.894712    12.899198    28.668882    5508.1478 
  182000      181.996    421.57516    17.601196   -725.07323   -707.47203    52265.887    84984.075    85128.018   -13314.431    14.894753    12.899233    28.668707    5508.1442 
  182500      182.496    388.24728    16.209723   -723.68779   -707.47807    55684.322    90014.844    89056.724   -12018.603    14.894793    12.899268    28.668532    5508.1405 
  183000      182.996    400.44828    16.719127   -724.20469   -707.48556    52929.783    85558.023    88688.231   -15456.904    14.894834    12.899303    28.668357    5508.1369 
  183500      183.496    376.07171     15.70138   -723.19268    -707.4913    53230.532    84681.515    88946.116   -13936.036    14.894874    12.899338    28.668182    5508.1333 
  184000      183.996    400.86568    16.736554   -724.23664   -707.50009    53723.646    87650.254    84600.094    -11079.41    14.894915    12.899374    28.668007    5508.1296 
  184500      184.496    396.22649    16.542863   -724.05017   -707.50731    52701.429    85005.972    86296.764   -13198.449    14.894955    12.899409    28.667832     5508.126 
  185000      184.996    387.56149     16.18109   -723.69436   -707.51327    53427.317    87911.294    85451.116   -13080.458    14.894996    12.899444    28.667658    5508.1224 
  185500      185.496    397.27856    16.586788   -724.10909    -707.5223    54129.554    86423.541    87782.453   -11817.332    14.895036    12.899479    28.667483    5508.1187 
  186000      185.996    413.65372    17.270468   -724.79926   -707.52879    53026.949    84366.993    87474.919   -12761.065    14.895077    12.899514    28.667308    5508.1151 
  186500      186.496    418.29635    17.464302   -725.00142   -707.53712    53698.147    86211.556    87069.679   -12186.794    14.895117    12.899549    28.667133    5508.1114 
  187000      186.996    417.05787    17.412594   -724.95773   -707.54514    53387.009    85656.013    89185.858   -14680.844    14.895158    12.899584    28.666958    5508.1078 
  187500      187.496    394.88371      16.4868   -724.03728   -707.55048    55948.354    90295.687    86514.807   -8965.4319    14.895199    12.899619    28.666783    5508.1042 
  188000      187.996    407.05908    16.995134   -724.55289   -707.55776     54483.83    86575.906    87440.671   -10565.088    14.895239    12.899654    28.666608    5508.1005 
  188500      188.496    377.00828    15.740483   -723.30446   -707.56397    52828.975    83673.527    85436.463   -10623.065     14.89528    12.899689    28.666433    5508.0969 
  189000      188.996    396.84208    16.568564   -724.14032   -707.57176    53321.927    85580.073    87807.722   -13422.013     14.89532    12.899725    28.666258    5508.0933 
  189500      189.496    416.35765    17.383359   -724.96458   -707.58122    54029.902    86234.764    86299.318   -10444.376    14.895361     12.89976    28.666083    5508.0896 
  190000      189.996    389.61899    16.266993   -723.85344   -707.58645    54246.124    85522.333    85930.297   -8714.2577    14.895401    12.899795    28.665908     5508.086 
  190500      190.496    413.74309    17.274199   -724.86814   -707.59394    53381.589    86584.223    87516.767   -13956.223    14.895442     12.89983    28.665733    5508.0824 
  191000      190.996     388.5694    16.223172   -723.82443   -707.60126    53642.722    87309.813    87313.195   -13694.842    14.895482    12.899865    28.665558    5508.0787 
  191500      191.496    393.02384    16.409149   -724.01844   -707.60929    53206.124    87144.171    83860.141   -11385.939    14.895523      12.8999    28.665384    5508.0751 
  192000      191.996    387.16098    16.164368   -723.77947    -707.6151    54110.946    88494.396    87504.216   -13665.774    14.895563    12.899935    28.665209    5508.0714 
  192500      192.496    385.05044    16.076251   -723.69932   -707.62306     52150.88     86747.94    84444.469    -14739.77    14.895604     12.89997    28.665034    5508.0678 
  193000      192.996    413.05918    17.245645   -724.87624    -707.6306    55470.704    87753.598    90251.997   -11593.484    14.895644    12.900005    28.664859    5508.0642 
  193500      193.496    415.14052    17.332543   -724.97014    -707.6376    52950.554    87340.806    86533.468   -15022.613    14.895685     12.90004    28.664684    5508.0605 
  194000      193.996    409.47574    17.096033   -724.74137   -707.64534    52108.271     86305.64    85843.691   -15824.519    14.895725    12.900075    28.664509    5508.0569 
  194500      194.496    380.92432    15.903982    -723.5549   -707.65092    53525.145     86464.23    84913.224   -10802.017    14.895766    12.900111    28.664334    5508.0532 
  195000      194.996    392.92782     16.40514   -724.06421   -707.65907    53434.957     88961.89    84598.511   -13255.529    14.895806    12.900146    28.664159    5508.0496 
  195500      195.496    399.30021    16.671194   -724.33675   -707.66556    52812.083     84698.01    85428.504   -11690.265    14.895847    12.900181    28.663984     5508.046 
  196000      195.996    410.08532    17.121483   -724.79569    -707.6742    52375.497    83926.286    87412.181   -14211.976    14.895888    12.900216    28.663809    5508.0423 
  196500      196.496    400.25575    16.711089   -724.39061   -707.67953    53861.733     86856.28    86571.105   -11842.186    14.895928    12.900251    28.663634    5508.0387 
  197000      196.996    414.20458    17.293467    -724.9827   -707.68923    51609.109    82235.628    86289.784   -13698.084    14.895969    12.900286    28.663459     5508.035 
  197500      197.496    390.74648    16.314067   -724.00924   -707.69517    54293.314    88298.009    88147.955    -13566.02    14.896009    12.900321    28.663284    5508.0314 
  198000      197.996    389.03152    16.242465   -723.94408   -707.70161     53483.24    85921.245    87727.854   -13199.379     14.89605    12.900356     28.66311    5508.0278 
  198500      198.496    395.47912     16.51166   -724.22137   -707.70971    52983.867    84130.896    85225.678   -10404.972     14.89609    12.900391    28.662935    5508.0241 
  199000      198.996    402.46582    16.803361    -724.5198   -707.71644    51909.753    84933.487    86382.773   -15587.001    14.896131    12.900426     28.66276    5508.0205 
  199500      199.496    390.63825    16.309548   -724.03308   -707.72353    52873.267     86256.06    84792.504   -12428.762    14.896171    12.900462    28.662585    5508.0168 
  200000      199.996    412.37641    17.217139   -724.94987   -707.73273    52194.638    85496.782     86425.29   -15338.158    14.896212    12.900497     28.66241    5508.0132 
  200500      200.496    411.44832     17.17839   -724.91735   -707.73896    53513.875    86195.448    88572.358    -14226.18    14.896252    12.900532    28.662235    5508.0095 
  201000      200.996    391.17724    16.332051   -724.07775    -707.7457    54079.374    89002.679    87170.226   -13934.783    14.896293    12.900567     28.66206    5508.0059 
  201500      201.496    379.09402    15.827565   -723.58056     -707.753    53686.388    88284.135    88334.752   -15559.722    14.896333    12.900602    28.661885    5508.0022 
  202000      201.996    409.71835    17.106162   -724.86733   -707.76117    53434.618    86951.149    85937.138   -12584.432    14.896374    12.900637     28.66171    5507.9986 
  202500      202.496    416.42702    17.386256   -725.15454   -707.76828    53506.845    86296.882    87320.499   -13096.847    14.896414    12.900672    28.661535     5507.995 
  203000      202.996    413.00029    17.243186   -725.01799    -707.7748    52188.175    85531.309    85740.957   -14707.739    14.896455    12.900707     28.66136    5507.9913 
  203500      203.496    403.42155    16.843264   -724.62497    -707.7817    51913.806    86536.718    85758.282   -16553.581    14.896495    12.900742    28.661185    5507.9877 
  204000      203.996    403.09305    16.829549   -724.61907   -707.78952    53540.494    85590.312     85244.66   -10213.491    14.896536    12.900777     28.66101     5507.984 
  204500      204.496    405.68563    16.937792   -724.73442   -707.79663    53061.106    83014.961    84815.304   -8646.9486    14.896577    12.900813    28.660836    5507.9804 
  205000      204.996    429.89091    17.948387   -725.75269    -707.8043    52274.097    85914.242    86416.635   -15508.587    14.896617    12.900848    28.660661    5507.9767 
  205500      205.496    399.23316    16.668395   -724.47876   -707.81037    52173.926     86010.54    86092.067   -15580.831    14.896658    12.900883    28.660486    5507.9731 
  206000      205.996    404.74797    16.898643   -724.71588   -707.81724    52622.562     87079.12    86887.857   -16099.291    14.896698    12.900918    28.660311    5507.9694 
  206500      206.496    400.32479    16.713971    -724.5396   -707.82563    52493.526    85262.868    87171.841    -14954.13    14.896739    12.900953    28.660136    5507.9658 
  207000      206.996    399.63498    16.685171   -724.51799   -707.83282    52191.275    84401.388    87482.465   -15310.028    14.896779    12.900988    28.659961    5507.9621 
  207500      207.496    420.74803    17.566662   -725.40564   -707.83897    52255.346    85561.673    84401.261   -13196.896     14.89682    12.901023    28.659786    5507.9585 
  208000      207.996    407.56157    17.016114   -724.86299   -707.84687    53326.003    84262.492    86856.545   -11141.028     14.89686    12.901058    28.659611    5507.9548 
  208500      208.496    407.05154     16.99482   -724.84884   -707.85402    53606.112    85190.246    87363.865   -11735.774    14.896901    12.901093    28.659436    5507.9512 
  209000      208.996    399.09802    16.662752   -724.52407   -707.86132    52444.764    85431.934    85896.187   -13993.829    14.896941    12.901128    28.659261    5507.9476 
  209500      209.496    410.58303    17.142263   -725.01077    -707.8685     52732.54    86082.826    83724.001   -11609.206    14.896982    12.901164    28.659086    5507.9439 
  210000      209.996    417.49637    17.430902   -725.30599   -707.87509    54184.039    86322.452    87452.314    -11222.65    14.897022    12.901199    28.658911    5507.9403 
  210500      210.496    393.17214     16.41534   -724.29758   -707.88224    52480.133     85673.02     85247.67   -13480.292    14.897063    12.901234    28.658736    5507.9366 
  211000      210.996    395.93386    16.530645   -724.41995    -707.8893    54328.293    87230.083    88400.447   -12645.651    14.897103    12.901269    28.658562     5507.933 
  211500      211.496    397.73508    16.605848   -724.50221   -707.89636    52258.071     85113.65    84706.044   -13045.481    14.897144    12.901304    28.658387    5507.9293 
  212000      211.996    383.14538    15.996713    -723.9003   -707.90358    52767.977    85415.548     88384.35   -15495.966    14.897185    12.901339    28.658212    5507.9257 
[...]
 9948500     9948.496    417.78969    17.443149   -731.05659   -713.61344    54237.844    6421.2038    32604.982    123687.35    15.686425    13.584785    25.251919    5381.1007 
 9949000     9948.996    382.73087    15.979407   -729.58326   -713.60386    54214.358    4848.4643     28819.77    128974.84    15.686466     13.58482    25.251744    5381.0912 
 9949500     9949.496    387.29316    16.169887   -729.76822   -713.59833    54462.278    5542.6529    28659.922    129184.26    15.686506    13.584855    25.251569    5381.0818 
 9950000     9949.996     381.9061    15.944972   -729.53543   -713.59046    54798.158    8965.0143    31101.884    124327.58    15.686547     13.58489    25.251394    5381.0723 
 9950500     9950.496    397.43104    16.593154   -730.17569   -713.58254    54179.503    4481.0906    32121.575    125935.84    15.686587    13.584925    25.251219    5381.0628 
 9951000     9950.996    406.79982     16.98431   -730.56341    -713.5791    54383.002    8058.0108    31836.832    123254.16    15.686628     13.58496    25.251044    5381.0534 
 9951500     9951.496    411.37002    17.175121    -730.7468   -713.57168    54939.655    11691.239    28297.535    124830.19    15.686668    13.584995    25.250869    5381.0439 
 9952000     9951.996    407.90683    17.030529   -730.59298   -713.56245    54737.578     14381.37    29873.874    119957.49    15.686709     13.58503    25.250694    5381.0344 
 9952500     9952.496    407.83889    17.027692   -730.58332   -713.55563    53154.629    3013.0644    28146.449    128304.37    15.686749    13.585065    25.250519    5381.0249 
 9953000     9952.996    384.71648    16.062308   -729.60792   -713.54562    54569.798     5497.337     31449.39    126762.67     15.68679    13.585101    25.250344    5381.0155 
 9953500     9953.496    390.72934    16.313351   -729.85441   -713.54105    54325.284     8810.375    29220.784    124944.69     15.68683    13.585136    25.250169     5381.006 
 9954000     9953.996     381.5519    15.930183   -729.46329   -713.53311    54888.141    6700.3905    34355.249    123608.78    15.686871    13.585171    25.249994    5380.9965 
 9954500     9954.496    390.74511     16.31401   -729.84102   -713.52701    54780.112    5304.6644    33752.701    125282.97    15.686911    13.585206    25.249819    5380.9871 
 9955000     9954.996     392.1131    16.371125   -729.89021   -713.51908    55044.567     5610.725    35841.195    123681.78    15.686952    13.585241    25.249645    5380.9776 
 9955500     9955.496    392.35002    16.381016   -729.89372    -713.5127    55144.367    6837.8998    35501.843    123093.36    15.686993    13.585276     25.24947    5380.9681 
 9956000     9955.996    417.22158    17.419429    -730.9238   -713.50437     54215.74    8189.6253    28925.474    125532.12    15.687033    13.585311    25.249295    5380.9586 
 9956500     9956.496    396.15532    16.539892   -730.03713   -713.49724     54634.78    4567.7558    34594.277    124742.31    15.687074    13.585346     25.24912    5380.9492 
 9957000     9956.996    373.18278    15.580764   -729.06959   -713.48883    54628.359   -1394.5647    33387.743     131891.9    15.687114    13.585381    25.248945    5380.9397 
 9957500     9957.496    396.59884    16.558409   -730.04252   -713.48412    55086.432    6654.1308    34961.828    123643.34    15.687155    13.585416     25.24877    5380.9302 
 9958000     9957.996    407.68006    17.021061   -730.49783   -713.47677    54274.122     6421.512    31043.826    125357.03    15.687195    13.585452    25.248595    5380.9207 
 9958500     9958.496    413.97252    17.283778   -730.75476   -713.47098    54806.652    8934.2805     33962.19    121523.49    15.687236    13.585487     25.24842    5380.9113 
 9959000     9958.996    411.67127    17.187698   -730.65218   -713.46448    54259.164    870.69494    37433.805    124472.99    15.687276    13.585522    25.248245    5380.9018 
 9959500     9959.496    402.46098    16.803159   -730.25992   -713.45676    53845.395   -995.67499    33770.773    128761.09    15.687317    13.585557     25.24807    5380.8923 
 9960000     9959.996    400.20085    16.708796   -730.15824   -713.44944    54613.406    5825.8895    31866.603    126147.72    15.687357    13.585592    25.247895    5380.8828 
 9960500     9960.496    406.69232    16.979822   -730.42545   -713.44563    54680.624    10745.833    31439.535     121856.5    15.687398    13.585627     25.24772    5380.8733 
 9961000     9960.996    411.16774    17.166675   -730.60443   -713.43776    54274.257    8395.8753    29167.054    125259.84    15.687438    13.585662    25.247545    5380.8639 
 9961500     9961.496    418.76393    17.483824   -730.91564   -713.43182    54259.828    7983.9278    29206.062     125589.5    15.687479    13.585697    25.247371    5380.8544 
 9962000     9961.996    392.13791     16.37216   -729.79469   -713.42253    54082.255    6177.7332    29149.132     126919.9    15.687519    13.585732    25.247196    5380.8449 
 9962500     9962.496    389.82401    16.275553   -729.69242   -713.41687    54528.085    9346.7239    30550.917    123686.61     15.68756    13.585767    25.247021    5380.8354 
 9963000     9962.996    387.21426    16.166593   -729.57782   -713.41123    54282.288    4377.1333     30077.08    128392.65      15.6876    13.585803    25.246846     5380.826 
 9963500     9963.496    407.70402    17.022061   -730.42739   -713.40533    54401.792    7065.0287     29453.67    126686.68    15.687641    13.585838    25.246671    5380.8165 
 9964000     9963.996    407.37997    17.008532   -730.40675   -713.39822    54525.094    12390.111     28148.16    123037.01    15.687682    13.585873    25.246496     5380.807 
 9964500     9964.496    395.39602     16.50819     -729.899   -713.39081    54931.614    10253.507    27766.509    126774.83    15.687722    13.585908    25.246321    5380.7975 
 9965000     9964.996    386.44144    16.134327    -729.5186   -713.38428    55463.556    7835.1329    33061.315    125494.22    15.687763    13.585943    25.246146     5380.788 
 9965500     9965.496    405.51614    16.930715   -730.31075   -713.38004    55033.369    11787.026    30071.747    123241.33    15.687803    13.585978    25.245971    5380.7786 
 9966000     9965.996    401.41876    16.759645   -730.13267   -713.37303    54831.928    7529.5133     33428.77     123537.5    15.687844    13.586013    25.245796    5380.7691 
 9966500     9966.496    389.79892    16.274505   -729.64064   -713.36613    54636.964    5125.7746    31385.517     127399.6    15.687884    13.586048    25.245621    5380.7596 
 9967000     9966.996    380.24648    15.875681   -729.23446   -713.35878    55430.235    7049.0312    33115.827    126125.85    15.687925    13.586083    25.245446    5380.7501 
 9967500     9967.496    405.36415    16.924369   -730.27952   -713.35515    54396.361    8784.5502    30517.744    123886.79    15.687965    13.586118    25.245271    5380.7406 
 9968000     9967.996    387.48851    16.178043   -729.52378   -713.34574    55202.221    9342.4017    28761.801    127502.46    15.688006    13.586154    25.245097    5380.7311 
 9968500     9968.496    401.77531    16.774532   -730.11438   -713.33984    54550.582    6783.2697     28436.63    128431.84    15.688046    13.586189    25.244922    5380.7217 
 9969000     9968.996    391.29997    16.337176   -729.67214   -713.33497    54201.304    4357.8474    28479.687    129766.38    15.688087    13.586224    25.244747    5380.7122 
 9969500     9969.496    408.13083    17.039881   -730.36842   -713.32854    54327.868    7914.1137    32324.119    122745.37    15.688127    13.586259    25.244572    5380.7027 
 9970000     9969.996    404.92873     16.90619   -730.22999   -713.32379    54179.081    4406.3066    30430.759    127700.18    15.688168    13.586294    25.244397    5380.6932 
 9970500     9970.496    392.72421    16.396639   -729.71327   -713.31663    55136.618    7019.4587     31101.93    127288.47    15.688208    13.586329    25.244222    5380.6837 
 9971000     9970.996    397.54798    16.598036   -729.90912   -713.31108    55001.576    9992.1289    30378.047    124634.55    15.688249    13.586364    25.244047    5380.6743 
 9971500     9971.496    390.06262    16.285515   -729.58848   -713.30296    54269.918    4899.0303    28798.521     129112.2    15.688289    13.586399    25.243872    5380.6648 
 9972000     9971.996    402.99335    16.825386    -730.1219   -713.29652    54558.051    4805.7644    30225.685     128642.7     15.68833    13.586434    25.243697    5380.6553 
 9972500     9972.496    421.73795    17.607993   -730.90038   -713.29238    54575.878    8072.3304    32203.463    123451.84    15.688371    13.586469    25.243522    5380.6458 
 9973000     9972.996    416.01139    17.368903   -730.65712   -713.28822    54879.834    4116.8032     37239.12    123283.58    15.688411    13.586504    25.243347    5380.6363 
 9973500     9973.496    412.22267     17.21072    -730.4912   -713.28048    54141.469    3999.0218     33606.66    124818.72    15.688452     13.58654    25.243172    5380.6268 
 9974000     9973.996    408.12005    17.039431   -730.31375   -713.27432    54772.318    6269.4372    32490.423    125557.09    15.688492    13.586575    25.242997    5380.6173 
 9974500     9974.496    381.28962    15.919233   -729.18838   -713.26914    54976.486    3964.4679    33727.553    127237.44    15.688533     13.58661    25.242823    5380.6079 
 9975000     9974.996    393.84599    16.443474    -729.7049   -713.26142    55133.722     8592.742    35107.719    121700.71    15.688573    13.586645    25.242648    5380.5984 
 9975500     9975.496    396.40283    16.550225   -729.80724   -713.25701    54590.481    7774.1529    30965.154    125032.14    15.688614     13.58668    25.242473    5380.5889 
 9976000     9975.996    404.50704    16.888584   -730.13973   -713.25115    54818.279    7920.4293    33485.291    123049.12    15.688654    13.586715    25.242298    5380.5794 
 9976500     9976.496    375.46282    15.675958   -728.92068   -713.24472    55222.374    7669.5044    30469.341    127528.28    15.688695     13.58675    25.242123    5380.5699 
 9977000     9976.996    381.83969    15.942199   -729.18063   -713.23844    55242.897    7567.0415    31204.763    126956.89    15.688735    13.586785    25.241948    5380.5604 
 9977500     9977.496    401.01471    16.742776   -729.97706   -713.23428    54422.742    3523.4564    32381.419    127363.35    15.688776     13.58682    25.241773    5380.5509 
 9978000     9977.996    412.73068     17.23193   -730.46076   -713.22883      55024.2    7093.8007    33839.368    124139.43    15.688816    13.586855    25.241598    5380.5414 
 9978500     9978.496    384.46276    16.051715   -729.27329   -713.22158    54796.581    9563.9434    30334.788    124491.01    15.688857    13.586891    25.241423     5380.532 
 9979000     9978.996    386.65257    16.143142   -729.35788   -713.21473    54164.935     8161.052    25015.607    129318.14    15.688897    13.586926    25.241248    5380.5225 
 9979500     9979.496    400.58169    16.724697   -729.93643   -713.21173    54689.363    4903.6821    29794.302     129370.1    15.688938    13.586961    25.241073     5380.513 
 9980000     9979.996    389.81751    16.275281   -729.47994   -713.20466    55205.925      7483.71    33584.597    124549.47    15.688978    13.586996    25.240898    5380.5035 
 9980500     9980.496    382.59629    15.973788   -729.17266   -713.19887    54712.502    4358.7191     28504.39     131274.4    15.689019    13.587031    25.240723     5380.494 
 9981000     9980.996    399.47461    16.678475    -729.8742   -713.19572    55282.487    7734.7729    34106.462    124006.23     15.68906    13.587066    25.240549    5380.4845 
 9981500     9981.496    408.57603    17.058469   -730.24702   -713.18855     54458.71    683.93823    33639.852    129052.34      15.6891    13.587101    25.240374     5380.475 
 9982000     9981.996    404.85722    16.903205   -730.08667   -713.18346    54630.996    3556.1256    30118.465     130218.4    15.689141    13.587136    25.240199    5380.4655 
 9982500     9982.496    405.97246    16.949767    -730.1294   -713.17963    54692.447    5131.7272     32173.43    126772.18    15.689181    13.587171    25.240024     5380.456 
 9983000     9982.996    382.89079    15.986084   -729.15717   -713.17109    55282.103    10321.518     31635.81    123888.98    15.689222    13.587206    25.239849    5380.4465 
 9983500     9983.496    406.91938    16.989302   -730.15741   -713.16811    54529.132    7453.6803     29784.71    126349.01    15.689262    13.587242    25.239674    5380.4371 
 9984000     9983.996    410.27998     17.12961   -730.29368   -713.16407    54674.055    8329.9442    30626.035    125066.19    15.689303    13.587277    25.239499    5380.4276 
 9984500     9984.496    406.28347    16.962752   -730.12077   -713.15802    54540.093    7815.1579    28176.808    127628.31    15.689343    13.587312    25.239324    5380.4181 
 9985000     9984.996    401.17865    16.749621   -729.90277   -713.15315    55562.328    12646.537     33152.67    120887.78    15.689384    13.587347    25.239149    5380.4086 
 9985500     9985.496    406.24582     16.96118   -730.10721   -713.14603    54515.117     8590.323    29686.672    125268.35    15.689424    13.587382    25.238974    5380.3991 
 9986000     9985.996    425.42137    17.761779   -730.90445   -713.14267    55061.834    10187.344    32643.549    122354.61    15.689465    13.587417    25.238799    5380.3896 
 9986500     9986.496    403.48169    16.845775   -729.98205   -713.13628    54961.252    13387.463    28698.242    122798.05    15.689505    13.587452    25.238624    5380.3801 
 9987000     9986.996    403.54389    16.848372   -729.97812   -713.12975    54837.879    6895.8415    30255.213    127362.58    15.689546    13.587487    25.238449    5380.3706 
 9987500     9987.496    413.82351    17.277556   -730.40237   -713.12481    54639.366    8139.7369    29921.762     125856.6    15.689586    13.587522    25.238274    5380.3611 
 9988000     9987.996      429.403    17.928016   -731.04804   -713.12003    54205.511    5044.9066    31208.871    126362.75    15.689627    13.587557      25.2381    5380.3516 
 9988500     9988.496    394.02506    16.450951   -729.56525    -713.1143    55250.099    7012.3504    31259.764    127478.18    15.689667    13.587592    25.237925    5380.3421 
 9989000     9988.996    399.70965    16.688288   -729.79774   -713.10946    55209.113    5053.5503    32944.303    127629.49    15.689708    13.587628     25.23775    5380.3326 
 9989500     9989.496    390.96947    16.323377   -729.42682   -713.10344    55324.074    9141.0981    33891.472    122939.65    15.689749    13.587663    25.237575    5380.3231 
 9990000     9989.996      407.343    17.006989   -730.10768   -713.10069    53994.696    -1121.126    33130.922    129974.29    15.689789    13.587698      25.2374    5380.3136 
 9990500     9990.496     411.0843    17.163192    -730.2576    -713.0944    55326.717    10240.374    31388.495    124351.28     15.68983    13.587733    25.237225    5380.3041 
 9991000     9990.996    394.65078    16.477075   -729.56534   -713.08826    55407.516    6058.1196    33891.587    126272.84     15.68987    13.587768     25.23705    5380.2946 
 9991500     9991.496    385.97848    16.114998   -729.19693   -713.08193    55065.483    6401.0314    29013.177    129782.24    15.689911    13.587803    25.236875    5380.2851 
 9992000     9991.996    398.96758    16.657306   -729.73588   -713.07857    54537.111    62.294926    33409.227    130139.81    15.689951    13.587838      25.2367    5380.2756 
 9992500     9992.496    406.84399    16.986155   -730.05824   -713.07208    54732.788    6353.1935    31126.012    126719.16    15.689992    13.587873    25.236525    5380.2662 
 9993000     9992.996    406.19927    16.959237   -730.02664    -713.0674    55247.057    10381.282    29936.413    125423.48    15.690032    13.587908     25.23635    5380.2567 
 9993500     9993.496    412.00678    17.201706   -730.26679   -713.06509    55184.861    11326.221    30010.501    124217.86    15.690073    13.587943    25.236175    5380.2472 
 9994000     9993.996    399.39925    16.675329   -729.73372    -713.0584    54421.227    9259.6415    27256.208    126747.83    15.690113    13.587979       25.236    5380.2377 
 9994500     9994.496    384.93307    16.071351   -729.12352   -713.05216    54608.634    3739.3723    31549.233     128537.3    15.690154    13.588014    25.235826    5380.2282 
 9995000     9994.996    412.56121    17.224854   -730.27417   -713.04932    55050.471    8856.4638    34471.747     121823.2    15.690194    13.588049    25.235651    5380.2187 
 9995500     9995.496     411.4561    17.178715   -730.22335   -713.04463    54416.309     7625.694    30286.281    125336.95    15.690235    13.588084    25.235476    5380.2092 
 9996000     9995.996    424.97376    17.743091   -730.78245   -713.03936    54340.825    10511.628     29215.92    123294.93    15.690275    13.588119    25.235301    5380.1997 
 9996500     9996.496    393.69692    16.437251   -729.47062   -713.03337    54925.797    6511.1327    30108.585    128157.67    15.690316    13.588154    25.235126    5380.1902 
 9997000     9996.996     405.2485    16.919541   -729.94939   -713.02984    55004.345    7483.5389    28152.243    129377.25    15.690356    13.588189    25.234951    5380.1807 
 9997500     9997.496    412.04662    17.203369   -730.22841   -713.02504    54982.621    8430.2424    32385.759    124131.86    15.690397    13.588224    25.234776    5380.1712 
 9998000     9997.996    399.83111     16.69336   -729.71241   -713.01905    54911.518    7555.3207     30757.28    126421.95    15.690438    13.588259    25.234601    5380.1617 
 9998500     9998.496    411.23594    17.169523   -730.18443    -713.0149    54461.793    9263.5355    30901.379    123220.46    15.690478    13.588294    25.234426    5380.1522 
 9999000     9998.996     389.8238    16.275544   -729.28493   -713.00938    55468.629     10053.98    32895.513    123456.39    15.690519     13.58833    25.234251    5380.1427 
 9999500     9999.496    390.12066    16.287938    -729.2916   -713.00366     54871.72    5561.7547    30206.056    128847.35    15.690559    13.588365    25.234076    5380.1332 
10000000     9999.996    403.96531    16.865967   -729.86759   -713.00162    55033.092    4285.7643    33772.002    127041.51      15.6906      13.5884    25.233901    5380.1237 
10000004        10000    401.42341     16.75984   -729.76172   -713.00188    55145.087    4691.4713    34433.724    126310.07      15.6906      13.5884      25.2339    5380.1236 
Loop time of 41678.4 on 8 procs for 10000000 steps with 324 atoms

Performance: 20.730 ns/day, 1.158 hours/ns, 239.932 timesteps/s
99.9% CPU use with 8 MPI tasks x no OpenMP threads

MPI task timing breakdown:
Section |  min time  |  avg time  |  max time  |%varavg| %total
---------------------------------------------------------------
Pair    | 38645      | 39326      | 40309      | 302.8 | 94.36
Neigh   | 0.0085235  | 0.0092     | 0.0099025  |   0.5 |  0.00
Comm    | 1065.1     | 2067.6     | 2774.7     |1322.2 |  4.96
Output  | 1.2048     | 1.3411     | 2.118      |  25.4 |  0.00
Modify  | 132.44     | 163.96     | 197.09     | 223.7 |  0.39
Other   |            | 119.5      |            |       |  0.29

Nlocal:    40.5 ave 45 max 36 min
Histogram: 2 0 0 2 0 0 2 0 0 2
Nghost:    1081.38 ave 1110 max 1046 min
Histogram: 1 1 1 0 1 0 0 1 2 1
Neighs:    2670.5 ave 2985 max 2368 min
Histogram: 2 0 1 1 0 0 2 0 0 2
FullNghs:  5341 ave 5965 max 4730 min
Histogram: 2 0 0 2 0 0 2 0 0 2

Total # of neighbors = 42728
Ave neighs/atom = 131.877
Neighbor list builds = 28
Dangerous builds = 0

write_restart   POSCAR_1x1x1.rest

#unfix    1
#undump   1
Total wall time: 11:34:38
