LAMMPS (7 Dec 2015)
#----------- Initialize Simulation ------------ restart01
#processors	2 2 2
units		metal
boundary	p p p     ## periodic boundary condition  on x y z axis ##
atom_style atomic
#atom_modify map array sort 0 0.0

read_data	POSCAR_1x1x1.lammps
  triclinic box = (0 0 0) to (15.2149 13.1765 28.7324) with tilt (-7.60743 0 0)
  2 by 2 by 7 MPI processor grid
  reading atoms ...
  324 atoms

#----------- Define Potential -----------------
pair_style meam
pair_coeff * * MgAlZn.library.meam Mg Al Zn MgAlZn.parameter.meam Mg Al Zn 	#1=Mg 2=Al 3=Zn	#atoms/mass

#----------- Neighbor List --------------------
neighbor 2.0 bin
neigh_modify delay 10 check yes

#--------------  Run a simulation (minimization) ---------------------------------------
minimize       1.0e-4   1.0e-6   100   1000          #結構優化的條件
WARNING: Resetting reneighboring criteria during minimization (../min.cpp:168)
Neighbor list info ...
  2 neighbor list requests
  update every 1 steps, delay 0 steps, check yes
  max neighbors/atom: 2000, page size: 100000
  master list distance cutoff = 8
  ghost atom cutoff = 8
  binsize = 4 -> bins = 6 4 8
Memory usage per processor = 8.65061 Mbytes
Step Temp E_pair E_mol TotEng Press 
       0            0   -673.24504            0   -673.24504    21116.585 
      20            0   -689.19769            0   -689.19769    19988.592 
Loop time of 0.0363117 on 28 procs for 20 steps with 324 atoms

89.1% CPU use with 28 MPI tasks x no OpenMP threads

Minimization stats:
  Stopping criterion = energy tolerance
  Energy initial, next-to-last, final = 
        -673.245043741     -689.140310816     -689.197686556
  Force two-norm initial, final = 23.5585 1.84949
  Force max component initial, final = 3.34888 0.458671
  Final line search alpha, max atom move = 0.147971 0.0678702
  Iterations, force evaluations = 20 37

MPI task timing breakdown:
Section |  min time  |  avg time  |  max time  |%varavg| %total
---------------------------------------------------------------
Pair    | 0.027415   | 0.030303   | 0.033352   |   0.9 | 83.45
Neigh   | 0          | 0          | 0          |   0.0 |  0.00
Comm    | 0.0019276  | 0.0049107  | 0.0077443  |   2.2 | 13.52
Output  | 0          | 0          | 0          |   0.0 |  0.00
Modify  | 0          | 0          | 0          |   0.0 |  0.00
Other   |            | 0.001098   |            |       |  3.02

Nlocal:    11.5714 ave 15 max 6 min
Histogram: 2 2 2 1 1 3 5 3 4 5
Nghost:    648.25 ave 700 max 601 min
Histogram: 5 0 6 3 0 4 1 2 4 3
Neighs:    723.107 ave 984 max 380 min
Histogram: 3 2 1 2 1 6 3 1 5 4
FullNghs:  1446.21 ave 1863 max 742 min
Histogram: 2 2 2 1 1 3 4 3 3 7

Total # of neighbors = 40494
Ave neighs/atom = 124.981
Neighbor list builds = 0
Dangerous builds = 0
velocity all  create 393.0 4928459 #rot yes dist gaussian

#--------------  Run a simulation (Relaxation)  ----------------------------------------
fix  1  all  nvt   temp  393.0  393.0  100				#damping constant
#fix  2  all  npt   temp  393.0  393.0  50 iso 0.0 0.0 1000.0
#fix  2  all deform 1 x final 0 15.6906 y final 0 13.5884 z final 0 25.2339 xy final -7.8452 units lattice
#fix  3  all  npt   temp  393.0  393.0  50 z 0.0 0.0 1000.0

#variable b equal 1
#fix 2 all efield  0.0  0.0  v_b
#compute pot all pe/atom


#----------- Output --------------------------
thermo	 500
timestep  0.001		#1.0 fs
thermo_style	custom step time temp ke pe etotal press pxx pyy pzz lx ly lz vol

dump 1 all custom 10000 dump.eq id type x y z
dump_modify 1 sort  id

run        1000000	#10000	 ps
Neighbor list info ...
  2 neighbor list requests
  update every 1 steps, delay 10 steps, check yes
  max neighbors/atom: 2000, page size: 100000
  master list distance cutoff = 8
  ghost atom cutoff = 8
  binsize = 4 -> bins = 6 4 8
Memory usage per processor = 7.54108 Mbytes
Step Time Temp KinEng PotEng TotEng Press Pxx Pyy Pzz Lx Ly Lz Volume 
      20            0          393    16.408154   -689.19769   -672.78953    23031.142    40290.696    41346.266   -12543.536      15.2149      13.1765      28.7324    5760.2466 
     500         0.48    219.93645    9.1825726   -681.96704   -672.78446    24406.975    46446.469    43746.232   -16971.777      15.2149      13.1765      28.7324    5760.2466 
    1000         0.98    215.86466    9.0125713     -681.796   -672.78342    22601.891    44556.494    43929.351   -20680.173      15.2149      13.1765      28.7324    5760.2466 
    1500         1.48    213.32332    8.9064676   -681.68878   -672.78232    24578.297    44759.617    44392.111   -15416.838      15.2149      13.1765      28.7324    5760.2466 
    2000         1.98    208.81015    8.7180384   -681.49961   -672.78157    21670.403    42740.062    42699.404   -20428.256      15.2149      13.1765      28.7324    5760.2466 
    2500         2.48    222.40807    9.2857653   -682.06719   -672.78142    22657.449    43182.272    45944.282   -21154.209      15.2149      13.1765      28.7324    5760.2466 
    3000         2.98    219.89916    9.1810156   -681.96102   -672.78001    24299.105    44981.875      46586.3    -18670.86      15.2149      13.1765      28.7324    5760.2466 
    3500         3.48     212.9448    8.8906639   -681.66894   -672.77828    22347.432    42525.071    45392.906    -20875.68      15.2149      13.1765      28.7324    5760.2466 
    4000         3.98    231.90372    9.6822183    -682.4596   -672.77738    24311.874    41729.103    46414.131   -15207.614      15.2149      13.1765      28.7324    5760.2466 
    4500         4.48    228.69384    9.5482027   -682.32428   -672.77608    22743.772    43763.856    43914.971   -19447.511      15.2149      13.1765      28.7324    5760.2466 
    5000         4.98    208.09314    8.6881021   -681.46161    -672.7735    21299.152    41758.842    43515.295    -21376.68      15.2149      13.1765      28.7324    5760.2466 
    5500         5.48    220.14834    9.1914191   -681.96312    -672.7717    23413.268    45525.038    44443.008   -19728.242      15.2149      13.1765      28.7324    5760.2466 
    6000         5.98    217.78281     9.092656    -681.8624   -672.76974    22009.826    45918.806    41575.822   -21465.151      15.2149      13.1765      28.7324    5760.2466 
    6500         6.48      208.735    8.7149004    -681.4812    -672.7663    22375.179    45240.294    43412.348   -21527.105      15.2149      13.1765      28.7324    5760.2466 
    7000         6.98    228.22717    9.5287189   -682.29307   -672.76435    24241.317    45439.255    46299.948   -19015.251      15.2149      13.1765      28.7324    5760.2466 
    7500         7.48    214.33366    8.9486505   -681.70957   -672.76092    22861.461    46181.836    44657.507   -22254.959      15.2149      13.1765      28.7324    5760.2466 
    8000         7.98    202.28678    8.4456809   -681.20259   -672.75691    22517.155    42923.686    45327.446   -20699.666      15.2149      13.1765      28.7324    5760.2466 
    8500         8.48    225.14215    9.3999161    -682.1553   -672.75539    23740.591    47711.166    45156.178   -21645.572      15.2149      13.1765      28.7324    5760.2466 
    9000         8.98    223.86301    9.3465103   -682.09811    -672.7516    22299.274    42732.459    44298.257   -20132.895      15.2149      13.1765      28.7324    5760.2466 
    9500         9.48    227.52522    9.4994116   -682.24689   -672.74748    22335.905    43561.139    44811.525   -21364.948      15.2149      13.1765      28.7324    5760.2466 
   10000         9.98    215.98024    9.0173967    -681.7603   -672.74291     23142.81    45095.328    49181.786   -24848.684      15.2149      13.1765      28.7324    5760.2466 
   10500        10.48    223.84276     9.345665   -682.08459   -672.73893    22570.427    46538.047     45144.13   -23970.897      15.2149      13.1765      28.7324    5760.2466 
   11000        10.98    217.84713    9.0953413   -681.82962   -672.73428    22560.226    42928.826     44934.97   -20183.117      15.2149      13.1765      28.7324    5760.2466 
   11500        11.48    219.46266    9.1627915   -681.89321   -672.73042    23970.919    45832.974    45173.328   -19093.544      15.2149      13.1765      28.7324    5760.2466 
   12000        11.98    213.99047    8.9343221   -681.65909   -672.72477    23063.992    44801.856    46220.928   -21830.809      15.2149      13.1765      28.7324    5760.2466 
   12500        12.48    235.66828    9.8393927   -682.56092   -672.72153    22993.943    44269.183    44131.728   -19419.081      15.2149      13.1765      28.7324    5760.2466 
   13000        12.98    215.33653    8.9905212   -681.70579   -672.71527    21837.017    43918.249    42313.181   -20720.379      15.2149      13.1765      28.7324    5760.2466 
   13500        13.48     211.5503    8.8324421   -681.54223   -672.70979    24761.805     47493.69    46361.635   -19569.909      15.2149      13.1765      28.7324    5760.2466 
   14000        13.98    228.02389    9.5202316   -682.22466   -672.70443    22743.316    43345.511    45663.063   -20778.626      15.2149      13.1765      28.7324    5760.2466 
   14500        14.48    221.86967    9.2632867   -681.96163   -672.69835    23759.128    43879.729    45544.148   -18146.493      15.2149      13.1765      28.7324    5760.2466 
   15000        14.98    209.65728    8.7534066   -681.44556   -672.69215    21953.199     45297.58    45041.599   -24479.583      15.2149      13.1765      28.7324    5760.2466 
   15500        15.48    219.35394    9.1582523    -681.8438   -672.68555    21964.591    40101.485    44524.094   -18731.808      15.2149      13.1765      28.7324    5760.2466 
   16000        15.98     232.0868    9.6898624   -682.36972   -672.67986    24118.631    45003.152     46391.29   -19038.551      15.2149      13.1765      28.7324    5760.2466 
   16500        16.48    217.11753    9.0648798   -681.73868    -672.6738    22041.635    45959.618    43980.772   -23815.486      15.2149      13.1765      28.7324    5760.2466 
   17000        16.98    215.75869    9.0081467   -681.67439   -672.66625    24063.875    43017.776    46850.708   -17676.858      15.2149      13.1765      28.7324    5760.2466 
   17500        17.48     217.1224    9.0650833    -681.7245   -672.65941    22631.153    43850.264    43351.739   -19308.543      15.2149      13.1765      28.7324    5760.2466 
   18000        17.98    217.47083    9.0796304   -681.73158   -672.65195    23611.476    46736.377    45060.634   -20962.584      15.2149      13.1765      28.7324    5760.2466 
   18500        18.48    220.95846    9.2252427   -681.87003   -672.64479    23948.386    47165.467    44573.107   -19893.417      15.2149      13.1765      28.7324    5760.2466 
   19000        18.98    221.77844    9.2594777   -681.89641   -672.63693    23256.447    46141.977     44245.94   -20618.577      15.2149      13.1765      28.7324    5760.2466 
   19500        19.48    229.57568    9.5850204   -682.21453   -672.62951    24020.152    43351.951    44311.204     -15602.7      15.2149      13.1765      28.7324    5760.2466 
   20000        19.98    221.05937    9.2294556   -681.85048   -672.62103    22965.267    44294.287    43172.317   -18570.803      15.2149      13.1765      28.7324    5760.2466 
   20500        20.48    221.64588    9.2539429   -681.86715   -672.61321    23819.276     45906.27    42802.296   -17250.739      15.2149      13.1765      28.7324    5760.2466 
   21000        20.98     234.6882    9.7984733   -682.40371   -672.60524    23422.288    46840.815    42863.825   -19437.775      15.2149      13.1765      28.7324    5760.2466 
   21500        21.48    224.01249    9.3527514   -681.94887   -672.59612    23504.941    43821.948    46473.174     -19780.3      15.2149      13.1765      28.7324    5760.2466 
   22000        21.98    221.97395    9.2676402   -681.85542   -672.58778    23299.256    45127.933    44255.009   -19485.176      15.2149      13.1765      28.7324    5760.2466 
   22500        22.48    217.79798    9.0932894    -681.6713   -672.57801    23068.059    43463.502    45845.911   -20105.236      15.2149      13.1765      28.7324    5760.2466 
   23000        22.98    226.82237    9.4700667   -682.03954   -672.56948    22379.652    43029.933    44826.477   -20717.455      15.2149      13.1765      28.7324    5760.2466 
   23500        23.48    226.69343    9.4646837   -682.02463   -672.55995    23152.276    42550.166    45425.401   -18518.739      15.2149      13.1765      28.7324    5760.2466 
   24000        23.98    231.51219    9.6658715   -682.21643   -672.55056    22017.497    46105.129    44225.273   -24277.911      15.2149      13.1765      28.7324    5760.2466 
   24500        24.48    230.50025    9.6236223   -682.16531   -672.54168    23922.072    45265.325    45132.828   -18631.938      15.2149      13.1765      28.7324    5760.2466 
   25000        24.98    225.25454    9.4046082   -681.93561     -672.531    23085.556    45105.221    44538.247     -20386.8      15.2149      13.1765      28.7324    5760.2466 
   25500        25.48    226.45492    9.4547253   -681.97574   -672.52101    22585.382    44315.745    46506.305   -23065.905      15.2149      13.1765      28.7324    5760.2466 
   26000        25.98    230.70037    9.6319772   -682.14259   -672.51061    22174.658    43027.302    44297.053   -20800.381      15.2149      13.1765      28.7324    5760.2466 
   26500        26.48    217.20881    9.0686908   -681.56875   -672.50006    23122.227    44577.785    48800.281   -24011.385      15.2149      13.1765      28.7324    5760.2466 
   27000        26.98    224.65688    9.3796556   -681.86996    -672.4903    22288.461    46203.143     43727.97    -23065.73      15.2149      13.1765      28.7324    5760.2466 
   27500        27.48    215.85415    9.0121323   -681.49108   -672.47895    23016.826    45587.222     46765.14   -23301.883      15.2149      13.1765      28.7324    5760.2466 
   28000        27.98    219.10642    9.1479179   -681.61699   -672.46907    22627.651    43424.557    42299.358   -17840.962      15.2149      13.1765      28.7324    5760.2466 
   28500        28.48    229.71274    9.5907429   -682.04903   -672.45829      22840.6    42613.671    47599.511   -21691.382      15.2149      13.1765      28.7324    5760.2466 
   29000        28.98    219.50963    9.1647523   -681.61131   -672.44656    24260.515    46558.585     44890.36   -18667.399      15.2149      13.1765      28.7324    5760.2466 
   29500        29.48    220.09656    9.1892575   -681.62423   -672.43498    22812.665    44655.553    45544.994   -21762.553      15.2149      13.1765      28.7324    5760.2466 
   30000        29.98    218.60307    9.1269027   -681.55016   -672.42325    21616.649    41116.672    44356.987   -20623.713      15.2149      13.1765      28.7324    5760.2466 
   30500        30.48     225.1228    9.3991082   -681.81153   -672.41242    23691.059    42879.488    45657.177   -17463.487      15.2149      13.1765      28.7324    5760.2466 
   31000        30.98    221.53002    9.2491056   -681.64996   -672.40085    22741.247    44309.629    46991.501    -23077.39      15.2149      13.1765      28.7324    5760.2466 
   31500        31.48    219.86925    9.1797669   -681.56897    -672.3892    23252.742    41694.606    47005.559   -18941.937      15.2149      13.1765      28.7324    5760.2466 
   32000        31.98    217.97582    9.1007145   -681.47768   -672.37697    23201.897     45156.45    42845.627   -18396.387      15.2149      13.1765      28.7324    5760.2466 
   32500        32.48    223.59471    9.3353089   -681.70092   -672.36561    23533.543    43969.545    46276.313   -19645.229      15.2149      13.1765      28.7324    5760.2466 
   33000        32.98    217.61965     9.085844   -681.43774    -672.3519    23630.221    43627.923    44382.847   -17120.106      15.2149      13.1765      28.7324    5760.2466 
   33500        33.48    218.05165    9.1038802   -681.44384   -672.33996    23288.366    44868.766    44443.892   -19447.559      15.2149      13.1765      28.7324    5760.2466 
   34000        33.98    235.37633    9.8272033   -682.15587   -672.32866    21970.984    40184.239    44331.454   -18602.741      15.2149      13.1765      28.7324    5760.2466 
   34500        34.48    226.58988      9.46036   -681.77661   -672.31625    22347.034    45496.881     43832.57    -22288.35      15.2149      13.1765      28.7324    5760.2466 
   35000        34.98    239.26136    9.9894076   -682.29335   -672.30394    23985.891    44264.972    48079.964   -20387.263      15.2149      13.1765      28.7324    5760.2466 
   35500        35.48    211.60256    8.8346244   -681.12491   -672.29028    23385.288    43614.483    45800.509   -19259.129      15.2149      13.1765      28.7324    5760.2466 
   36000        35.98     226.0895    9.4394686   -681.71839   -672.27892    22569.541    45113.245    45146.414   -22551.034      15.2149      13.1765      28.7324    5760.2466 
   36500        36.48    219.88995    9.1806313   -681.44628   -672.26565    23053.475    45032.763    46311.486   -22183.823      15.2149      13.1765      28.7324    5760.2466 
   37000        36.98    225.09109    9.3977843   -681.65098   -672.25319    22351.439    45108.442    44823.857   -22877.983      15.2149      13.1765      28.7324    5760.2466 
   37500        37.48    227.16405    9.4843322   -681.72455   -672.24022    23183.481    45725.269    44019.104   -20193.928      15.2149      13.1765      28.7324    5760.2466 
   38000        37.98    224.59374    9.3770194   -681.60398   -672.22696     25068.31    44045.484    47994.763   -16835.318      15.2149      13.1765      28.7324    5760.2466 
   38500        38.48    234.61812    9.7955475   -682.00986   -672.21432    22692.147    46470.949    45070.274   -23464.783      15.2149      13.1765      28.7324    5760.2466 
   39000        38.98    225.83489    9.4288384   -681.62999   -672.20115    22021.585    41890.348    45340.108   -21165.702      15.2149      13.1765      28.7324    5760.2466 
   39500        39.48    227.91438    9.5156594   -681.70411   -672.18845    24481.781    43256.957    44640.909   -14452.521      15.2149      13.1765      28.7324    5760.2466 
   40000        39.98    220.75725    9.2168419   -681.39154    -672.1747    22753.138    44359.155     44008.56   -20108.302      15.2149      13.1765      28.7324    5760.2466 
   40500        40.48    237.93206    9.9339077   -682.09666   -672.16275    23593.041    45929.842    45376.275   -20526.995      15.2149      13.1765      28.7324    5760.2466 
   41000        40.98    240.56885    10.043996   -682.19347   -672.14947    23555.641    42817.151     44768.14   -16918.368      15.2149      13.1765      28.7324    5760.2466 
   41500        41.48    223.15436    9.3169235   -681.45226   -672.13534    23752.517    45460.987    41846.174   -16049.609      15.2149      13.1765      28.7324    5760.2466 
   42000        41.98     231.9695    9.6849649   -681.80833   -672.12337    25103.414    46949.714    45728.195   -17367.667      15.2149      13.1765      28.7324    5760.2466 
   42500        42.48    228.23303    9.5289632   -681.63778   -672.10881    23862.177    45675.836    48335.158   -22424.462      15.2149      13.1765      28.7324    5760.2466 
   43000        42.98    229.00552    9.5612156   -681.65698   -672.09576    24342.217    47567.328    48105.421   -22646.098      15.2149      13.1765      28.7324    5760.2466 
   43500        43.48      237.693    9.9239266   -682.00703    -672.0831    26390.445    48108.105    47822.334   -16759.104      15.2149      13.1765      28.7324    5760.2466 
   44000        43.98    221.80901    9.2607539   -681.33082   -672.07006    23219.196    44601.756    43663.652    -18607.82      15.2149      13.1765      28.7324    5760.2466 
   44500        44.48     233.6409    9.7547473   -681.81197   -672.05722    22521.494    45808.853    43409.129   -21653.499      15.2149      13.1765      28.7324    5760.2466 
   45000        44.98     222.4194    9.2862384   -681.33038   -672.04414    24324.442     44632.45    46564.951   -18224.076      15.2149      13.1765      28.7324    5760.2466 
   45500        45.48    231.14553    9.6505631   -681.68178   -672.03122     22657.72    44243.859    43548.491    -19819.19      15.2149      13.1765      28.7324    5760.2466 
   46000        45.98    232.27713    9.6978088   -681.71603   -672.01822    22185.805    44916.711    46977.289   -25336.586      15.2149      13.1765      28.7324    5760.2466 
   46500        46.48    238.47234    9.9564651   -681.96231   -672.00585    22809.166    42379.959    46925.332   -20877.792      15.2149      13.1765      28.7324    5760.2466 
   47000        46.98    235.80011    9.8448969   -681.83717   -671.99228    22203.569    46584.153    43516.726   -23490.174      15.2149      13.1765      28.7324    5760.2466 
   47500        47.48    224.20961    9.3609815   -681.34045   -671.97947    24306.572     41608.78    48382.216   -17071.279      15.2149      13.1765      28.7324    5760.2466 
   48000        47.98    234.88865    9.8068422   -681.77375   -671.96691    27564.402    47542.701    50252.434    -15101.93      15.2149      13.1765      28.7324    5760.2466 
   48500        48.48     234.7404    9.8006528   -681.75502   -671.95437    23599.969    43135.442    49313.619   -21649.153      15.2149      13.1765      28.7324    5760.2466 
   49000        48.98    233.84359    9.7632099   -681.70537   -671.94216    24331.139    47269.414    44914.635   -19190.631      15.2149      13.1765      28.7324    5760.2466 
   49500        49.48    232.25482    9.6968771   -681.62565   -671.92877    23053.677    43075.239    44228.752   -18142.959      15.2149      13.1765      28.7324    5760.2466 
   50000        49.98     237.4195    9.9125081   -681.82889   -671.91638     22643.32    46088.979    45806.925   -23965.944      15.2149      13.1765      28.7324    5760.2466 
   50500        50.48    242.28422    10.115615   -682.02031   -671.90469    24182.507    43736.039      50273.3   -21461.818      15.2149      13.1765      28.7324    5760.2466 
   51000        50.98    228.73221    9.5498047   -681.44136   -671.89155    22908.838    46539.395    44984.296   -22797.177      15.2149      13.1765      28.7324    5760.2466 
   51500        51.48    222.20149    9.2771403   -681.15595   -671.87881    22135.077    43190.518    48874.133    -25659.42      15.2149      13.1765      28.7324    5760.2466 
   52000        51.98    235.96914    9.8519539   -681.71879   -671.86684    22865.064     42090.76    46441.141    -19936.71      15.2149      13.1765      28.7324    5760.2466 
   52500        52.48    246.08052    10.274114   -682.13024   -671.85613    23419.968    46275.688    43027.225   -19043.009      15.2149      13.1765      28.7324    5760.2466 
   53000        52.98    236.26364    9.8642495   -681.70712   -671.84287    23858.889     45831.25    47619.444   -21874.026      15.2149      13.1765      28.7324    5760.2466 
   53500        53.48    237.47886    9.9149863   -681.74597   -671.83099    23790.343    46794.475    43204.645   -18628.092      15.2149      13.1765      28.7324    5760.2466 
   54000        53.98    235.28955    9.8235804   -681.64266   -671.81908    21814.061     42792.77    43552.834   -20903.421      15.2149      13.1765      28.7324    5760.2466 
   54500        54.48    238.96539    9.9770504   -681.78412   -671.80707    23954.841    43627.731    44453.665   -16216.874      15.2149      13.1765      28.7324    5760.2466 
   55000        54.98     225.3731    9.4095585   -681.20444   -671.79488    23587.776    42891.006    45625.309   -17752.987      15.2149      13.1765      28.7324    5760.2466 
   55500        55.48    241.77192    10.094226   -681.87799   -671.78376    24131.984    47014.766    45448.022   -20066.837      15.2149      13.1765      28.7324    5760.2466 
   56000        55.98     232.4722    9.7059529   -681.47741   -671.77146    23654.725    45330.422    44139.595   -18505.841      15.2149      13.1765      28.7324    5760.2466 
   56500        56.48     241.7204    10.092075   -681.85237   -671.76029    24273.901    45026.996    45565.092   -17770.384      15.2149      13.1765      28.7324    5760.2466 
   57000        56.98    233.48341    9.7481721    -681.4966   -671.74843    22068.021    42873.068    42362.474   -19031.479      15.2149      13.1765      28.7324    5760.2466 
   57500        57.48    243.26048    10.156375   -681.89305   -671.73667    23219.627    48701.956    40943.701   -19986.774      15.2149      13.1765      28.7324    5760.2466 
   58000        57.98    237.15539    9.9014811   -681.62681   -671.72532    23810.824    42874.058     46849.01   -18290.597      15.2149      13.1765      28.7324    5760.2466 
   58500        58.48    229.02763    9.5621386   -681.27626   -671.71412    23666.825    44729.995    45096.951   -18826.471      15.2149      13.1765      28.7324    5760.2466 
   59000        58.98    232.29188    9.6984243   -681.40094   -671.70252     22160.17    44901.645    45661.676   -24082.811      15.2149      13.1765      28.7324    5760.2466 
   59500        59.48    231.49584     9.665189   -681.35623   -671.69104     23953.97    45236.155     47246.62   -20620.865      15.2149      13.1765      28.7324    5760.2466 
   60000        59.98    243.68498    10.174098   -681.85464   -671.68054    23725.429    43573.129    47630.882   -20027.724      15.2149      13.1765      28.7324    5760.2466 
   60500        60.48    244.28657    10.199215   -681.86838   -671.66916    23023.965    47815.525    43595.654   -22339.283      15.2149      13.1765      28.7324    5760.2466 
   61000        60.98    250.90384    10.475493   -682.13362   -671.65812    22744.767    44267.395    44711.927   -20745.022      15.2149      13.1765      28.7324    5760.2466 
   61500        61.48    242.89628    10.141169   -681.78793   -671.64676    24129.057     43333.22    45861.251     -16807.3      15.2149      13.1765      28.7324    5760.2466 
   62000        61.98    235.44578    9.8301032   -681.46644   -671.63633    22893.487    44806.464    47882.418   -24008.419      15.2149      13.1765      28.7324    5760.2466 
   62500        62.48    237.35251    9.9097109    -681.5354   -671.62569    24487.376    47120.818    46883.501    -20542.19      15.2149      13.1765      28.7324    5760.2466 
   63000        62.98    248.73071    10.384763   -681.99913   -671.61437    23536.419    45805.289    44438.315   -19634.347      15.2149      13.1765      28.7324    5760.2466 
   63500        63.48    241.01679    10.062699   -681.66576   -671.60306    22799.309    47096.024    41811.053   -20509.149      15.2149      13.1765      28.7324    5760.2466 
   64000        63.98    234.19635    9.7779381   -681.37036   -671.59242    22344.745    44852.772     43175.78   -20994.317      15.2149      13.1765      28.7324    5760.2466 
   64500        64.48    247.53158    10.334698   -681.91638   -671.58168    23540.526    43784.284    44166.731   -17329.436      15.2149      13.1765      28.7324    5760.2466 
   65000        64.98    236.91698    9.8915274   -681.46205   -671.57053    24169.717    44474.748    45980.685   -17946.281      15.2149      13.1765      28.7324    5760.2466 
   65500        65.48    240.46212     10.03954   -681.59918   -671.55964    23177.396    45845.986      47090.5   -23404.299      15.2149      13.1765      28.7324    5760.2466 
   66000        65.98    231.78746    9.6773645   -681.22659   -671.54922    22471.669    44590.336    46029.025   -23204.354      15.2149      13.1765      28.7324    5760.2466 
   66500        66.48     235.9397    9.8507249   -681.38846   -671.53773    22435.676    45178.231    46334.718   -24205.922      15.2149      13.1765      28.7324    5760.2466 
   67000        66.98    240.96504    10.060538   -681.58865   -671.52811    23170.218    46123.017    44932.681   -21545.044      15.2149      13.1765      28.7324    5760.2466 
   67500        67.48    222.53366    9.2910088   -680.80726   -671.51626    23226.933    45596.093    45996.325   -21911.621      15.2149      13.1765      28.7324    5760.2466 
   68000        67.98    232.98969    9.7275589   -681.23376   -671.50621    23022.499     43875.41    44753.166   -19561.079      15.2149      13.1765      28.7324    5760.2466 
   68500        68.48    230.34515    9.6171464   -681.11281   -671.49566    23473.237    45835.449    46361.318   -21777.057      15.2149      13.1765      28.7324    5760.2466 
   69000        68.98    232.74526    9.7173536   -681.20181   -671.48446    22323.861    45081.687    42595.358   -20705.463      15.2149      13.1765      28.7324    5760.2466 
   69500        69.48    229.30828    9.5738563   -681.04798   -671.47413    24294.745      44768.9    45849.138   -17733.803      15.2149      13.1765      28.7324    5760.2466 
   70000        69.98    244.77633    10.219663   -681.68351   -671.46384    23789.154    43413.183    45652.827   -17698.546      15.2149      13.1765      28.7324    5760.2466 
   70500        70.48    228.41157    9.5364177   -680.98961    -671.4532    23509.583    47781.191    46564.904   -23817.345      15.2149      13.1765      28.7324    5760.2466 
   71000        70.98    248.21477    10.363222   -681.80582    -671.4426    25547.223     44489.96    48393.296   -16241.587      15.2149      13.1765      28.7324    5760.2466 
   71500        71.48    229.50501    9.5820699   -681.01333   -671.43126    23073.009    44511.865    44980.894   -20273.733      15.2149      13.1765      28.7324    5760.2466 
   72000        71.98    240.90398    10.057989    -681.4793   -671.42131    25246.103    44363.589    48387.208   -17012.488      15.2149      13.1765      28.7324    5760.2466 
   72500        72.48    244.27786    10.198852   -681.60918   -671.41033    24061.354    41530.731    47576.822   -16923.491      15.2149      13.1765      28.7324    5760.2466 
   73000        72.98    245.29557    10.241342   -681.64113   -671.39979    23662.483    43297.728    46236.233   -18546.511      15.2149      13.1765      28.7324    5760.2466 
   73500        73.48    230.91733    9.6410355    -681.0301   -671.38906    25294.409    43823.269    47734.489    -15674.53      15.2149      13.1765      28.7324    5760.2466 
   74000        73.98    236.20183    9.8616691    -681.2401   -671.37843    22396.703    43375.037    44669.215   -20854.142      15.2149      13.1765      28.7324    5760.2466 
   74500        74.48    224.77135    9.3844349   -680.75188   -671.36744    24337.752    46068.444    46321.213   -19376.402      15.2149      13.1765      28.7324    5760.2466 
   75000        74.98     240.1063    10.024685   -681.38121   -671.35653     23844.37    45099.411    47307.036   -20873.335      15.2149      13.1765      28.7324    5760.2466 
   75500        75.48    242.89985    10.141318   -681.48718   -671.34586     24273.91    44319.325    48491.323   -19988.917      15.2149      13.1765      28.7324    5760.2466 
   76000        75.98    239.06572    9.9812393   -681.31629   -671.33505     22084.56    44426.839    43280.118   -21453.276      15.2149      13.1765      28.7324    5760.2466 
   76500        76.48       226.06    9.4382372   -680.76286   -671.32462    21840.519    42356.932    41484.455   -18319.828      15.2149      13.1765      28.7324    5760.2466 
   77000        76.98     233.3937    9.7444266   -681.05763   -671.31321    25789.366    46349.615    48460.665   -17442.183      15.2149      13.1765      28.7324    5760.2466 
   77500        77.48    236.86781    9.8894743   -681.19217   -671.30269    25298.296    42463.963    44752.079   -11321.155      15.2149      13.1765      28.7324    5760.2466 
   78000        77.98    220.62473    9.2113091    -680.5024   -671.29109    24908.272    44069.607    47283.132   -16627.922      15.2149      13.1765      28.7324    5760.2466 
   78500        78.48    250.82815    10.472333   -681.75364    -671.2813    23034.898    44993.844    44064.258   -19953.407      15.2149      13.1765      28.7324    5760.2466 
   79000        78.98    237.96442    9.9352587   -681.20546    -671.2702    23352.436    46939.782    45777.216    -22659.69      15.2149      13.1765      28.7324    5760.2466 
   79500        79.48    235.06262    9.8141059   -681.07279   -671.25869    24719.239    46092.582    45461.076    -17395.94      15.2149      13.1765      28.7324    5760.2466 
   80000        79.98    226.83354    9.4705333   -680.71794   -671.24741    23067.153    45124.848      47954.8   -23878.189      15.2149      13.1765      28.7324    5760.2466 
   80500        80.48     241.8337    10.096805   -681.33317   -671.23636    25421.678    46754.982    48824.964    -19314.91      15.2149      13.1765      28.7324    5760.2466 
   81000        80.98    246.91907    10.309125   -681.53479   -671.22567    23509.345    42068.837     45587.83   -17128.633      15.2149      13.1765      28.7324    5760.2466 
   81500        81.48    250.78228    10.470418   -681.68579   -671.21537    27068.945    42987.716    49586.858   -11367.741      15.2149      13.1765      28.7324    5760.2466 
   82000        81.98    248.87418    10.390753   -681.59357   -671.20282    22482.403    40871.858    48619.935   -22044.585      15.2149      13.1765      28.7324    5760.2466 
   82500        82.48    238.29863    9.9492123   -681.14068   -671.19147    24603.753    46947.352    44754.623   -17890.715      15.2149      13.1765      28.7324    5760.2466 
   83000        82.98    246.41779    10.288196   -681.46911   -671.18091     23548.56    45408.051     45816.97   -20579.341      15.2149      13.1765      28.7324    5760.2466 
   83500        83.48    238.48499    9.9569933   -681.12656   -671.16957    24670.368    44361.335    48193.317   -18543.549      15.2149      13.1765      28.7324    5760.2466 
   84000        83.98    235.60323    9.8366769   -680.99419   -671.15751     23983.79    43920.613    46049.578   -18018.821      15.2149      13.1765      28.7324    5760.2466 
   84500        84.48    226.70296    9.4650812   -680.61057   -671.14549    22663.924    45801.473    46058.537    -23868.24      15.2149      13.1765      28.7324    5760.2466 
   85000        84.98    248.24965    10.364678   -681.49953   -671.13485    23622.528    45469.401    47023.637   -21625.454      15.2149      13.1765      28.7324    5760.2466 
   85500        85.48    233.45527    9.7469971   -680.87012   -671.12312    23495.566    45900.151    48312.523   -23725.976      15.2149      13.1765      28.7324    5760.2466 
   86000        85.98    245.17958    10.236499   -681.34883   -671.11233    24023.595    45166.383    45603.852    -18699.45      15.2149      13.1765      28.7324    5760.2466 
   86500        86.48    230.97278    9.6433509   -680.74272   -671.09937    22414.462    40788.629    47188.646   -20733.888      15.2149      13.1765      28.7324    5760.2466 
   87000        86.98    253.00981    10.563419   -681.65192    -671.0885    22880.052    41111.346    44018.464   -16489.653      15.2149      13.1765      28.7324    5760.2466 
   87500        87.48    238.16889    9.9437959   -681.02052   -671.07673     27397.94    46829.093    50638.201   -15273.474      15.2149      13.1765      28.7324    5760.2466 
   88000        87.98    246.10078     10.27496   -681.33968   -671.06472    22590.109    44264.399    44946.083   -21440.154      15.2149      13.1765      28.7324    5760.2466 
   88500        88.48    252.00032    10.521272    -681.5747   -671.05342    23453.371     46428.55    50036.725   -26105.163      15.2149      13.1765      28.7324    5760.2466 
   89000        88.98    254.50808    10.625974   -681.66696   -671.04098    23432.352    46782.515    45830.906   -22316.367      15.2149      13.1765      28.7324    5760.2466 
   89500        89.48    245.43014     10.24696   -681.27634   -671.02938    25444.716    46245.533    47874.733   -17786.117      15.2149      13.1765      28.7324    5760.2466 
   90000        89.98    245.23202    10.238689   -681.25612   -671.01744    21959.546     43451.76    46145.026   -23718.147      15.2149      13.1765      28.7324    5760.2466 
   90500        90.48      240.852    10.055818   -681.06104   -671.00522    23492.551    46309.505    46625.113   -22456.965      15.2149      13.1765      28.7324    5760.2466 
   91000        90.98    243.84522    10.180788   -681.17376   -670.99297    22784.793    47336.567    44135.595   -23117.783      15.2149      13.1765      28.7324    5760.2466 
   91500        91.48    250.94212    10.477091   -681.45813   -670.98104    23794.143    46282.522    44996.097   -19896.189      15.2149      13.1765      28.7324    5760.2466 
   92000        91.98    240.81547    10.054293   -681.02241   -670.96811    23258.991    45499.065    44866.317   -20588.408      15.2149      13.1765      28.7324    5760.2466 
   92500        92.48    247.45912    10.331672   -681.28795   -670.95627    21225.355    43970.683    42054.589   -22349.205      15.2149      13.1765      28.7324    5760.2466 
   93000        92.98    243.59459    10.170324   -681.11424   -670.94392    22937.327    43134.366     47481.88   -21804.265      15.2149      13.1765      28.7324    5760.2466 
   93500        93.48    235.79581     9.844717   -680.77666   -670.93194    23512.298    43044.138    41687.755   -14194.998      15.2149      13.1765      28.7324    5760.2466 
   94000        93.98    242.87527    10.140292   -681.06015   -670.91986    24240.807    43332.128     46396.63   -17006.336      15.2149      13.1765      28.7324    5760.2466 
   94500        94.48    239.31716    9.9917371   -680.89815   -670.90642    23145.625    42283.237    47216.192   -20062.555      15.2149      13.1765      28.7324    5760.2466 
   95000        94.98    236.82411    9.8876498   -680.78167   -670.89402    23584.268     44660.21    48250.319   -22157.724      15.2149      13.1765      28.7324    5760.2466 
   95500        95.48    237.07532    9.8981382   -680.77936   -670.88122    23619.084    42075.156    47641.685    -18859.59      15.2149      13.1765      28.7324    5760.2466 
   96000        95.98    237.51258    9.9163941   -680.78511   -670.86872    23914.098    44335.106    45825.722   -18418.535      15.2149      13.1765      28.7324    5760.2466 
   96500        96.48    231.78178    9.6771273   -680.53295   -670.85582    24428.432    45757.358    45115.147   -17587.209      15.2149      13.1765      28.7324    5760.2466 
   97000        96.98    239.37888    9.9943139   -680.83724   -670.84293    24665.913    46768.833        46644   -19415.095      15.2149      13.1765      28.7324    5760.2466 
   97500        97.48    251.20581    10.488101   -681.31924   -670.83113    25041.205    47884.462    47508.641   -20269.488      15.2149      13.1765      28.7324    5760.2466 
   98000        97.98    251.78759     10.51239    -681.3306   -670.81821    24022.037    45130.425    46698.306   -19762.619      15.2149      13.1765      28.7324    5760.2466 
   98500        98.48    242.52905    10.125837    -680.9311   -670.80526    24688.628    46454.154    45659.812   -18048.081      15.2149      13.1765      28.7324    5760.2466 
   99000        98.98    260.81048    10.889105    -681.6812   -670.79209    24062.024    46555.505    43488.335   -17857.767      15.2149      13.1765      28.7324    5760.2466 
   99500        99.48    245.69202    10.257894   -681.03737   -670.77948    24682.995    46808.601    46627.166   -19386.782      15.2149      13.1765      28.7324    5760.2466 
  100000        99.98    241.21644    10.071034   -680.83622   -670.76519    24004.828    44174.569    47265.632   -19425.716      15.2149      13.1765      28.7324    5760.2466 
  100500       100.48    241.92219      10.1005   -680.85253   -670.75203    23056.719    45769.151    47663.263   -24262.257      15.2149      13.1765      28.7324    5760.2466 
  101000       100.98    238.10414    9.9410925   -680.67956   -670.73847    24582.604    45041.898    48430.349   -19724.436      15.2149      13.1765      28.7324    5760.2466 
  101500       101.48    238.97166    9.9773123   -680.70284   -670.72553     22354.92    43918.776    44950.655   -21804.672      15.2149      13.1765      28.7324    5760.2466 
  102000       101.98    256.07539    10.691411   -681.40381    -670.7124    22854.683    45686.784    47516.382   -24639.117      15.2149      13.1765      28.7324    5760.2466 
  102500       102.48    257.17125    10.737164   -681.43656    -670.6994    24095.736    45340.761    47203.231   -20256.785      15.2149      13.1765      28.7324    5760.2466 
  103000       102.98     251.9739    10.520169   -681.20584   -670.68568    23527.502    45129.207    45012.993   -19559.694      15.2149      13.1765      28.7324    5760.2466 
  103500       103.48    244.27093    10.198562   -680.87073   -670.67217    24613.795     45317.76    46802.021   -18278.396      15.2149      13.1765      28.7324    5760.2466 
  104000       103.98    258.87848    10.808442    -681.4668   -670.65836    23880.095    47861.742     46018.13   -22239.588      15.2149      13.1765      28.7324    5760.2466 
  104500       104.48    249.40568    10.412943   -681.05726   -670.64432    23138.504    44593.271    46568.227   -21745.988      15.2149      13.1765      28.7324    5760.2466 
  105000       104.98    262.18974    10.946691   -681.57877   -670.63208    24153.864    45318.314    48144.604   -21001.325      15.2149      13.1765      28.7324    5760.2466 
  105500       105.48      242.036    10.105252   -680.72261   -670.61736    23091.916    47186.697    44390.878   -22301.827      15.2149      13.1765      28.7324    5760.2466 
  106000       105.98    249.62659    10.422167   -681.02603   -670.60387    23057.048    43420.148    47086.944   -21335.948      15.2149      13.1765      28.7324    5760.2466 
  106500       106.48    249.35815    10.410959    -681.0006   -670.58964    24126.919     45179.28    47472.921   -20271.444      15.2149      13.1765      28.7324    5760.2466 
  107000       106.98    263.14906    10.986743   -681.56265    -670.5759    23469.348    46399.992    47117.562   -23109.512      15.2149      13.1765      28.7324    5760.2466 
  107500       107.48    250.58217    10.462063   -681.02378   -670.56172    24271.411    46848.244    48548.946   -22582.957      15.2149      13.1765      28.7324    5760.2466 
  108000       107.98    245.48035    10.249057   -680.79635   -670.54729    24817.174      44307.6    45344.026   -15200.104      15.2149      13.1765      28.7324    5760.2466 
  108500       108.48    245.84256     10.26418   -680.79732   -670.53314    23436.966    43557.787    45522.157   -18769.047      15.2149      13.1765      28.7324    5760.2466 
  109000       108.98    239.34716    9.9929897   -680.51143   -670.51844    24590.401    46551.467    47244.051   -20024.316      15.2149      13.1765      28.7324    5760.2466 
  109500       109.48    248.41203    10.371457   -680.87675    -670.5053    24875.385    46071.877    48394.245   -19839.969      15.2149      13.1765      28.7324    5760.2466 
  110000       109.98    239.42536    9.9962546   -680.48791   -670.49166    22971.261    43766.246    45697.314   -20549.775      15.2149      13.1765      28.7324    5760.2466 
  110500       110.48    249.10476     10.40038   -680.87783   -670.47745    24760.288    45901.353    44199.719   -15820.207      15.2149      13.1765      28.7324    5760.2466 
  111000       110.98    254.86466    10.640861   -681.10388   -670.46302    24677.692    43991.717    50964.336   -20922.975      15.2149      13.1765      28.7324    5760.2466 
  111500       111.48    258.69375     10.80073   -681.24947   -670.44874     21855.45     43414.52    45351.449   -23199.619      15.2149      13.1765      28.7324    5760.2466 
  112000       111.98     255.0646    10.649209   -681.08381    -670.4346    22532.747    41675.903    45613.054   -19690.716      15.2149      13.1765      28.7324    5760.2466 
  112500       112.48    242.18422     10.11144   -680.53098   -670.41954    23639.952     43868.84     46246.43   -19195.413      15.2149      13.1765      28.7324    5760.2466 
  113000       112.98    252.93763    10.560406   -680.96483   -670.40442    23038.898    47006.881    47151.831   -25042.018      15.2149      13.1765      28.7324    5760.2466 
  113500       113.48    255.28838    10.658552   -681.04925    -670.3907    22957.572    44104.225    43381.119   -18612.627      15.2149      13.1765      28.7324    5760.2466 
  114000       113.98    250.19045    10.445708   -680.82249   -670.37678    22919.741    45568.177    43881.314   -20690.267      15.2149      13.1765      28.7324    5760.2466 
  114500       114.48    250.35986    10.452781   -680.81465   -670.36187    22980.591    43477.394    44277.867   -18813.489      15.2149      13.1765      28.7324    5760.2466 
  115000       114.98    252.37371    10.536862   -680.88475   -670.34789    22534.668    41748.835    47387.435   -21532.265      15.2149      13.1765      28.7324    5760.2466 
  115500       115.48    246.05894    10.273214   -680.60602    -670.3328    23936.575    43814.878    47007.473   -19012.626      15.2149      13.1765      28.7324    5760.2466 
  116000       115.98    263.48426    11.000738   -681.31912   -670.31838      23252.2    45277.369    45248.162   -20768.932      15.2149      13.1765      28.7324    5760.2466 
  116500       116.48    249.42482    10.413742   -680.71708   -670.30333    22689.993     47248.93    44018.776   -23197.727      15.2149      13.1765      28.7324    5760.2466 
  117000       116.98    256.22813    10.697788   -680.98671   -670.28892    21626.928    42676.216    43340.779   -21136.212      15.2149      13.1765      28.7324    5760.2466 
  117500       117.48    239.70116     10.00777   -680.28147    -670.2737    23143.958    43430.292    42200.787   -16199.204      15.2149      13.1765      28.7324    5760.2466 
  118000       117.98     248.0449    10.356129   -680.61587   -670.25974    24366.508    43856.117    46474.511   -17231.105      15.2149      13.1765      28.7324    5760.2466 
  118500       118.48    256.29204    10.700456   -680.94526    -670.2448    24354.195    48834.333    45188.378   -20960.125      15.2149      13.1765      28.7324    5760.2466 
  119000       118.98    249.42056    10.413565   -680.64436    -670.2308    22902.493    46671.338    43792.552   -21756.411      15.2149      13.1765      28.7324    5760.2466 
  119500       119.48    253.31513    10.576167   -680.79083   -670.21466    24044.092     47374.45    46336.761   -21578.934      15.2149      13.1765      28.7324    5760.2466 
  120000       119.98    247.86292    10.348532   -680.54867   -670.20014    24750.273    45095.599    46355.003   -17199.782      15.2149      13.1765      28.7324    5760.2466 
  120500       120.48    248.59189    10.378967   -680.56406   -670.18509    25106.301    48631.591    47473.056   -20785.744      15.2149      13.1765      28.7324    5760.2466 
  121000       120.98    258.80041    10.805183   -680.97554   -670.17036    25931.907    46052.976    49147.112   -17404.366      15.2149      13.1765      28.7324    5760.2466 
  121500       121.48    265.84921    11.099477   -681.25471   -670.15523    24327.999    50757.263    45480.804   -23254.071      15.2149      13.1765      28.7324    5760.2466 
  122000       121.98    244.84262    10.222431   -680.36247   -670.14004    23683.155     46092.31    48199.736    -23242.58      15.2149      13.1765      28.7324    5760.2466 
  122500       122.48    252.88446    10.558186   -680.68248    -670.1243    23489.923    44955.078    47028.096   -21513.404      15.2149      13.1765      28.7324    5760.2466 
  123000       122.98     278.4916     11.62731   -681.73805   -670.11074    22634.189    44867.054    46360.373    -23324.86      15.2149      13.1765      28.7324    5760.2466 
  123500       123.48    247.21632    10.321535   -680.41563    -670.0941     24195.04    42464.168    49702.995   -19582.044      15.2149      13.1765      28.7324    5760.2466 
  124000       123.98    262.61715    10.964536    -681.0442   -670.07967    23081.402    44195.574    44233.412    -19184.78      15.2149      13.1765      28.7324    5760.2466 
  124500       124.48    250.94628    10.477265   -680.54147    -670.0642    21010.625    46501.086    42757.156   -26226.366      15.2149      13.1765      28.7324    5760.2466 
  125000       124.98    264.33746     11.03636   -681.08591   -670.04955    23588.163     43903.84    46734.787   -19874.137      15.2149      13.1765      28.7324    5760.2466 
  125500       125.48    257.44818    10.748726   -680.78291   -670.03419    24571.765    45606.605     47705.77    -19597.08      15.2149      13.1765      28.7324    5760.2466 
  126000       125.98    265.26731    11.075182   -681.09436   -670.01918      25209.9    48183.933    47931.866     -20486.1      15.2149      13.1765      28.7324    5760.2466 
  126500       126.48     258.2665    10.782891   -680.78648   -670.00359    23941.399    45900.198    43696.532   -17772.531      15.2149      13.1765      28.7324    5760.2466 
  127000       126.98    250.79411    10.470911   -680.45828   -669.98737    23544.555    44664.201    44574.293   -18604.829      15.2149      13.1765      28.7324    5760.2466 
  127500       127.48    249.39683    10.412574   -680.38515   -669.97257    23771.054    47461.073    46774.984   -22922.896      15.2149      13.1765      28.7324    5760.2466 
  128000       127.98    249.01369    10.396577    -680.3526   -669.95603    24670.651    44436.897    46342.514   -16767.458      15.2149      13.1765      28.7324    5760.2466 
  128500       128.48    255.37454    10.662149   -680.60349   -669.94134     23711.61    48477.109    47168.651   -24510.931      15.2149      13.1765      28.7324    5760.2466 
  129000       128.98    237.00555    9.8952251   -679.82077   -669.92554    23999.063    44935.651      47230.8   -20169.261      15.2149      13.1765      28.7324    5760.2466 
  129500       129.48    249.60849    10.421411   -680.33218   -669.91077     24183.82    42449.656    47766.642   -17664.838      15.2149      13.1765      28.7324    5760.2466 
  130000       129.98    257.95642    10.769945   -680.66537   -669.89542    24493.348    44081.493    46920.243   -17521.692      15.2149      13.1765      28.7324    5760.2466 
  130500       130.48    247.52026    10.334225   -680.21339   -669.87917    23492.131    46749.849    45903.489   -22176.946      15.2149      13.1765      28.7324    5760.2466 
  131000       130.98    255.68441    10.675087   -680.53929    -669.8642    22391.246    46761.127    46497.756   -26085.146      15.2149      13.1765      28.7324    5760.2466 
  131500       131.48    257.98289    10.771051   -680.61989   -669.84884    26593.401    47757.344    46345.364   -14322.506      15.2149      13.1765      28.7324    5760.2466 
  132000       131.98    266.58998    11.130405   -680.96373   -669.83333    25416.479    45035.116    49196.414   -17982.094      15.2149      13.1765      28.7324    5760.2466 
  132500       132.48    262.49544    10.959454   -680.77781   -669.81836    23515.121    44907.908    45290.037    -19652.58      15.2149      13.1765      28.7324    5760.2466 
  133000       132.98    263.45891     10.99968   -680.80199   -669.80231    25097.166    46237.752    47793.297    -18739.55      15.2149      13.1765      28.7324    5760.2466 
  133500       133.48    256.12303      10.6934   -680.47979   -669.78639    23870.841    48749.063     44502.51    -21639.05      15.2149      13.1765      28.7324    5760.2466 
  134000       133.98    247.91022    10.350506   -680.12109   -669.77058    23658.803    46022.139    46973.096   -22018.824      15.2149      13.1765      28.7324    5760.2466 
  134500       134.48    266.59254    11.130512   -680.88597   -669.75546    24522.543    44543.982    45894.216   -16870.569      15.2149      13.1765      28.7324    5760.2466 
  135000       134.98    268.08754     11.19293   -680.93315   -669.74022    23176.861     44501.65    43166.225   -18137.294      15.2149      13.1765      28.7324    5760.2466 
  135500       135.48    267.94268    11.186882   -680.91139   -669.72451    24212.929    44143.537    47191.611   -18696.361      15.2149      13.1765      28.7324    5760.2466 
  136000       135.98     262.7219    10.968909   -680.67687   -669.70796    24547.908    45999.634     48073.75   -20429.661      15.2149      13.1765      28.7324    5760.2466 
  136500       136.48    251.13044    10.484954   -680.17698   -669.69203    23360.702     48872.28    45409.702   -24199.874      15.2149      13.1765      28.7324    5760.2466 
  137000       136.98    255.89712    10.683967   -680.36036   -669.67639    22938.299    43235.543    46700.302   -21120.949      15.2149      13.1765      28.7324    5760.2466 
  137500       137.48    254.17799    10.612192   -680.27338   -669.66119    23258.126    46705.046    47013.058   -23943.724      15.2149      13.1765      28.7324    5760.2466 
  138000       137.98    258.91234    10.809856   -680.45538   -669.64553    22872.436    47000.777    45664.932   -24048.402      15.2149      13.1765      28.7324    5760.2466 
  138500       138.48    275.48668    11.501852   -681.13191   -669.63005    24321.707    45465.784     47964.09   -20464.754      15.2149      13.1765      28.7324    5760.2466 
  139000       138.98    257.68351    10.758551   -680.37197   -669.61342    23634.674    46202.573    44636.889    -19935.44      15.2149      13.1765      28.7324    5760.2466 
  139500       139.48    274.13921    11.445594   -681.04392   -669.59833     24237.02    45809.429    43514.022    -16612.39      15.2149      13.1765      28.7324    5760.2466 
  140000       139.98    251.80213    10.512998   -680.09542   -669.58242    22117.885    43520.159    43932.658   -21099.163      15.2149      13.1765      28.7324    5760.2466 
  140500       140.48    256.52489    10.710177   -680.27648    -669.5663     25028.83    47405.554    44249.765    -16568.83      15.2149      13.1765      28.7324    5760.2466 
  141000       140.98    263.43911    10.998853   -680.54833   -669.54948    22928.367     44311.84    46312.984   -21839.723      15.2149      13.1765      28.7324    5760.2466 
  141500       141.48    269.90307     11.26873   -680.80335   -669.53462    24389.529     47486.48    47847.977   -22165.872      15.2149      13.1765      28.7324    5760.2466 
  142000       141.98    242.90539    10.141549   -679.65937   -669.51782    22807.948    43447.627    45275.735   -20299.517      15.2149      13.1765      28.7324    5760.2466 
  142500       142.48    265.36264    11.079163   -680.58158   -669.50241    25969.073    42199.017    49000.521   -13292.318      15.2149      13.1765      28.7324    5760.2466 
  143000       142.98    265.36107    11.079097   -680.56574   -669.48664    23062.075    43698.839    47507.425    -22020.04      15.2149      13.1765      28.7324    5760.2466 
  143500       143.48    249.11952    10.400996   -679.87113   -669.47014     25879.36    45404.485    49522.483   -17288.888      15.2149      13.1765      28.7324    5760.2466 
  144000       143.98    257.44773    10.748707    -680.2031   -669.45439    23607.353    46439.795    43925.684   -19543.419      15.2149      13.1765      28.7324    5760.2466 
  144500       144.48    250.76899    10.469863   -679.90859   -669.43873    21929.372    43422.876    43565.581   -21200.342      15.2149      13.1765      28.7324    5760.2466 
  145000       144.98    262.76054    10.970522   -680.39367   -669.42315    24709.528    44870.129    43973.598   -14715.142      15.2149      13.1765      28.7324    5760.2466 
  145500       145.48    269.13377    11.236611    -680.6441   -669.40749    25035.271    43283.363    46603.415   -14780.964      15.2149      13.1765      28.7324    5760.2466 
  146000       145.98     268.2909    11.201421   -680.59338   -669.39196    23999.813    41215.788    47063.428   -16279.778      15.2149      13.1765      28.7324    5760.2466 
  146500       146.48    264.19749    11.030517   -680.40559   -669.37508    23757.054    44728.072    48889.937   -22346.845      15.2149      13.1765      28.7324    5760.2466 
  147000       146.98     266.7287    11.136197   -680.49546   -669.35926    23789.051    44952.386     47570.25   -21155.482      15.2149      13.1765      28.7324    5760.2466 
  147500       147.48    257.54128    10.752613    -680.0956   -669.34299    22825.864    45656.716    46879.693   -24058.817      15.2149      13.1765      28.7324    5760.2466 
  148000       147.98    263.64473    11.007438   -680.33511   -669.32767    22634.625    46432.203    49572.374   -28100.701      15.2149      13.1765      28.7324    5760.2466 
  148500       148.48    274.48265    11.459933   -680.77259   -669.31266    23065.289    45969.943    44314.136   -21088.211      15.2149      13.1765      28.7324    5760.2466 
  149000       148.98    260.84538    10.890562   -680.18535   -669.29479    23240.382     47185.27    43911.391   -21375.516      15.2149      13.1765      28.7324    5760.2466 
  149500       149.48      254.878    10.641418   -679.92081   -669.27939    23408.079     43362.31    46537.862   -19675.934      15.2149      13.1765      28.7324    5760.2466 
  150000       149.98    278.32205    11.620231    -680.8842   -669.26397    23907.936    43988.041    43722.761   -15986.993      15.2149      13.1765      28.7324    5760.2466 
  150500       150.48     267.7156    11.177401   -680.42374   -669.24634    22786.833    44954.326    44411.659   -21005.486      15.2149      13.1765      28.7324    5760.2466 
  151000       150.98     258.2376    10.781685   -680.01264   -669.23095    22869.694    46700.806    48312.206   -26403.929      15.2149      13.1765      28.7324    5760.2466 
  151500       151.48    266.67398    11.133913   -680.34933   -669.21542    24157.612    46711.032    46245.475   -20483.673      15.2149      13.1765      28.7324    5760.2466 
  152000       151.98    255.15916    10.653157   -679.85259   -669.19943    25788.541    49665.696    49502.085   -21802.157      15.2149      13.1765      28.7324    5760.2466 
  152500       152.48    261.67666    10.925269     -680.109   -669.18373    23146.006    44459.569    43341.717   -18363.268      15.2149      13.1765      28.7324    5760.2466 
  153000       152.98    259.96217    10.853688   -680.02056   -669.16688    23525.372    42917.816    44278.618   -16620.317      15.2149      13.1765      28.7324    5760.2466 
  153500       153.48    273.67022    11.426013   -680.57782   -669.15181    22096.431    42490.433    44938.702   -21139.842      15.2149      13.1765      28.7324    5760.2466 
  154000       153.98    270.94317    11.312155    -680.4476   -669.13544    25008.287    48366.429    45259.933   -18601.502      15.2149      13.1765      28.7324    5760.2466 
  154500       154.48    265.08015    11.067369   -680.18617    -669.1188    22851.982    45625.872    45302.249   -22372.175      15.2149      13.1765      28.7324    5760.2466 
  155000       154.98    277.39459    11.581509   -680.68423   -669.10272     23583.33    48424.926    43164.657   -20839.593      15.2149      13.1765      28.7324    5760.2466 
  155500       155.48    267.58228    11.171835   -680.25827   -669.08643    24955.634    46276.637    47761.103   -19170.837      15.2149      13.1765      28.7324    5760.2466 
  156000       155.98    272.04838    11.358299   -680.42884   -669.07054    23146.078    42334.895    46554.175   -19450.834      15.2149      13.1765      28.7324    5760.2466 
  156500       156.48    271.32461    11.328081   -680.38231   -669.05423    23829.192    46658.014    44347.271    -19517.71      15.2149      13.1765      28.7324    5760.2466 
  157000       156.98    275.40578    11.498474   -680.53598   -669.03751    23202.367    45308.478    46308.055   -22009.434      15.2149      13.1765      28.7324    5760.2466 
  157500       157.48    266.64446     11.13268   -680.15349   -669.02081    23646.227     45550.29    47825.443   -22437.053      15.2149      13.1765      28.7324    5760.2466 
  158000       157.98    255.65626    10.673912   -679.67781    -669.0039    22817.348    44729.079    46575.586    -22852.62      15.2149      13.1765      28.7324    5760.2466 
  158500       158.48    262.66242    10.966426   -679.95427   -668.98784    21960.471    41639.835    44131.054   -19889.476      15.2149      13.1765      28.7324    5760.2466 
  159000       158.98    277.61634    11.590767   -680.56232   -668.97155    24284.777     46108.23    47079.167   -20333.066      15.2149      13.1765      28.7324    5760.2466 
  159500       159.48    267.20946    11.156269   -680.11247    -668.9562     23449.94    43423.622    45737.254   -18811.056      15.2149      13.1765      28.7324    5760.2466 
  160000       159.98    268.61305    11.214871   -680.15417    -668.9393    23683.777    44184.728    46008.709   -19142.108      15.2149      13.1765      28.7324    5760.2466 
  160500       160.48    275.58618    11.506006   -680.42857   -668.92256    22735.784    44724.772    44960.233   -21477.652      15.2149      13.1765      28.7324    5760.2466 
  161000       160.98    267.55473    11.170685   -680.07732   -668.90663    24007.555     44573.93    47280.348   -19831.614      15.2149      13.1765      28.7324    5760.2466 
  161500       161.48    257.92686    10.768711   -679.65816   -668.88945     23944.91    46342.911    43469.949   -17978.129      15.2149      13.1765      28.7324    5760.2466 
  162000       161.98    258.97307    10.812392   -679.68461   -668.87222    24259.279    48378.237    44875.649    -20476.05      15.2149      13.1765      28.7324    5760.2466 
  162500       162.48    272.03443    11.357717   -680.21465   -668.85693     22286.31    42027.583    45240.343   -20408.996      15.2149      13.1765      28.7324    5760.2466 
  163000       162.98    272.09556    11.360269   -680.20131   -668.84104    23155.481    45108.513     46188.77    -21830.84      15.2149      13.1765      28.7324    5760.2466 
  163500       163.48    260.13784    10.861022    -679.6848   -668.82378    23761.486    45791.131    45744.015   -20250.689      15.2149      13.1765      28.7324    5760.2466 
  164000       163.98    276.09858    11.527399   -680.33475   -668.80735    24461.269    46029.537    48817.755   -21463.486      15.2149      13.1765      28.7324    5760.2466 
  164500       164.48    251.95274    10.519286    -679.3105   -668.79122    24123.543     46343.82    46125.909   -20099.102      15.2149      13.1765      28.7324    5760.2466 
  165000       164.98     271.7851    11.347307    -680.1218    -668.7745    25098.638    49398.452    46081.068   -20183.607      15.2149      13.1765      28.7324    5760.2466 
  165500       165.48    265.83939    11.099068   -679.85737    -668.7583    23752.407    45064.765    44891.851   -18699.395      15.2149      13.1765      28.7324    5760.2466 
  166000       165.98    274.61502    11.465459   -680.20696    -668.7415    24779.666     42281.68    46904.812   -14847.494      15.2149      13.1765      28.7324    5760.2466 
  166500       166.48    278.90448    11.644548   -680.36919   -668.72464    24170.052    45703.438    46761.882   -19955.163      15.2149      13.1765      28.7324    5760.2466 
  167000       166.98    266.42722     11.12361   -679.83167   -668.70806    23803.266    45364.107    45281.182   -19235.491      15.2149      13.1765      28.7324    5760.2466 
  167500       167.48    274.49672     11.46052   -680.15207   -668.69155    20716.579    46146.597    44212.873   -28209.731      15.2149      13.1765      28.7324    5760.2466 
  168000       167.98    266.11977    11.110774   -679.78514   -668.67436    24534.416    46078.774     43592.88   -16068.407      15.2149      13.1765      28.7324    5760.2466 
  168500       168.48    274.62066    11.465694    -680.1243    -668.6586    22686.399    44209.887    45436.347   -21587.037      15.2149      13.1765      28.7324    5760.2466 
  169000       168.98    265.15282    11.070402   -679.71208   -668.64168    25321.773    45454.298     48488.28   -17977.258      15.2149      13.1765      28.7324    5760.2466 
  169500       169.48    257.80675    10.763697   -679.38734   -668.62365    24569.402    46332.248    47562.671   -20186.712      15.2149      13.1765      28.7324    5760.2466 
  170000       169.98    263.74308    11.011544   -679.61858   -668.60704    24701.899    48074.999    46354.322   -20323.624      15.2149      13.1765      28.7324    5760.2466 
  170500       170.48    277.49018      11.5855   -680.17734   -668.59184    25008.728     47898.01    45624.849   -18496.676      15.2149      13.1765      28.7324    5760.2466 
  171000       170.98    262.17749    10.946179   -679.52028    -668.5741    22454.309    44814.056    46184.248   -23635.375      15.2149      13.1765      28.7324    5760.2466 
  171500       171.48    279.03946    11.650184   -680.20828    -668.5581     23987.66    43282.756    46260.281   -17580.056      15.2149      13.1765      28.7324    5760.2466 
  172000       171.98     274.6099    11.465245   -680.00594   -668.54069     23594.58    41613.799    47455.549   -18285.607      15.2149      13.1765      28.7324    5760.2466 
  172500       172.48    278.29081    11.618927    -680.1427   -668.52378    21348.784    41214.713    44949.864   -22118.224      15.2149      13.1765      28.7324    5760.2466 
  173000       172.98    281.62197    11.758006   -680.26565   -668.50764    24572.097    47954.297    44644.907   -18882.915      15.2149      13.1765      28.7324    5760.2466 
  173500       173.48    273.97406    11.438698   -679.92948   -668.49078    23548.603    44496.407    46772.371   -20622.968      15.2149      13.1765      28.7324    5760.2466 
  174000       173.98    272.60523    11.381548   -679.85552   -668.47397    23531.826    46494.759    41729.569   -17628.851      15.2149      13.1765      28.7324    5760.2466 
  174500       174.48    258.88976    10.808913   -679.26516   -668.45624     23366.56    43830.915    44991.158   -18722.394      15.2149      13.1765      28.7324    5760.2466 
  175000       174.98    274.74887    11.471047    -679.9115   -668.44045    23946.896    45537.584    46186.628   -19883.524      15.2149      13.1765      28.7324    5760.2466 
  175500       175.48    273.11807     11.40296   -679.82649   -668.42353    23055.593    45862.804    45758.387   -22454.414      15.2149      13.1765      28.7324    5760.2466 
  176000       175.98    286.82252    11.975135   -680.38259   -668.40746    24228.905     47105.24    46354.754    -20773.28      15.2149      13.1765      28.7324    5760.2466 
  176500       176.48    270.12019    11.277795   -679.66702   -668.38922    24906.183    41648.844    50905.015   -17835.311      15.2149      13.1765      28.7324    5760.2466 
  177000       176.98    266.10468    11.110144   -679.48245   -668.37231    22598.018    45235.309    46619.921   -24061.176      15.2149      13.1765      28.7324    5760.2466 
  177500       177.48     283.3926    11.831932   -680.18769   -668.35576    22388.616    45006.386    44576.988   -22417.526      15.2149      13.1765      28.7324    5760.2466 
  178000       177.98    274.97724    11.480582   -679.82032   -668.33974    23488.617    45244.533    44678.703   -19457.386      15.2149      13.1765      28.7324    5760.2466 
  178500       178.48    277.56325    11.588551   -679.91022   -668.32167    22047.667    43731.257    44747.069   -22335.325      15.2149      13.1765      28.7324    5760.2466 
  179000       178.98    277.99844    11.606721   -679.91221   -668.30549    25077.059    43719.903    46098.724   -14587.451      15.2149      13.1765      28.7324    5760.2466 
  179500       179.48    270.60975    11.298235   -679.58616   -668.28792    22889.788    45425.656    46095.844   -22852.135      15.2149      13.1765      28.7324    5760.2466 
  180000       179.98    276.49075    11.543773   -679.81485   -668.27107     23472.67    41206.108    48480.978   -19269.074      15.2149      13.1765      28.7324    5760.2466 
  180500       180.48    268.69142    11.218143   -679.47184   -668.25369     22385.25    44591.306    45439.865   -22875.421      15.2149      13.1765      28.7324    5760.2466 
  181000       180.98    273.09952    11.402185   -679.63903   -668.23685     24691.93    43776.769    48767.372   -18468.351      15.2149      13.1765      28.7324    5760.2466 
  181500       181.48    269.89257    11.268292   -679.48831   -668.22001    23973.969    44500.767    45448.866   -18027.725      15.2149      13.1765      28.7324    5760.2466 
  182000       181.98    274.13862    11.445569   -679.64887    -668.2033    26031.104    48836.564    46032.521   -16775.772      15.2149      13.1765      28.7324    5760.2466 
  182500       182.48     268.9898      11.2306   -679.41679   -668.18619    22284.336    45595.965    44641.179   -23384.137      15.2149      13.1765      28.7324    5760.2466 
  183000       182.98    269.28045    11.242735   -679.41119   -668.16845    26467.951    47974.311    46994.312   -15564.771      15.2149      13.1765      28.7324    5760.2466 
  183500       183.48    269.43239    11.249079   -679.40102   -668.15194    23180.513    43848.948    44468.618   -18776.027      15.2149      13.1765      28.7324    5760.2466 
  184000       183.98    272.07086    11.359238   -679.49391   -668.13467     24110.19    43484.878    45891.375   -17045.683      15.2149      13.1765      28.7324    5760.2466 
  184500       184.48    271.85654     11.35029   -679.46716   -668.11687    21716.954    43811.229     45881.22   -24541.588      15.2149      13.1765      28.7324    5760.2466 
  185000       184.98    277.03211    11.566375   -679.66737     -668.101    24726.497    47583.143    49474.371   -22878.023      15.2149      13.1765      28.7324    5760.2466 
  185500       185.48     301.6353    12.593584   -680.67708   -668.08349    23068.275    45830.937    44960.375   -21586.487      15.2149      13.1765      28.7324    5760.2466 
  186000       185.98    289.58097    12.090303   -680.15592   -668.06562    23420.828    46484.218    44060.819   -20282.555      15.2149      13.1765      28.7324    5760.2466 
  186500       186.48    283.85491    11.851234   -679.90027   -668.04904    24400.149    42757.322    48858.492   -18415.368      15.2149      13.1765      28.7324    5760.2466 
  187000       186.98    277.17792    11.572463   -679.60424   -668.03178    23496.908    46547.197    48416.023   -24472.495      15.2149      13.1765      28.7324    5760.2466 
  187500       187.48    280.18597    11.698052   -679.71283   -668.01478    25221.017    47344.774    45378.662   -17060.385      15.2149      13.1765      28.7324    5760.2466 
  188000       187.98    285.83475    11.933894   -679.93118   -667.99729    26423.796    45473.331    44968.566   -11170.508      15.2149      13.1765      28.7324    5760.2466 
  188500       188.48     268.3357    11.203291   -679.18245   -667.97916    23179.786    43429.316    47373.635   -21263.593      15.2149      13.1765      28.7324    5760.2466 
  189000       188.98    277.15663    11.571574   -679.53438   -667.96281    25116.351      45380.8     44740.79   -14772.539      15.2149      13.1765      28.7324    5760.2466 
  189500       189.48    279.99242    11.689971   -679.63669   -667.94672    23026.935    42849.195    47542.858   -21311.247      15.2149      13.1765      28.7324    5760.2466 
  190000       189.98    300.33385    12.539247    -680.4693   -667.93006    22995.548    41339.285    48262.879   -20615.519      15.2149      13.1765      28.7324    5760.2466 
  190500       190.48    258.39345    10.788192   -678.69932   -667.91112    22556.113      46006.8    44615.087   -22953.547      15.2149      13.1765      28.7324    5760.2466 
  191000       190.98    281.09529    11.736017    -679.6303   -667.89429    21836.117    39251.489     48385.77    -22128.91      15.2149      13.1765      28.7324    5760.2466 
  191500       191.48    275.54876    11.504444   -679.38071   -667.87627    26245.938    43177.531    49428.171   -13867.887      15.2149      13.1765      28.7324    5760.2466 
  192000       191.98    276.73829    11.554108   -679.41435   -667.86024    25150.496    45653.582    51557.336    -21759.43      15.2149      13.1765      28.7324    5760.2466 
  192500       192.48    283.37677    11.831271   -679.67443   -667.84316    24982.939    46752.038    51162.378   -22965.598      15.2149      13.1765      28.7324    5760.2466 
  193000       192.98    270.83615    11.307687    -679.1322   -667.82451    23422.061    43600.572    48466.705   -21801.093      15.2149      13.1765      28.7324    5760.2466 
  193500       193.48    277.69602    11.594094   -679.40128   -667.80719    23650.076    43309.903    47746.918   -20106.595      15.2149      13.1765      28.7324    5760.2466 
  194000       193.98    267.86112    11.183477   -678.97362   -667.79014    24271.257    47146.843    45641.446   -19974.518      15.2149      13.1765      28.7324    5760.2466 
  194500       194.48     288.6582    12.051776   -679.82629   -667.77451    23284.422    45378.478    47833.209   -23358.421      15.2149      13.1765      28.7324    5760.2466 
  195000       194.98    287.54327    12.005227     -679.762   -667.75677    27131.727     49185.52    47596.637   -15386.976      15.2149      13.1765      28.7324    5760.2466 
  195500       195.48    268.67023    11.217258   -678.95598   -667.73872    23918.976    45336.677    49167.376   -22747.126      15.2149      13.1765      28.7324    5760.2466 
  196000       195.98    282.62434    11.799856   -679.52161   -667.72175    24161.942    42207.472    47291.639   -17013.286      15.2149      13.1765      28.7324    5760.2466 
  196500       196.48    276.49836     11.54409   -679.24783   -667.70374    24318.835    47652.315    48210.421   -22906.231      15.2149      13.1765      28.7324    5760.2466 
  197000       196.98    283.27061    11.826839   -679.51377   -667.68693    25637.247    42887.087    46999.973   -12975.319      15.2149      13.1765      28.7324    5760.2466 
  197500       197.48    281.05445    11.734312   -679.40431      -667.67    23316.963    46854.309    46433.372   -23336.793      15.2149      13.1765      28.7324    5760.2466 
  198000       197.98    292.20304    12.199777   -679.85236   -667.65258    24443.256    45966.679    47052.566   -19689.477      15.2149      13.1765      28.7324    5760.2466 
  198500       198.48    299.96379    12.523796   -680.15871   -667.63491    23372.018    47715.685     47164.32    -24763.95      15.2149      13.1765      28.7324    5760.2466 
  199000       198.98    300.83764    12.560281   -680.17757   -667.61729    23183.842    48255.895    44562.696   -23267.066      15.2149      13.1765      28.7324    5760.2466 
  199500       199.48    287.68631    12.011199   -679.61052   -667.59932    24235.278    45211.122    44954.271   -17459.558      15.2149      13.1765      28.7324    5760.2466 
  200000       199.98    277.30155    11.577625   -679.15843    -667.5808    25371.738    44508.288     48700.42   -17093.493      15.2149      13.1765      28.7324    5760.2466 
  200500       200.48     280.6411    11.717054   -679.28188   -667.56482    21713.275    40899.731    47033.704   -22793.609      15.2149      13.1765      28.7324    5760.2466 
  201000       200.98    284.24454    11.867501   -679.41489   -667.54739    23240.599    46365.925    45715.721   -22359.848      15.2149      13.1765      28.7324    5760.2466 
  201500       201.48    287.71916     12.01257   -679.54304   -667.53047    23477.778    45097.587     43331.25   -17995.503      15.2149      13.1765      28.7324    5760.2466 
  202000       201.98    277.09798    11.569125   -679.08183   -667.51271    22279.581    44641.492    47689.452     -25492.2      15.2149      13.1765      28.7324    5760.2466 
  202500       202.48    283.90624    11.853377   -679.34878    -667.4954    24289.578    47886.506    47939.804   -22957.576      15.2149      13.1765      28.7324    5760.2466 
  203000       202.98    288.35164    12.038977   -679.51673   -667.47775    23083.402    46660.171    45548.947   -22958.912      15.2149      13.1765      28.7324    5760.2466 
  203500       203.48    281.49852    11.752852   -679.21288   -667.46002    24601.786    44814.407      44119.4    -15128.45      15.2149      13.1765      28.7324    5760.2466 
  204000       203.98     285.8942    11.936376   -679.37925   -667.44287    22727.973    41944.412    42371.975   -16132.469      15.2149      13.1765      28.7324    5760.2466 
  204500       204.48    270.39229    11.289156   -678.71455    -667.4254    24215.853    47953.823    44021.105   -19327.369      15.2149      13.1765      28.7324    5760.2466 
  205000       204.98    276.75031     11.55461   -678.96204   -667.40743    23209.097    45863.999    43163.126   -19399.834      15.2149      13.1765      28.7324    5760.2466 
  205500       205.48    292.76358     12.22318   -679.61489   -667.39171     23194.24    42711.378    49285.057   -22413.714      15.2149      13.1765      28.7324    5760.2466 
  206000       205.98    275.70951    11.511155   -678.88355   -667.37239    24173.742    47015.761    47356.012   -21850.547      15.2149      13.1765      28.7324    5760.2466 
  206500       206.48    289.12426    12.071235   -679.42659   -667.35536    24196.151    47019.155    47599.584   -22030.285      15.2149      13.1765      28.7324    5760.2466 
  207000       206.98    290.45934    12.126976   -679.46482   -667.33784    24219.531    44358.509     49736.49   -21436.406      15.2149      13.1765      28.7324    5760.2466 
  207500       207.48    262.79683    10.972037   -678.29163   -667.31959     23802.11    46118.149    45277.113   -19988.933      15.2149      13.1765      28.7324    5760.2466 
  208000       207.98    293.55314    12.256145   -679.55812   -667.30197    25259.157    45845.518     47014.12   -17082.165      15.2149      13.1765      28.7324    5760.2466 
  208500       208.48    279.43223    11.666583   -678.94969   -667.28311    25610.896    48116.837     47458.52   -18742.669      15.2149      13.1765      28.7324    5760.2466 
  209000       208.98    274.62165    11.465736   -678.73103   -667.26529    23636.205    46955.408    44710.399   -20757.191      15.2149      13.1765      28.7324    5760.2466 
  209500       209.48    303.80793    12.684293    -679.9345   -667.25021    23108.687    43204.484    45683.851   -19562.273      15.2149      13.1765      28.7324    5760.2466 
  210000       209.98    293.63859    12.259712    -679.4917   -667.23199    23947.474    46859.089    48420.723    -23437.39      15.2149      13.1765      28.7324    5760.2466 
  210500       210.48    294.61602    12.300522   -679.51433   -667.21381    23550.033    43092.664    46545.867    -18988.43      15.2149      13.1765      28.7324    5760.2466 
  211000       210.98    282.34062    11.788011   -678.98382   -667.19581     22478.61    44999.143    48695.714   -26259.026      15.2149      13.1765      28.7324    5760.2466 
  211500       211.48    280.07885     11.69358   -678.87135   -667.17777    23373.486    44385.108    44575.248   -18839.897      15.2149      13.1765      28.7324    5760.2466 
  212000       211.98    290.41364    12.125068   -679.28492   -667.15985    23856.274     46450.13    46132.456   -21013.765      15.2149      13.1765      28.7324    5760.2466 
[...]
  948500       948.48    380.23171    15.875064   -675.85127   -659.97621    22140.582    45123.094    40961.906   -19663.255      15.2149      13.1765      28.7324    5760.2466 
  949000       948.98    373.05267    15.575332   -675.54822   -659.97289    25913.817    42237.613    48574.417   -13070.579      15.2149      13.1765      28.7324    5760.2466 
  949500       949.48    379.16634    15.830584   -675.79996   -659.96938    22950.144    40277.266    48688.545   -20115.379      15.2149      13.1765      28.7324    5760.2466 
  950000       949.98    374.23877    15.624853   -675.59223   -659.96737    24591.068    43270.182    50366.982    -19863.96      15.2149      13.1765      28.7324    5760.2466 
  950500       950.48    345.22859    14.413648   -674.37708   -659.96343    22591.657    44426.101    43169.899   -19821.028      15.2149      13.1765      28.7324    5760.2466 
  951000       950.98    369.82485    15.440567   -675.40164   -659.96107    22558.725    42504.736    47383.841   -22212.401      15.2149      13.1765      28.7324    5760.2466 
  951500       951.48    373.48302    15.593299   -675.55099    -659.9577    22595.525     44576.86    47927.702   -24717.986      15.2149      13.1765      28.7324    5760.2466 
  952000       951.98    357.86634    14.941287    -674.8953   -659.95401    23847.312    44920.037    44450.921   -17829.023      15.2149      13.1765      28.7324    5760.2466 
  952500       952.48    371.69512    15.518653   -675.46998   -659.95133     24883.11    47237.849    48378.516   -20967.036      15.2149      13.1765      28.7324    5760.2466 
  953000       952.98    366.56363    15.304408   -675.25294   -659.94853    20895.433    45277.124    41995.101   -24585.925      15.2149      13.1765      28.7324    5760.2466 
  953500       953.48    381.05929    15.909617   -675.85613   -659.94651    21856.963    45313.739    48194.722   -27937.573      15.2149      13.1765      28.7324    5760.2466 
  954000       953.98    352.47863    14.716345    -674.6582   -659.94186    22117.344    45765.099    44488.298   -23901.364      15.2149      13.1765      28.7324    5760.2466 
  954500       954.48    377.29338    15.752386   -675.69214   -659.93976    22897.511    49283.979    43796.411   -24387.859      15.2149      13.1765      28.7324    5760.2466 
  955000       954.98    387.63469    16.184146   -676.12043   -659.93628    23504.605    43228.851    49944.918   -22659.956      15.2149      13.1765      28.7324    5760.2466 
  955500       955.48    368.74862    15.395633   -675.32813    -659.9325    22983.039    44710.133    48121.603   -23882.621      15.2149      13.1765      28.7324    5760.2466 
  956000       955.98    359.75039    15.019948   -674.94811   -659.92816    24471.172    46152.888    47275.618   -20014.991      15.2149      13.1765      28.7324    5760.2466 
  956500       956.48     361.4289    15.090028   -675.01423    -659.9242    23319.834    49165.533    48654.712   -27860.742      15.2149      13.1765      28.7324    5760.2466 
  957000       956.98    381.33347    15.921064   -675.84323   -659.92217     21599.68     44271.86    45380.469   -24853.288      15.2149      13.1765      28.7324    5760.2466 
  957500       957.48    369.96296    15.446333   -675.36551   -659.91918    21851.788    45243.814    47109.285   -26797.735      15.2149      13.1765      28.7324    5760.2466 
  958000       957.98    392.28602    16.378344   -676.29361   -659.91526    25226.487    46053.788    49328.661   -19702.987      15.2149      13.1765      28.7324    5760.2466 
  958500       958.48    374.33658    15.628937   -675.53972   -659.91078    22591.336    45508.354    45937.634    -23671.98      15.2149      13.1765      28.7324    5760.2466 
  959000       958.98    361.28993    15.084225   -674.99059   -659.90636    22736.328    43718.838    45557.272   -21067.128      15.2149      13.1765      28.7324    5760.2466 
  959500       959.48    374.67407    15.643027   -675.54669   -659.90366    24170.433    44454.405    51584.737   -23527.842      15.2149      13.1765      28.7324    5760.2466 
  960000       959.98    362.00651    15.114143   -675.01361   -659.89946    21907.028    49995.111    46359.456   -30633.483      15.2149      13.1765      28.7324    5760.2466 
  960500       960.48    358.43733    14.965127   -674.86106   -659.89594    23787.923    44809.367    48778.559   -22224.157      15.2149      13.1765      28.7324    5760.2466 
  961000       960.98    378.11058    15.786505   -675.67986   -659.89335     23241.46     46452.37    45656.211   -22384.199      15.2149      13.1765      28.7324    5760.2466 
  961500       961.48    359.41998    15.006153   -674.89493   -659.88878     22885.28    44412.104    48415.106    -24171.37      15.2149      13.1765      28.7324    5760.2466 
  962000       961.98    385.48379    16.094344   -675.97961   -659.88527    23142.545    43993.454    49009.095   -23574.915      15.2149      13.1765      28.7324    5760.2466 
  962500       962.48    368.84119    15.399498   -675.28058   -659.88108    24631.128    43106.121     50171.66   -19384.399      15.2149      13.1765      28.7324    5760.2466 
  963000       962.98    370.90666    15.485734   -675.36226   -659.87653    22214.604    48855.769    42509.333    -24721.29      15.2149      13.1765      28.7324    5760.2466 
  963500       963.48    371.85818    15.525461    -675.3987   -659.87324    24518.739    43654.214    48310.308   -18408.307      15.2149      13.1765      28.7324    5760.2466 
  964000       963.98    386.85057    16.151408   -676.02095   -659.86955    21743.545    46825.877    45680.765   -27276.007      15.2149      13.1765      28.7324    5760.2466 
  964500       964.48    356.95829    14.903375   -674.76872   -659.86535    21562.648    45333.193    48651.953   -29297.202      15.2149      13.1765      28.7324    5760.2466 
  965000       964.98    368.88571    15.401357   -675.26239   -659.86103    21857.149    43665.778    47938.427   -26032.759      15.2149      13.1765      28.7324    5760.2466 
  965500       965.48      376.504    15.719429   -675.57572   -659.85629    21386.066    45439.945    45910.514    -27192.26      15.2149      13.1765      28.7324    5760.2466 
  966000       965.98    402.46341    16.803261   -676.65538   -659.85212    24673.868    45519.309    49836.307   -21334.013      15.2149      13.1765      28.7324    5760.2466 
  966500       966.48    373.15248    15.579499   -675.42829   -659.84879    23239.641    46093.302    48204.979   -24579.359      15.2149      13.1765      28.7324    5760.2466 
  967000       966.98    349.22761    14.580611   -674.42296   -659.84235    22636.302    46607.523    44562.421   -23261.039      15.2149      13.1765      28.7324    5760.2466 
  967500       967.48    376.38682    15.714536   -675.55346   -659.83892    21453.182    45035.485    42871.252   -23547.193      15.2149      13.1765      28.7324    5760.2466 
  968000       967.98    373.57965    15.597334   -675.43289   -659.83556    23603.973    42628.573    49073.074   -20889.727      15.2149      13.1765      28.7324    5760.2466 
  968500       968.48    372.99114    15.572763   -675.40363   -659.83087    24993.236    47777.628    47169.284   -19967.205      15.2149      13.1765      28.7324    5760.2466 
  969000       968.98    365.49898    15.259958   -675.08589   -659.82593    20964.578    45969.391    43221.624   -26297.281      15.2149      13.1765      28.7324    5760.2466 
  969500       969.48    387.76122    16.189429   -676.01183    -659.8224    21283.051    46184.501    47974.321    -30309.67      15.2149      13.1765      28.7324    5760.2466 
  970000       969.98    342.73339    14.309471   -674.12602   -659.81655    23828.659    44730.153    49069.004    -22313.18      15.2149      13.1765      28.7324    5760.2466 
  970500       970.48    384.33573    16.046412   -675.85832   -659.81191    23102.426     45870.91    47958.095   -24521.727      15.2149      13.1765      28.7324    5760.2466 
  971000       970.98    382.97742    15.989701    -675.7979    -659.8082    23007.669     47712.13     43397.89   -22087.013      15.2149      13.1765      28.7324    5760.2466 
  971500       971.48    368.99682    15.405996   -675.20945   -659.80345    22964.242    47820.099     48423.49   -27350.862      15.2149      13.1765      28.7324    5760.2466 
  972000       971.98    384.92103    16.070848   -675.87022   -659.79937     22033.63    46543.537    45681.418   -26124.066      15.2149      13.1765      28.7324    5760.2466 
  972500       972.48    383.79285    16.023745   -675.81838   -659.79463    23416.534    44617.561    46141.221    -20509.18      15.2149      13.1765      28.7324    5760.2466 
  973000       972.98    363.14347    15.161613   -674.95093   -659.78932    25393.001    49471.331    46867.931   -20160.258      15.2149      13.1765      28.7324    5760.2466 
  973500       973.48    388.51678    16.220975   -676.00717    -659.7862    22768.893    44396.618    46479.167   -22569.104      15.2149      13.1765      28.7324    5760.2466 
  974000       973.98    388.88314     16.23627   -676.01737    -659.7811    22142.376    43491.205    48576.079   -25640.156      15.2149      13.1765      28.7324    5760.2466 
  974500       974.48    379.49304    15.844224   -675.62041   -659.77619     23469.94    44400.451    51086.409   -25077.041      15.2149      13.1765      28.7324    5760.2466 
  975000       974.98    394.80799    16.483639   -676.25491   -659.77127    25504.893    46769.199    47692.925   -17947.445      15.2149      13.1765      28.7324    5760.2466 
  975500       975.48    382.57465    15.972885   -675.73925   -659.76636     25310.13    49414.705    48268.847   -21753.161      15.2149      13.1765      28.7324    5760.2466 
  976000       975.98    384.39613    16.048933   -675.81058   -659.76165    21919.896    41927.084    45732.819   -21900.214      15.2149      13.1765      28.7324    5760.2466 
  976500       976.48     379.2336    15.833392    -675.5891   -659.75571    23574.658    52525.844    44682.126   -26483.997      15.2149      13.1765      28.7324    5760.2466 
  977000       976.98    380.05616    15.867735    -675.6185   -659.75076    23379.613    44004.571     52535.86   -26401.593      15.2149      13.1765      28.7324    5760.2466 
  977500       977.48    404.05873    16.869867   -676.61684   -659.74697    22945.174    41662.154    53331.024   -26157.655      15.2149      13.1765      28.7324    5760.2466 
  978000       977.98    369.29695    15.418527   -675.15787   -659.73935    22281.061    40658.158    48145.771   -21960.744      15.2149      13.1765      28.7324    5760.2466 
  978500       978.48    388.30795    16.212256   -675.94837   -659.73611     23829.86    46505.135    49159.113   -24174.668      15.2149      13.1765      28.7324    5760.2466 
  979000       978.98    379.92536    15.862274   -675.59263   -659.73035     22922.29    46296.402    46725.983   -24255.515      15.2149      13.1765      28.7324    5760.2466 
  979500       979.48    387.88935    16.194778   -675.92025   -659.72547    25368.742    47892.828    47062.276   -18848.878      15.2149      13.1765      28.7324    5760.2466 
  980000       979.98    372.00801    15.531716   -675.25114   -659.71942      21596.2    42448.567    47559.731   -25219.699      15.2149      13.1765      28.7324    5760.2466 
  980500       980.48    358.52702    14.968871   -674.68322   -659.71435    23199.609    41958.987    48615.387   -20975.547      15.2149      13.1765      28.7324    5760.2466 
  981000       980.98     379.7066    15.853141   -675.56298   -659.70984     21881.61    47884.593    45840.667   -28080.431      15.2149      13.1765      28.7324    5760.2466 
  981500       981.48    383.58948    16.015255   -675.71959   -659.70433    23106.587    49852.777    46128.838   -26661.855      15.2149      13.1765      28.7324    5760.2466 
  982000       981.98    363.95521    15.195504    -674.8938   -659.69829    24239.436    47000.333     44587.51   -18869.535      15.2149      13.1765      28.7324    5760.2466 
  982500       982.48    364.15328    15.203773   -674.89553   -659.69176    22606.821    46512.433    47582.269   -26274.238      15.2149      13.1765      28.7324    5760.2466 
  983000       982.98    370.69734    15.476995   -675.16477   -659.68777    23723.288    46812.224    44442.361   -20084.722      15.2149      13.1765      28.7324    5760.2466 
  983500       983.48    367.70034    15.351867   -675.03368   -659.68181    21581.514    43986.757    44645.701   -23887.915      15.2149      13.1765      28.7324    5760.2466 
  984000       983.98     381.8422    15.942304   -675.61952   -659.67722     23211.94    47472.069     45750.35   -23586.601      15.2149      13.1765      28.7324    5760.2466 
  984500       984.48    368.45514     15.38338   -675.05449   -659.67111    22738.882    45718.833    46805.901   -24308.087      15.2149      13.1765      28.7324    5760.2466 
  985000       984.98    367.01133      15.3231   -674.98797   -659.66487    21551.274    44026.997    47670.841   -27044.015      15.2149      13.1765      28.7324    5760.2466 
  985500       985.48     378.5802    15.806112   -675.46554   -659.65942    22089.205    42838.121    48610.248   -25180.754      15.2149      13.1765      28.7324    5760.2466 
  986000       985.98     362.4919    15.134409   -674.78798   -659.65358    21691.366     43568.05    47384.713   -25878.664      15.2149      13.1765      28.7324    5760.2466 
  986500       986.48    378.29041    15.794013   -675.44206   -659.64804    25154.196    48256.133    52610.431   -25403.977      15.2149      13.1765      28.7324    5760.2466 
  987000       986.98    382.81137    15.982768   -675.62635   -659.64358    21876.699    46510.256    46104.147   -26984.307      15.2149      13.1765      28.7324    5760.2466 
  987500       987.48     368.8867    15.401399   -675.03825   -659.63686    23361.456    47602.459    52513.143   -30031.235      15.2149      13.1765      28.7324    5760.2466 
  988000       987.98     379.1714    15.830795   -675.46223   -659.63143    25495.855     46199.39     45212.82   -14924.646      15.2149      13.1765      28.7324    5760.2466 
  988500       988.48    377.29445    15.752431   -675.37791   -659.62548     21165.42    48363.812    45023.465   -29891.017      15.2149      13.1765      28.7324    5760.2466 
  989000       988.98    370.25165    15.458387   -675.07796   -659.61958    22828.436    44073.183     48199.88   -23787.755      15.2149      13.1765      28.7324    5760.2466 
  989500       989.48    392.87508    16.402938   -676.01681   -659.61387    24505.715    47367.132    48066.089   -21916.076      15.2149      13.1765      28.7324    5760.2466 
  990000       989.98    368.63982    15.391091   -674.99925   -659.60816    22752.802    48934.905    43875.988   -24552.487      15.2149      13.1765      28.7324    5760.2466 
  990500       990.48    373.52549    15.595073   -675.19816   -659.60309    22678.381    44400.952    42811.338   -19177.146      15.2149      13.1765      28.7324    5760.2466 
  991000       990.98    378.86771    15.818116   -675.41524   -659.59712    24016.744    48561.419    47914.116   -24425.303      15.2149      13.1765      28.7324    5760.2466 
  991500       991.48    362.62031     15.13977   -674.72898   -659.58921    21347.271    46097.578    47389.818   -29445.581      15.2149      13.1765      28.7324    5760.2466 
  992000       991.98     369.0006    15.406154   -674.98963   -659.58347    22791.666     48082.79    48489.045   -28196.838      15.2149      13.1765      28.7324    5760.2466 
  992500       992.48     376.7173    15.728334   -675.30615   -659.57782    22707.462    45478.217    45252.202   -22608.033      15.2149      13.1765      28.7324    5760.2466 
  993000       992.98    369.67726    15.434405    -675.0066    -659.5722    23138.196    48703.181    47726.428   -27015.021      15.2149      13.1765      28.7324    5760.2466 
  993500       993.48    343.70267    14.349939   -673.91446   -659.56452    22431.924    47483.578    46691.994     -26879.8      15.2149      13.1765      28.7324    5760.2466 
  994000       993.98    377.86322    15.776178   -675.33499   -659.55881    23679.986    46917.421    47076.495   -22953.958      15.2149      13.1765      28.7324    5760.2466 
  994500       994.48    377.57603    15.764187   -675.31669    -659.5525    24683.137    46145.807     49291.34   -21387.736      15.2149      13.1765      28.7324    5760.2466 
  995000       994.98    394.73362    16.480534    -676.0286   -659.54807    24771.554    46287.891    45411.483   -17384.713      15.2149      13.1765      28.7324    5760.2466 
  995500       995.48    386.49773    16.136677   -675.67689   -659.54021    22699.734     44930.28    48204.018   -25035.097      15.2149      13.1765      28.7324    5760.2466 
  996000       995.98    391.78424    16.357394   -675.89272   -659.53532    22291.385     45987.11    43441.996   -22554.952      15.2149      13.1765      28.7324    5760.2466 
  996500       996.48    389.87014    16.277479   -675.80677   -659.52929    22897.618    43706.594    48446.332   -23460.071      15.2149      13.1765      28.7324    5760.2466 
  997000       996.98    363.31694    15.168855   -674.68987   -659.52102    23576.303    46791.452    47185.574   -23248.116      15.2149      13.1765      28.7324    5760.2466 
  997500       997.48    379.00402    15.823807   -675.33951    -659.5157    21028.869     46238.92    46955.712   -30108.024      15.2149      13.1765      28.7324    5760.2466 
  998000       997.98    392.10721    16.370878   -675.88033   -659.50945    22954.852    43789.749    43258.741   -18183.934      15.2149      13.1765      28.7324    5760.2466 
  998500       998.48    381.53559    15.929503    -675.4315   -659.50199    21873.266    44269.908    45960.769   -24610.878      15.2149      13.1765      28.7324    5760.2466 
  999000       998.98    357.44374    14.923643   -674.41763   -659.49399    23826.811    45548.951    52342.679   -26411.197      15.2149      13.1765      28.7324    5760.2466 
  999500       999.48    398.90095    16.654524    -676.1436   -659.48908    24092.101    43256.844    52742.445   -23722.984      15.2149      13.1765      28.7324    5760.2466 
 1000000       999.98    398.03273    16.618275   -676.10077    -659.4825    23108.756    49489.321     45107.13   -25270.183      15.2149      13.1765      28.7324    5760.2466 
 1000020         1000    372.80399    15.564949   -675.04693   -659.48198    24724.868    48741.892    46581.787   -21149.075      15.2149      13.1765      28.7324    5760.2466 
Loop time of 962.185 on 28 procs for 1000000 steps with 324 atoms

Performance: 89.796 ns/day, 0.267 hours/ns, 1039.301 timesteps/s
89.5% CPU use with 28 MPI tasks x no OpenMP threads

MPI task timing breakdown:
Section |  min time  |  avg time  |  max time  |%varavg| %total
---------------------------------------------------------------
Pair    | 736.73     | 816.42     | 893.57     | 141.8 | 84.85
Neigh   | 0          | 0          | 0          |   0.0 |  0.00
Comm    | 51.771     | 132        | 213.62     | 365.1 | 13.72
Output  | 0.097756   | 0.099827   | 0.11564    |   1.0 |  0.01
Modify  | 4.6096     | 8.6676     | 18.794     | 144.9 |  0.90
Other   |            | 4.996      |            |       |  0.52

Nlocal:    11.5714 ave 15 max 6 min
Histogram: 3 1 3 1 0 1 5 6 3 5
Nghost:    645.393 ave 702 max 600 min
Histogram: 5 4 3 2 2 2 2 4 1 3
Neighs:    725.321 ave 1016 max 364 min
Histogram: 3 1 3 1 3 1 7 2 4 3
FullNghs:  1450.64 ave 1926 max 754 min
Histogram: 3 1 3 1 0 1 5 6 3 5

Total # of neighbors = 40618
Ave neighs/atom = 125.364
Neighbor list builds = 0
Dangerous builds = 0

write_restart   POSCAR_1x1x1.rest

#unfix    1
#undump   1
Total wall time: 0:16:02
