LAMMPS (7 Dec 2015)
#----------- Initialize Simulation ------------ restart01
#processors	2 2 2
units		metal
boundary	p p p     ## periodic boundary condition  on x y z axis ##
atom_style atomic
#atom_modify map array sort 0 0.0

read_data	POSCAR_1x1x1.lammps
  triclinic box = (0 0 0) to (15.2149 13.1765 28.7324) with tilt (-7.60743 0 0)
  2 by 2 by 7 MPI processor grid
  reading atoms ...
  324 atoms

#----------- Define Potential -----------------
pair_style meam
pair_coeff * * MgAlZn.library.meam Mg Al Zn MgAlZn.parameter.meam Mg Al Zn 	#1=Mg 2=Al 3=Zn	#atoms/mass

#----------- Neighbor List --------------------
neighbor 2.0 bin
neigh_modify delay 10 check yes

#--------------  Run a simulation (minimization) ---------------------------------------
minimize       1.0e-4   1.0e-6   100   1000          #結構優化的條件
WARNING: Resetting reneighboring criteria during minimization (../min.cpp:168)
Neighbor list info ...
  2 neighbor list requests
  update every 1 steps, delay 0 steps, check yes
  max neighbors/atom: 2000, page size: 100000
  master list distance cutoff = 8
  ghost atom cutoff = 8
  binsize = 4 -> bins = 6 4 8
Memory usage per processor = 8.6486 Mbytes
Step Temp E_pair E_mol TotEng Press 
       0            0    -681.2873            0    -681.2873    19384.525 
      14            0   -696.74524            0   -696.74524     18081.09 
Loop time of 0.026049 on 28 procs for 14 steps with 324 atoms

86.6% CPU use with 28 MPI tasks x no OpenMP threads

Minimization stats:
  Stopping criterion = energy tolerance
  Energy initial, next-to-last, final = 
        -681.287297905     -696.692634817     -696.745236143
  Force two-norm initial, final = 21.3775 1.37906
  Force max component initial, final = 2.82366 0.528533
  Final line search alpha, max atom move = 0.273716 0.144668
  Iterations, force evaluations = 14 26

MPI task timing breakdown:
Section |  min time  |  avg time  |  max time  |%varavg| %total
---------------------------------------------------------------
Pair    | 0.019899   | 0.021713   | 0.023935   |   0.7 | 83.35
Neigh   | 0          | 0          | 0          |   0.0 |  0.00
Comm    | 0.0013019  | 0.0033409  | 0.0052526  |   1.8 | 12.83
Output  | 0          | 0          | 0          |   0.0 |  0.00
Modify  | 0          | 0          | 0          |   0.0 |  0.00
Other   |            | 0.0009954  |            |       |  3.82

Nlocal:    11.5714 ave 16 max 7 min
Histogram: 2 0 3 5 3 5 4 4 0 2
Nghost:    645.607 ave 706 max 601 min
Histogram: 4 3 5 3 2 3 2 2 2 2
Neighs:    724.786 ave 1051 max 428 min
Histogram: 2 1 3 6 3 6 1 4 0 2
FullNghs:  1449.57 ave 2026 max 881 min
Histogram: 2 0 3 5 3 5 4 4 0 2

Total # of neighbors = 40588
Ave neighs/atom = 125.272
Neighbor list builds = 0
Dangerous builds = 0
velocity all  create 393.0 4928459 #rot yes dist gaussian

#--------------  Run a simulation (Relaxation)  ----------------------------------------
fix  1  all  nvt   temp  393.0  393.0  100				#damping constant
#fix  2  all  npt   temp  393.0  393.0  50 iso 0.0 0.0 1000.0
#fix  2  all deform 1 x final 0 15.6906 y final 0 13.5884 z final 0 25.2339 xy final -7.8452 units lattice
#fix  3  all  npt   temp  393.0  393.0  50 z 0.0 0.0 1000.0

#variable b equal 1
#fix 2 all efield  0.0  0.0  v_b
#compute pot all pe/atom


#----------- Output --------------------------
thermo	 500
timestep  0.001		#1.0 fs
thermo_style	custom step time temp ke pe etotal press pxx pyy pzz lx ly lz vol

dump 1 all custom 10000 dump.eq id type x y z
dump_modify 1 sort  id

run        1000000	#10000	 ps
Neighbor list info ...
  2 neighbor list requests
  update every 1 steps, delay 10 steps, check yes
  max neighbors/atom: 2000, page size: 100000
  master list distance cutoff = 8
  ghost atom cutoff = 8
  binsize = 4 -> bins = 6 4 8
Memory usage per processor = 7.54095 Mbytes
Step Time Temp KinEng PotEng TotEng Press Pxx Pyy Pzz Lx Ly Lz Volume 
      14            0          393    16.408154   -696.74524   -680.33708     21123.64    41037.044     39968.31   -17634.435      15.2149      13.1765      28.7324    5760.2466 
     500        0.486    217.60762    9.0853415    -689.4171   -680.33176    24302.767    45812.529    46962.361   -19866.588      15.2149      13.1765      28.7324    5760.2466 
    1000        0.986    221.34184     9.241249   -689.57338   -680.33213     22815.07    47179.881    44836.136   -23570.808      15.2149      13.1765      28.7324    5760.2466 
    1500        1.486    221.18306    9.2346197   -689.56595   -680.33133    24149.927    44134.015    46187.977   -17872.211      15.2149      13.1765      28.7324    5760.2466 
    2000        1.986    219.79244    9.1765603   -689.50708   -680.33052    23251.668    44425.752    46329.677   -21000.425      15.2149      13.1765      28.7324    5760.2466 
    2500        2.486    218.84446     9.136981   -689.46641   -680.32943     23035.42     42985.07    46608.559   -20487.369      15.2149      13.1765      28.7324    5760.2466 
    3000        2.986    227.91558    9.5157097   -689.84535   -680.32964    24493.151    44447.295    44786.889    -15754.73      15.2149      13.1765      28.7324    5760.2466 
    3500        3.486    221.29193    9.2391652   -689.56654   -680.32738     22587.35    44728.703    44386.616   -21353.269      15.2149      13.1765      28.7324    5760.2466 
    4000        3.986    224.18207    9.3598315    -689.6855   -680.32567     23561.89    43159.256    46988.121   -19461.708      15.2149      13.1765      28.7324    5760.2466 
    4500        4.486    228.23855    9.5291937   -689.85384   -680.32465    22144.946    45839.056    43175.465   -22579.684      15.2149      13.1765      28.7324    5760.2466 
    5000        4.986    225.42254    9.4116224   -689.73387   -680.32225    25077.166    44848.265    47468.459   -17085.225      15.2149      13.1765      28.7324    5760.2466 
    5500        5.486    224.34743    9.3667356   -689.68664   -680.31991    25310.494    44269.256    46647.373   -14985.148      15.2149      13.1765      28.7324    5760.2466 
    6000        5.986    224.27472       9.3637   -689.68148   -680.31778    22502.212    44762.995    45929.007   -23185.366      15.2149      13.1765      28.7324    5760.2466 
    6500        6.486    215.46905     8.996054   -689.31083   -680.31477    22919.834    43445.801    47194.143   -21880.442      15.2149      13.1765      28.7324    5760.2466 
    7000        6.986    221.67381    9.2551093   -689.56771    -680.3126    23383.944     41237.58    45887.031    -16972.78      15.2149      13.1765      28.7324    5760.2466 
    7500        7.486    220.76427    9.2171352   -689.52678   -680.30965    24293.545    47876.192    43115.846   -18111.404      15.2149      13.1765      28.7324    5760.2466 
    8000        7.986    231.20532    9.6530596   -689.95934   -680.30628    23731.314    46015.441    44456.495   -19277.996      15.2149      13.1765      28.7324    5760.2466 
    8500        8.486    228.75227    9.5506421   -689.85301   -680.30237    24006.531    44739.551    46008.623    -18728.58      15.2149      13.1765      28.7324    5760.2466 
    9000        8.986    234.95191    9.8094834   -690.10891   -680.29943     23252.01    42791.046    45797.739   -18832.756      15.2149      13.1765      28.7324    5760.2466 
    9500        9.486    239.58366    10.002864   -690.29852   -680.29565    23340.667    43801.411    45960.082    -19739.49      15.2149      13.1765      28.7324    5760.2466 
   10000        9.986    228.60494    9.5444911   -689.83718   -680.29269    22286.313    43649.453    44492.566   -21283.079      15.2149      13.1765      28.7324    5760.2466 
   10500       10.486    222.94787    9.3083026   -689.59595   -680.28765    22793.451    44253.091    44583.186   -20455.924      15.2149      13.1765      28.7324    5760.2466 
   11000       10.986     239.1204    9.9835224   -690.26746   -680.28394    25306.264    42725.651    45300.478   -12107.337      15.2149      13.1765      28.7324    5760.2466 
   11500       11.486    236.93701    9.8923633   -690.17211   -680.27974    24286.467    44470.132    47051.908   -18662.638      15.2149      13.1765      28.7324    5760.2466 
   12000       11.986    220.75837    9.2168888   -689.49019    -680.2733    23660.862    43573.109    43870.109   -16460.633      15.2149      13.1765      28.7324    5760.2466 
   12500       12.486    228.55221    9.5422894   -689.81125   -680.26896    23867.195    48289.568    43754.368   -20442.352      15.2149      13.1765      28.7324    5760.2466 
   13000       12.986    221.82817     9.261554   -689.52501   -680.26346    23670.493    43715.074    45517.069   -18220.663      15.2149      13.1765      28.7324    5760.2466 
   13500       13.486    229.54898    9.5839057   -689.84179   -680.25788    23866.001    40384.003    46479.706   -15265.705      15.2149      13.1765      28.7324    5760.2466 
   14000       13.986    230.36088    9.6178031   -689.87068   -680.25288     23541.07    42438.214    47700.236    -19515.24      15.2149      13.1765      28.7324    5760.2466 
   14500       14.486    224.02706    9.3533596   -689.60023   -680.24687    24219.852    45328.592    44214.336   -16883.372      15.2149      13.1765      28.7324    5760.2466 
   15000       14.986    220.87102    9.2215919   -689.46189    -680.2403    23765.204    44591.668    44448.639   -17744.696      15.2149      13.1765      28.7324    5760.2466 
   15500       15.486    236.16722    9.8602241   -690.09473   -680.23451    21343.756     44786.98    43611.335   -24367.046      15.2149      13.1765      28.7324    5760.2466 
   16000       15.986    212.68663    8.8798853   -689.10698    -680.2271    24468.446    46157.598    45294.091   -18046.352      15.2149      13.1765      28.7324    5760.2466 
   16500       16.486    236.19887    9.8615455   -690.08333   -680.22178    24272.692    45942.664    47633.746   -20758.334      15.2149      13.1765      28.7324    5760.2466 
   17000       16.986    228.97184    9.5598092   -689.77496   -680.21515    23740.939    46649.532    45583.847    -21010.56      15.2149      13.1765      28.7324    5760.2466 
   17500       17.486    222.46049    9.2879538   -689.49562   -680.20767    23816.918    45191.156    46617.247   -20357.649      15.2149      13.1765      28.7324    5760.2466 
   18000       17.986    221.56347    9.2505024   -689.44995   -680.19945    23470.445    43818.829    47926.916   -21334.409      15.2149      13.1765      28.7324    5760.2466 
   18500       18.486    238.13866    9.9425335   -690.13582   -680.19329    23778.893    49340.149     43841.06    -21844.53      15.2149      13.1765      28.7324    5760.2466 
   19000       18.986    223.06793    9.3133151   -689.49862   -680.18531     23036.98    43754.755     46126.46   -20770.275      15.2149      13.1765      28.7324    5760.2466 
   19500       19.486     224.7912    9.3852635   -689.56281   -680.17754    23941.177    45702.929     47445.58   -21324.979      15.2149      13.1765      28.7324    5760.2466 
   20000       19.986    224.56042    9.3756282   -689.54488   -680.16925    24227.533    42164.643    47393.984   -16876.028      15.2149      13.1765      28.7324    5760.2466 
   20500       20.486     222.6956    9.2977698   -689.45839   -680.16063    23557.983    40950.542    47642.869   -17919.462      15.2149      13.1765      28.7324    5760.2466 
   21000       20.986    231.52414    9.6663708   -689.81957    -680.1532    23354.808    45738.531    42426.927   -18101.034      15.2149      13.1765      28.7324    5760.2466 
   21500       21.486    224.77308    9.3845071   -689.52893   -680.14442    25123.606    44909.322    46541.443   -16079.949      15.2149      13.1765      28.7324    5760.2466 
   22000       21.986    226.01303     9.436276   -689.57181   -680.13553    23541.403    43653.617     45781.99   -18811.399      15.2149      13.1765      28.7324    5760.2466 
   22500       22.486    228.73078    9.5497449   -689.67643   -680.12668    24884.626    44821.279    47194.758    -17362.16      15.2149      13.1765      28.7324    5760.2466 
   23000       22.986    231.34924    9.6590681    -689.7768   -680.11774    23270.041    49047.075     47484.34   -26721.293      15.2149      13.1765      28.7324    5760.2466 
   23500       23.486    233.93828    9.7671633   -689.87536    -680.1082    25920.194    44744.544     49198.05   -16182.012      15.2149      13.1765      28.7324    5760.2466 
   24000       23.986    222.86599    9.3048839   -689.40319   -680.09831      23092.8    46405.045      43634.9   -20761.544      15.2149      13.1765      28.7324    5760.2466 
   24500       24.486    230.18928     9.610639   -689.69962   -680.08898     24409.78    44158.631    47093.196   -18022.487      15.2149      13.1765      28.7324    5760.2466 
   25000       24.986    232.79942     9.719615    -689.7993   -680.07969    23396.774     44259.32     45491.29   -19560.288      15.2149      13.1765      28.7324    5760.2466 
   25500       25.486    208.65938    8.7117432   -688.78029   -680.06855    23710.284     44304.56    46790.446   -19964.152      15.2149      13.1765      28.7324    5760.2466 
   26000       25.986    231.94798    9.6840664   -689.74324   -680.05917    22756.785    45982.286    42206.738   -19918.668      15.2149      13.1765      28.7324    5760.2466 
   26500       26.486    238.54198    9.9593726   -690.00849   -680.04912    22738.074    44348.948    47696.019   -23830.744      15.2149      13.1765      28.7324    5760.2466 
   27000       26.986    243.16799    10.152513   -690.19089   -680.03837    25453.003    46499.213    46234.194   -16374.398      15.2149      13.1765      28.7324    5760.2466 
   27500       27.486    230.40394    9.6196013   -689.64717   -680.02757    23674.698    44588.337    47429.761   -20994.004      15.2149      13.1765      28.7324    5760.2466 
   28000       27.986    235.20725    9.8201443   -689.83673   -680.01659      24519.4    44390.729    46852.803   -17685.331      15.2149      13.1765      28.7324    5760.2466 
   28500       28.486    228.20154    9.5276485   -689.53344   -680.00579    25042.979    47106.255    44788.016   -16765.335      15.2149      13.1765      28.7324    5760.2466 
   29000       28.986    241.04465    10.063861   -690.05881   -679.99495    24767.107     48229.68    46060.526   -19988.884      15.2149      13.1765      28.7324    5760.2466 
   29500       29.486    230.47393    9.6225232   -689.60568   -679.98316    22524.958    43579.586    43934.781   -19939.493      15.2149      13.1765      28.7324    5760.2466 
   30000       29.986    246.16135    10.277489   -690.24999    -679.9725    23915.805    48650.549    45538.794   -22441.929      15.2149      13.1765      28.7324    5760.2466 
   30500       30.486     235.1263    9.8167646   -689.77721   -679.96044    24467.558    43205.376    49043.011   -18845.712      15.2149      13.1765      28.7324    5760.2466 
   31000       30.986    234.87653    9.8063364   -689.75502   -679.94868    25693.178    44072.877    50131.915   -17125.258      15.2149      13.1765      28.7324    5760.2466 
   31500       31.486    241.27219    10.073362   -690.01074   -679.93738    24614.089    43087.043    42346.299   -11591.077      15.2149      13.1765      28.7324    5760.2466 
   32000       31.986    222.42443    9.2864485   -689.21028   -679.92383    23543.402    45314.798    44412.098    -19096.69      15.2149      13.1765      28.7324    5760.2466 
   32500       32.486    234.98422    9.8108327   -689.72356   -679.91273    23833.186    46180.478    44435.448    -19116.37      15.2149      13.1765      28.7324    5760.2466 
   33000       32.986    235.14072    9.8173665   -689.71803   -679.90067    23929.666    44917.636     45402.05   -18530.689      15.2149      13.1765      28.7324    5760.2466 
   33500       33.486     224.4702    9.3718613   -689.25984   -679.88798    24025.926    46896.245     46250.73   -21069.197      15.2149      13.1765      28.7324    5760.2466 
   34000       33.986    236.02013    9.8540826   -689.72999   -679.87591    22777.933    43103.552    46609.427   -21379.181      15.2149      13.1765      28.7324    5760.2466 
   34500       34.486    221.03409    9.2284003   -689.09178   -679.86338    24155.518    42794.129    47209.232   -17536.808      15.2149      13.1765      28.7324    5760.2466 
   35000       34.986    232.01799    9.6869895   -689.53797   -679.85098    24190.188    44814.172    45480.248   -17723.857      15.2149      13.1765      28.7324    5760.2466 
   35500       35.486    231.87148    9.6808724   -689.51913   -679.83826     25198.46    42868.449    50257.638   -17530.709      15.2149      13.1765      28.7324    5760.2466 
   36000       35.986    243.61806    10.171304   -689.99706   -679.82575    24260.148    43914.278    48014.323   -19148.158      15.2149      13.1765      28.7324    5760.2466 
   36500       36.486    235.94888     9.851108   -689.66445   -679.81334    24550.929    44929.195    45139.728   -16416.137      15.2149      13.1765      28.7324    5760.2466 
   37000       36.986    231.86183    9.6804695   -689.48003   -679.79956    25500.446    44910.826    48014.831   -16424.318      15.2149      13.1765      28.7324    5760.2466 
   37500       37.486    232.23218     9.695932   -689.48335   -679.78741    23703.795    45671.876    45352.893   -19913.385      15.2149      13.1765      28.7324    5760.2466 
   38000       37.986    224.93736    9.3913656     -689.165   -679.77364    23954.084    43704.124    44260.557    -16102.43      15.2149      13.1765      28.7324    5760.2466 
   38500       38.486    220.30577    9.1979923   -688.95877   -679.76078    22713.482    42320.121    42508.862   -16688.537      15.2149      13.1765      28.7324    5760.2466 
   39000       38.986    239.38638     9.994627   -689.74349   -679.74886    25223.164    49167.398    47724.067   -21221.972      15.2149      13.1765      28.7324    5760.2466 
   39500       39.486      232.986    9.7274046   -689.46292   -679.73552    22916.924    43389.057    44657.953   -19296.237      15.2149      13.1765      28.7324    5760.2466 
   40000       39.986    246.14754    10.276912   -689.99992   -679.72301    23384.555    44941.957    45460.811   -20249.103      15.2149      13.1765      28.7324    5760.2466 
   40500       40.486    229.05342    9.5632154   -689.27178   -679.70857    23624.501    40563.103    46790.887   -16480.487      15.2149      13.1765      28.7324    5760.2466 
   41000       40.986    227.14036    9.4833433   -689.17893   -679.69558    23306.518    42121.575    47004.623   -19206.643      15.2149      13.1765      28.7324    5760.2466 
   41500       41.486    233.26233    9.7389417   -689.42161   -679.68267    23199.708    43655.922    45265.969   -19322.766      15.2149      13.1765      28.7324    5760.2466 
   42000       41.986    237.40187    9.9117719    -689.5815   -679.66973    23394.535    43465.444     46903.82    -20185.66      15.2149      13.1765      28.7324    5760.2466 
   42500       42.486    239.69613     10.00756   -689.66427   -679.65671    22784.702    44162.273    43969.096   -19777.264      15.2149      13.1765      28.7324    5760.2466 
   43000       42.986    227.91035    9.5154912   -689.15881   -679.64332    22214.238    42646.179    45012.983   -21016.448      15.2149      13.1765      28.7324    5760.2466 
   43500       43.486    235.06419    9.8141713   -689.44456   -679.63039    24565.565    45550.579    46588.287   -18442.172      15.2149      13.1765      28.7324    5760.2466 
   44000       43.986    242.12786    10.109087     -689.727   -679.61791    24196.759    42933.586    46077.148   -16420.457      15.2149      13.1765      28.7324    5760.2466 
   44500       44.486    232.96186    9.7263969   -689.33004   -679.60364    23353.751      45155.5    50253.166   -25347.412      15.2149      13.1765      28.7324    5760.2466 
   45000       44.986    218.99847    9.1434108   -688.73398   -679.59056    23926.649    46926.917    44044.967   -19191.935      15.2149      13.1765      28.7324    5760.2466 
   45500       45.486     230.7489    9.6340034   -689.21197   -679.57796    23965.039    43202.271    46956.395   -18263.549      15.2149      13.1765      28.7324    5760.2466 
   46000       45.986    236.91259    9.8913437   -689.45705    -679.5657    23368.385    43027.093    46904.255   -19826.193      15.2149      13.1765      28.7324    5760.2466 
   46500       46.486    243.48125    10.165592   -689.71742   -679.55183    23480.191    44668.978    44508.361   -18736.766      15.2149      13.1765      28.7324    5760.2466 
   47000       46.986    241.35299    10.076735   -689.61573     -679.539    22904.513    46526.829    45250.858   -23064.147      15.2149      13.1765      28.7324    5760.2466 
   47500       47.486    234.93523    9.8087869   -689.33491   -679.52612    22674.741    44507.997    42245.108   -18728.882      15.2149      13.1765      28.7324    5760.2466 
   48000       47.986     216.6512    9.0454099   -688.55738   -679.51197     22758.43    43903.423    45684.479   -21312.613      15.2149      13.1765      28.7324    5760.2466 
   48500       48.486    238.43949    9.9550936   -689.45589    -679.5008    25886.055    46311.444    47841.653   -16494.933      15.2149      13.1765      28.7324    5760.2466 
   49000       48.986    232.29271    9.6984593   -689.18588   -679.48742     23749.76    44098.489    43567.606   -16416.816      15.2149      13.1765      28.7324    5760.2466 
   49500       49.486    238.02489    9.9377836   -689.41245   -679.47467    23874.782    46649.625    43808.857   -18834.135      15.2149      13.1765      28.7324    5760.2466 
   50000       49.986    251.16137    10.486245   -689.94803   -679.46178    25092.333    43875.936    47988.713   -16587.649      15.2149      13.1765      28.7324    5760.2466 
   50500       50.486    243.53996    10.168043   -689.61721   -679.44916    22782.257    45359.827    45471.902   -22484.959      15.2149      13.1765      28.7324    5760.2466 
   51000       50.986    231.55045    9.6674689   -689.10325   -679.43578     23755.49     46083.36    45895.982   -20712.872      15.2149      13.1765      28.7324    5760.2466 
   51500       51.486    228.98081    9.5601838   -688.98373   -679.42355    23947.183    45130.146    47106.016   -20394.615      15.2149      13.1765      28.7324    5760.2466 
   52000       51.986    237.41783    9.9124384    -689.3233   -679.41086    23996.467    45372.404    45061.812   -18444.815      15.2149      13.1765      28.7324    5760.2466 
   52500       52.486    241.21391    10.070929   -689.46966   -679.39873    23110.675     44858.19    47382.218   -22908.384      15.2149      13.1765      28.7324    5760.2466 
   53000       52.986    242.97173    10.144319    -689.5318   -679.38748    24526.209    42710.789    47047.036   -16179.197      15.2149      13.1765      28.7324    5760.2466 
   53500       53.486    239.15923    9.9851435   -689.35916   -679.37402    24745.839    45954.187    45120.515   -16837.185      15.2149      13.1765      28.7324    5760.2466 
   54000       53.986    234.54412    9.7924579   -689.15376    -679.3613    24957.532    46323.325    48676.727   -20127.456      15.2149      13.1765      28.7324    5760.2466 
   54500       54.486    239.95791    10.018489   -689.36881   -679.35032    23475.077    43227.482    46635.561   -19437.811      15.2149      13.1765      28.7324    5760.2466 
   55000       54.986    251.49416    10.500139   -689.83802   -679.33788    24090.111    45288.814    45179.144   -18197.625      15.2149      13.1765      28.7324    5760.2466 
   55500       55.486    232.76287    9.7180888   -689.04313   -679.32505    23922.044    46159.238    44558.006   -18951.111      15.2149      13.1765      28.7324    5760.2466 
   56000       55.986    244.85457     10.22293   -689.53692   -679.31399    24130.425    44583.234     47731.42   -19923.378      15.2149      13.1765      28.7324    5760.2466 
   56500       56.486    237.35502    9.9098158   -689.21144   -679.30163    23564.725    44570.724    46722.188   -20598.736      15.2149      13.1765      28.7324    5760.2466 
   57000       56.986    245.50429    10.250056   -689.54033   -679.29027    23611.094     46216.81    44365.542    -19749.07      15.2149      13.1765      28.7324    5760.2466 
   57500       57.486    238.52796    9.9587873   -689.23673   -679.27794    22940.479    44355.552     47409.77   -22943.884      15.2149      13.1765      28.7324    5760.2466 
   58000       57.986    240.89695    10.057695   -689.32511   -679.26741    24902.388    45222.917    46527.202   -17042.957      15.2149      13.1765      28.7324    5760.2466 
   58500       58.486    236.55112    9.8762522   -689.13138   -679.25513    23548.662    45903.724    46051.409   -21309.146      15.2149      13.1765      28.7324    5760.2466 
   59000       58.986    235.57041    9.8353063   -689.07884   -679.24354    24976.263    44140.389    49344.689   -18556.288      15.2149      13.1765      28.7324    5760.2466 
   59500       59.486    252.44184    10.539706   -689.77212   -679.23242    23630.067    46450.063    45381.112   -20940.974      15.2149      13.1765      28.7324    5760.2466 
   60000       59.986    238.49389    9.9573648   -689.17769   -679.22033    22907.205    43194.129    45872.157    -20344.67      15.2149      13.1765      28.7324    5760.2466 
   60500       60.486    242.16519    10.110645   -689.32045    -679.2098    24705.172     47377.94    43528.374   -16790.797      15.2149      13.1765      28.7324    5760.2466 
   61000       60.986    246.38151    10.286681   -689.48487   -679.19819    22990.798    44070.058    43787.119   -18884.782      15.2149      13.1765      28.7324    5760.2466 
   61500       61.486    236.07534    9.8563881   -689.04325   -679.18687    23809.319    45648.946    46541.915   -20762.904      15.2149      13.1765      28.7324    5760.2466 
   62000       61.986    242.48124    10.123841   -689.30055   -679.17671    23769.987    42800.261    44095.964   -15586.264      15.2149      13.1765      28.7324    5760.2466 
   62500       62.486     228.9427    9.5585927   -688.72257   -679.16398    23435.741    43984.585    47979.348    -21656.71      15.2149      13.1765      28.7324    5760.2466 
   63000       62.986    237.39546    9.9115041   -689.06567   -679.15416    25090.319    44103.202    46425.607   -15257.852      15.2149      13.1765      28.7324    5760.2466 
   63500       63.486    238.68926    9.9655218   -689.10831   -679.14279    25083.577    44692.261     49968.04   -19409.571      15.2149      13.1765      28.7324    5760.2466 
   64000       63.986     230.5355     9.625094   -688.75617   -679.13107    23055.411    41403.637    46137.703   -18375.106      15.2149      13.1765      28.7324    5760.2466 
   64500       64.486    247.24279     10.32264   -689.44337   -679.12073    23838.418    44997.767    48373.549   -21856.061      15.2149      13.1765      28.7324    5760.2466 
   65000       64.986    229.24058    9.5710296    -688.6795   -679.10847    24101.583    42065.192    45571.984   -15332.426      15.2149      13.1765      28.7324    5760.2466 
   65500       65.486    241.84054    10.097091   -689.19582   -679.09873    24357.639    45357.502    46216.329   -18500.914      15.2149      13.1765      28.7324    5760.2466 
   66000       65.986    238.54483    9.9594918   -689.04706   -679.08757    24935.625    43631.142     43526.78   -12351.046      15.2149      13.1765      28.7324    5760.2466 
   66500       66.486     237.2365    9.9048675   -688.98175   -679.07688     25709.68    45555.479    47601.086   -16027.523      15.2149      13.1765      28.7324    5760.2466 
   67000       66.986    230.36379    9.6179246   -688.68333    -679.0654    23387.757     45756.28    44712.484   -20305.493      15.2149      13.1765      28.7324    5760.2466 
   67500       67.486    242.72729    10.134114   -689.18968   -679.05557    26603.264    46228.472    48677.251   -15095.931      15.2149      13.1765      28.7324    5760.2466 
   68000       67.986    234.74234    9.8007338   -688.84513   -679.04439     24010.12    45000.387     44956.77   -17926.797      15.2149      13.1765      28.7324    5760.2466 
   68500       68.486    243.19789    10.153762   -689.18698   -679.03322    25633.752    46369.495    47663.232   -17131.469      15.2149      13.1765      28.7324    5760.2466 
   69000       68.986    251.75308     10.51095   -689.53448   -679.02353    24137.064     47332.33    45701.899   -20623.036      15.2149      13.1765      28.7324    5760.2466 
   69500       69.486    249.39561    10.412523   -689.42493   -679.01241     23334.59    43244.797    46075.477   -19316.504      15.2149      13.1765      28.7324    5760.2466 
   70000       69.986    248.81461    10.388265   -689.38954   -679.00128    24029.756    44670.438    46272.312   -18853.483      15.2149      13.1765      28.7324    5760.2466 
   70500       70.486    253.06083     10.56555   -689.55633   -678.99078    24080.864    43806.497    48590.148   -20154.054      15.2149      13.1765      28.7324    5760.2466 
   71000       70.986    237.71915    9.9250186    -688.9039   -678.97888    25209.096    49708.879    46323.331   -20404.923      15.2149      13.1765      28.7324    5760.2466 
   71500       71.486    237.59347    9.9197711   -688.88869   -678.96891    24464.644    44351.573    45687.292   -16644.933      15.2149      13.1765      28.7324    5760.2466 
   72000       71.986    232.66979    9.7142027   -688.67213   -678.95793     23822.32    45295.159    47222.808   -21051.007      15.2149      13.1765      28.7324    5760.2466 
   72500       72.486    250.11938    10.442741   -689.39007   -678.94733    23277.249    48401.266    44744.302    -23313.82      15.2149      13.1765      28.7324    5760.2466 
   73000       72.986    240.73658    10.050999   -688.98711   -678.93611    24975.962    44291.406    46926.923   -16290.441      15.2149      13.1765      28.7324    5760.2466 
   73500       73.486    229.93379    9.5999719   -688.52522   -678.92525    23485.498    47166.982    47695.768   -24406.257      15.2149      13.1765      28.7324    5760.2466 
   74000       73.986    247.12131    10.317568   -689.23281   -678.91525    24172.967    44062.524    46454.078   -17997.701      15.2149      13.1765      28.7324    5760.2466 
   74500       74.486    243.84796    10.180903   -689.08501    -678.9041    24130.013    45970.188    48600.479   -22180.627      15.2149      13.1765      28.7324    5760.2466 
   75000       74.986    244.50327    10.208263   -689.10158   -678.89332    24806.996    43851.401    49230.151   -18660.563      15.2149      13.1765      28.7324    5760.2466 
   75500       75.486    244.97953    10.228147   -689.11089   -678.88275    22487.057    44554.584    44801.375   -21894.788      15.2149      13.1765      28.7324    5760.2466 
   76000       75.986    241.41289    10.079236    -688.9502   -678.87097    23928.294    46812.123    48209.207   -23236.449      15.2149      13.1765      28.7324    5760.2466 
   76500       76.486    243.68459    10.174082   -689.03473   -678.86065    23898.239    44055.152    45725.374   -18085.808      15.2149      13.1765      28.7324    5760.2466 
   77000       76.986    247.68807    10.341231   -689.19142   -678.85019    26415.985    45151.093     47814.21   -13717.347      15.2149      13.1765      28.7324    5760.2466 
   77500       77.486    246.23477    10.280554   -689.11978   -678.83923    23910.769    44769.976    44340.704   -17378.371      15.2149      13.1765      28.7324    5760.2466 
   78000       77.986    240.43981    10.038609   -688.86692   -678.82831    25972.531    44465.569    47474.672   -14022.647      15.2149      13.1765      28.7324    5760.2466 
   78500       78.486    241.22349    10.071328   -688.88868   -678.81735     23960.89    45367.913     45312.93   -18798.171      15.2149      13.1765      28.7324    5760.2466 
   79000       78.986    245.87486    10.265528   -689.07204   -678.80651    24632.037    44219.249    48991.975   -19315.112      15.2149      13.1765      28.7324    5760.2466 
   79500       79.486    234.26493    9.7808012   -688.57613   -678.79533    23433.389     41393.61    47726.575   -18820.018      15.2149      13.1765      28.7324    5760.2466 
   80000       79.986    240.27632    10.031783   -688.81565   -678.78386    23059.837    43520.005    46305.192   -20645.685      15.2149      13.1765      28.7324    5760.2466 
   80500       80.486    249.06342    10.398654   -689.17259   -678.77394     22998.82    43122.767    44455.109   -18581.417      15.2149      13.1765      28.7324    5760.2466 
   81000       80.986     254.0048    10.604961   -689.36817   -678.76321    23008.967    43161.959    47509.378   -21644.436      15.2149      13.1765      28.7324    5760.2466 
   81500       81.486    246.55996    10.294132   -689.04571   -678.75157    22384.601     44009.29    44802.447   -21657.935      15.2149      13.1765      28.7324    5760.2466 
   82000       81.986    248.39913    10.370919   -689.11164   -678.74072    23167.382    44276.217    45417.429   -20191.499      15.2149      13.1765      28.7324    5760.2466 
   82500       82.486    243.37279    10.161064   -688.89035   -678.72928    24451.903    44279.033    44177.738   -15101.063      15.2149      13.1765      28.7324    5760.2466 
   83000       82.986    239.72437    10.008738   -688.72672   -678.71798    24002.233     45898.72    47379.325   -21271.347      15.2149      13.1765      28.7324    5760.2466 
   83500       83.486    251.70854     10.50909   -689.21634   -678.70725     24533.54    44784.913    45804.635   -16988.927      15.2149      13.1765      28.7324    5760.2466 
   84000       83.986    240.72949    10.050704   -688.74676   -678.69606    23107.462    45460.277    44886.055   -21023.946      15.2149      13.1765      28.7324    5760.2466 
   84500       84.486    244.50422    10.208302   -688.89257   -678.68427    25805.598    46640.814    49159.649    -18383.67      15.2149      13.1765      28.7324    5760.2466 
   85000       84.986    252.64464    10.548173    -689.2216   -678.67342    23955.434    44238.255    46816.011   -19187.965      15.2149      13.1765      28.7324    5760.2466 
   85500       85.486    252.05197    10.523428   -689.18443     -678.661    23344.784    44870.463    45809.089   -20645.199      15.2149      13.1765      28.7324    5760.2466 
   86000       85.986    248.10496    10.358637   -689.00874    -678.6501    22532.356    43086.345    42649.453    -18138.73      15.2149      13.1765      28.7324    5760.2466 
   86500       86.486    238.16401    9.9435918   -688.58144   -678.63784    24182.726    49654.589    44157.402   -21263.812      15.2149      13.1765      28.7324    5760.2466 
   87000       86.986    243.84976    10.180978   -688.80816   -678.62718    24175.082    45298.137    46320.334   -19093.225      15.2149      13.1765      28.7324    5760.2466 
   87500       87.486    247.70595    10.341978   -688.95707   -678.61509    25445.536    46789.401    46836.654   -17289.448      15.2149      13.1765      28.7324    5760.2466 
   88000       87.986    251.55501     10.50268   -689.10602   -678.60334    24974.638    44616.711    43984.386   -13677.184      15.2149      13.1765      28.7324    5760.2466 
   88500       88.486    258.68531    10.800377   -689.39307   -678.59269    24701.216    43719.252    47050.988   -16666.593      15.2149      13.1765      28.7324    5760.2466 
   89000       88.986    237.05928    9.8974682   -688.47603   -678.57856    23290.514    45042.836    43708.569   -18879.865      15.2149      13.1765      28.7324    5760.2466 
   89500       89.486    241.04424    10.063845   -688.63192   -678.56807    24402.536    45282.708    47966.744   -20041.845      15.2149      13.1765      28.7324    5760.2466 
   90000       89.986    243.87633    10.182087   -688.73795   -678.55586    24426.632    40904.693    48605.114   -16229.911      15.2149      13.1765      28.7324    5760.2466 
   90500       90.486    254.41112    10.621925   -689.16624   -678.54432    23350.736    44765.376     45291.41   -20004.579      15.2149      13.1765      28.7324    5760.2466 
   91000       90.986     258.1099    10.776354   -689.30905    -678.5327    23005.505    42256.153    45835.172    -19074.81      15.2149      13.1765      28.7324    5760.2466 
   91500       91.486    242.63475     10.13025   -688.65109   -678.52084    23606.371    41556.507    45054.962   -15792.356      15.2149      13.1765      28.7324    5760.2466 
   92000       91.986    253.08591    10.566597   -689.07512   -678.50852    24835.786    45884.783     44003.31   -15380.736      15.2149      13.1765      28.7324    5760.2466 
   92500       92.486    258.58568    10.796218   -689.29265   -678.49643    23808.272    44052.417    46605.167   -19232.769      15.2149      13.1765      28.7324    5760.2466 
   93000       92.986    254.42138    10.622354   -689.10674   -678.48439     24678.56    46659.303    47610.123   -20233.745      15.2149      13.1765      28.7324    5760.2466 
   93500       93.486    250.05675    10.440126   -688.91111   -678.47098    23696.097    43829.015    45560.532   -18301.256      15.2149      13.1765      28.7324    5760.2466 
   94000       93.986    242.04431    10.105599   -688.56515   -678.45955    21729.768    41593.784    47401.266   -23805.746      15.2149      13.1765      28.7324    5760.2466 
   94500       94.486    245.38517    10.245083   -688.69194   -678.44686    23997.783     43650.18    48086.557   -19743.389      15.2149      13.1765      28.7324    5760.2466 
   95000       94.986    243.96567    10.185817   -688.62035   -678.43453    23684.904    43758.188    46507.889   -19211.365      15.2149      13.1765      28.7324    5760.2466 
   95500       95.486    232.92065    9.7246761   -688.14627    -678.4216    24579.057    48953.306    47509.352   -22725.486      15.2149      13.1765      28.7324    5760.2466 
   96000       95.986    257.29288    10.742242   -689.15204   -678.40979    24519.947    44066.653    46274.169    -16780.98      15.2149      13.1765      28.7324    5760.2466 
   96500       96.486    250.29683     10.45015   -688.84646   -678.39631    23565.557    46073.893     45770.58   -21147.803      15.2149      13.1765      28.7324    5760.2466 
   97000       96.986    257.80627    10.763677   -689.14738   -678.38371    24128.161    47142.407    43877.428   -18635.353      15.2149      13.1765      28.7324    5760.2466 
   97500       97.486    258.84662    10.807112   -689.17904   -678.37193    24747.718    44678.031    48104.769   -18539.646      15.2149      13.1765      28.7324    5760.2466 
   98000       97.986    246.34599    10.285198   -688.64409   -678.35889    23349.939     45756.84    45581.393   -21288.417      15.2149      13.1765      28.7324    5760.2466 
   98500       98.486    251.09949    10.483662   -688.82917    -678.3455    22660.042    42664.773     45999.08   -20683.728      15.2149      13.1765      28.7324    5760.2466 
   99000       98.986    250.58848    10.462326   -688.79579   -678.33347    24345.742    42107.611    46490.916     -15561.3      15.2149      13.1765      28.7324    5760.2466 
   99500       99.486    237.21631    9.9040245   -688.22289   -678.31887    23973.888    43660.605    46354.375   -18093.318      15.2149      13.1765      28.7324    5760.2466 
  100000       99.986    249.85064    10.431521   -688.73829   -678.30677    24443.415    45138.072    44788.336   -16596.162      15.2149      13.1765      28.7324    5760.2466 
  100500      100.486    250.09373     10.44167   -688.73577    -678.2941    23984.812    43172.907    46752.632   -17971.102      15.2149      13.1765      28.7324    5760.2466 
  101000      100.986    246.20272    10.279216   -688.55948   -678.28027    23299.257    44152.936    45936.359   -20191.525      15.2149      13.1765      28.7324    5760.2466 
  101500      101.486    250.61273    10.463339   -688.73099   -678.26765    24093.726    43232.446    46593.832   -17545.101      15.2149      13.1765      28.7324    5760.2466 
  102000      101.986    239.29434    9.9907843   -688.24464   -678.25386    23128.254    47099.767     44405.02   -22120.026      15.2149      13.1765      28.7324    5760.2466 
  102500      102.486    260.99832    10.896948   -689.13934   -678.24239    25696.055    46477.679    45935.772   -15325.287      15.2149      13.1765      28.7324    5760.2466 
  103000      102.986    257.51849    10.751662   -688.97903   -678.22737    26570.131    46102.595    45910.565   -12302.766      15.2149      13.1765      28.7324    5760.2466 
  103500      103.486    253.18961    10.570926    -688.7847   -678.21377    25100.614    49283.495    47079.038   -21060.691      15.2149      13.1765      28.7324    5760.2466 
  104000      103.986    255.84478    10.681782   -688.88245   -678.20067    24980.636    46031.888    47494.361    -18584.34      15.2149      13.1765      28.7324    5760.2466 
  104500      104.486    247.83656    10.347431   -688.53457   -678.18714    25111.365    47112.911    46558.691   -18337.508      15.2149      13.1765      28.7324    5760.2466 
  105000      104.986    254.64045      10.6315   -688.80516   -678.17366    25613.274    45359.427    49206.329   -17725.932      15.2149      13.1765      28.7324    5760.2466 
  105500      105.486    259.31068    10.826487    -688.9868   -678.16031    24499.903    42934.917    46960.293   -16395.501      15.2149      13.1765      28.7324    5760.2466 
  106000      105.986    251.49131     10.50002   -688.64664   -678.14662     26541.88    47620.644     48323.99   -16318.995      15.2149      13.1765      28.7324    5760.2466 
  106500      106.486    247.33119    10.326331   -688.45853    -678.1322    23180.755    44816.403     44917.98   -20192.117      15.2149      13.1765      28.7324    5760.2466 
  107000      106.986     254.2894    10.616843   -688.73605    -678.1192    24788.228    45438.887    45914.353   -16988.557      15.2149      13.1765      28.7324    5760.2466 
  107500      107.486    253.50205    10.583971   -688.68958   -678.10561    24129.475        42879    47050.588   -17541.165      15.2149      13.1765      28.7324    5760.2466 
  108000      107.986    257.11094    10.734646   -688.82635    -678.0917    24786.656     46645.85    45533.756   -17819.637      15.2149      13.1765      28.7324    5760.2466 
  108500      108.486    241.35592    10.076857   -688.15445   -678.07759    26489.148    44478.648    45635.951   -10647.154      15.2149      13.1765      28.7324    5760.2466 
  109000      108.986    240.05599    10.022584   -688.08549   -678.06291    23729.631    44580.406    47782.031   -21173.543      15.2149      13.1765      28.7324    5760.2466 
  109500      109.486    258.95579     10.81167   -688.86087    -678.0492    21774.347    39974.705    47419.454   -22071.117      15.2149      13.1765      28.7324    5760.2466 
  110000      109.986     236.8856    9.8902169   -687.92473   -678.03451    23411.865    45169.681     48424.66   -23358.746      15.2149      13.1765      28.7324    5760.2466 
  110500      110.486    257.13681    10.735726   -688.75717   -678.02145    24159.043    42738.363    48371.722   -18632.954      15.2149      13.1765      28.7324    5760.2466 
  111000      110.986    270.74038    11.303689   -689.31237   -678.00868    25298.083    45532.797    47961.472   -17600.021      15.2149      13.1765      28.7324    5760.2466 
  111500      111.486    244.36834    10.202629   -688.19545   -677.99282    24681.815    44161.687    46261.386   -16377.629      15.2149      13.1765      28.7324    5760.2466 
  112000      111.986     245.4855    10.249272   -688.22835   -677.97908     24564.21    45026.584    47752.593   -19086.546      15.2149      13.1765      28.7324    5760.2466 
  112500      112.486    253.79706    10.596288   -688.56142   -677.96513     24096.91    44223.103    46495.245   -18427.616      15.2149      13.1765      28.7324    5760.2466 
  113000      112.986    265.68872    11.092777   -689.04358    -677.9508    22856.201    44768.535    45091.425   -21291.358      15.2149      13.1765      28.7324    5760.2466 
  113500      113.486    252.99038    10.562608   -688.49864   -677.93604    25615.692    48041.067    47174.405   -18368.396      15.2149      13.1765      28.7324    5760.2466 
  114000      113.986     263.5521    11.003571    -688.9261   -677.92253    25238.614    45539.159    46901.031   -16724.348      15.2149      13.1765      28.7324    5760.2466 
  114500      114.486    252.98279    10.562291   -688.46931   -677.90702    22628.377    41992.147    46399.303    -20506.32      15.2149      13.1765      28.7324    5760.2466 
  115000      114.986    259.01241    10.814034   -688.70683    -677.8928    24316.398    42795.369    44211.133   -14057.309      15.2149      13.1765      28.7324    5760.2466 
  115500      115.486    261.65193    10.924237   -688.80255   -677.87831    22112.331    41765.447    45770.881   -21199.334      15.2149      13.1765      28.7324    5760.2466 
  116000      115.986    252.62787    10.547473   -688.41032   -677.86284    22873.952    44200.515    44223.297   -19801.958      15.2149      13.1765      28.7324    5760.2466 
  116500      116.486    262.82005    10.973007   -688.82238   -677.84938    25315.814    42432.379    45814.584   -12299.522      15.2149      13.1765      28.7324    5760.2466 
  117000      116.986    263.45588    10.999554   -688.83352   -677.83396    22864.625    44679.404    46390.253    -22475.78      15.2149      13.1765      28.7324    5760.2466 
  117500      117.486    246.64679    10.297757   -688.11636   -677.81861     24702.55    45583.936    48335.786   -19812.074      15.2149      13.1765      28.7324    5760.2466 
  118000      117.986    263.74092    11.011454   -688.81592   -677.80446    24919.479    48154.356    47291.629   -20687.549      15.2149      13.1765      28.7324    5760.2466 
  118500      118.486     243.2006    10.153875   -687.94363   -677.78975    24716.426    43212.428    46970.191   -16033.341      15.2149      13.1765      28.7324    5760.2466 
  119000      118.986    243.65383    10.172798   -687.94745   -677.77465    23386.993    45987.165    46122.397   -21948.581      15.2149      13.1765      28.7324    5760.2466 
  119500      119.486    259.88041    10.850274    -688.6105   -677.76023    24198.469    44634.749    47146.628    -19185.97      15.2149      13.1765      28.7324    5760.2466 
  120000      119.986    259.28604    10.825458   -688.57077   -677.74532    24923.817    42617.479    49140.537   -16986.567      15.2149      13.1765      28.7324    5760.2466 
  120500      120.486    274.26941     11.45103    -689.1827   -677.73167     24058.19     46684.37    48161.579   -22671.378      15.2149      13.1765      28.7324    5760.2466 
  121000      120.986    268.40051    11.205997   -688.92211   -677.71612    25369.859    42271.234    49382.622   -15544.279      15.2149      13.1765      28.7324    5760.2466 
  121500      121.486    274.00336    11.439922   -689.14182    -677.7019    25535.454    45933.459    46254.719   -15581.817      15.2149      13.1765      28.7324    5760.2466 
  122000      121.986    257.36102    10.745087   -688.43031   -677.68522    25599.953    46841.259    47982.751   -18024.151      15.2149      13.1765      28.7324    5760.2466 
  122500      122.486    263.80372    11.014076   -688.68513   -677.67105    24279.247    44400.043    44227.934   -15790.237      15.2149      13.1765      28.7324    5760.2466 
  123000      122.986    255.27268    10.657897   -688.31333   -677.65543    25195.948    47327.469     46380.67   -18120.295      15.2149      13.1765      28.7324    5760.2466 
  123500      123.486    251.51256    10.500908   -688.14092   -677.64001      23916.4    45026.845    43484.826    -16762.47      15.2149      13.1765      28.7324    5760.2466 
  124000      123.986    258.54913    10.794692   -688.42023   -677.62554    22674.953    41130.301    46717.999   -19823.442      15.2149      13.1765      28.7324    5760.2466 
  124500      124.486     258.2294    10.781343   -688.39177   -677.61043     22866.11    47154.419    47033.996   -25590.084      15.2149      13.1765      28.7324    5760.2466 
  125000      124.986    262.58738    10.963293   -688.55891   -677.59562    24528.433    42640.048    46514.802   -15569.552      15.2149      13.1765      28.7324    5760.2466 
  125500      125.486    258.46379    10.791129    -688.3719   -677.58077     23565.06    44723.543    47768.139   -21796.502      15.2149      13.1765      28.7324    5760.2466 
  126000      125.986    264.00003    11.022272   -688.58804   -677.56577    23814.084    43991.075    45672.515   -18221.338      15.2149      13.1765      28.7324    5760.2466 
  126500      126.486    264.83455    11.057115   -688.60714   -677.55002    23307.153    47482.687    44793.277   -22354.504      15.2149      13.1765      28.7324    5760.2466 
  127000      126.986    255.28662    10.658478   -688.19273   -677.53425    23999.486    44556.177    48961.285   -21519.003      15.2149      13.1765      28.7324    5760.2466 
  127500      127.486    260.69418     10.88425   -688.40324   -677.51899    23245.342    45624.593    46900.861   -22789.428      15.2149      13.1765      28.7324    5760.2466 
  128000      127.986    274.49663    11.460516   -688.96537   -677.50485    24814.685    42842.979    44444.103   -12843.028      15.2149      13.1765      28.7324    5760.2466 
  128500      128.486     254.2605    10.615637   -688.10398   -677.48834    23095.138    45892.449    45873.066   -22480.102      15.2149      13.1765      28.7324    5760.2466 
  129000      128.986    276.62419    11.549344   -689.02301   -677.47367    24314.601    45910.653     45113.54    -18080.39      15.2149      13.1765      28.7324    5760.2466 
  129500      129.486    248.36784    10.369613   -687.82801    -677.4584     24295.48    45412.844    44176.308   -16702.712      15.2149      13.1765      28.7324    5760.2466 
  130000      129.986    270.39309    11.289189   -688.73275   -677.44356    24581.037    46795.058     45842.45   -18894.397      15.2149      13.1765      28.7324    5760.2466 
  130500      130.486    250.72298    10.467942   -687.89493   -677.42699    24756.711    48104.178    45889.703   -19723.747      15.2149      13.1765      28.7324    5760.2466 
  131000      130.986      263.736    11.011249   -688.42305    -677.4118    25837.485    49675.399    47854.941   -20017.886      15.2149      13.1765      28.7324    5760.2466 
  131500      131.486    253.35476    10.577822    -687.9741   -677.39628    23184.562     46180.52    47435.476    -24062.31      15.2149      13.1765      28.7324    5760.2466 
  132000      131.986    272.34609    11.370729   -688.75222   -677.38149    24284.454    45579.742    47334.808    -20061.19      15.2149      13.1765      28.7324    5760.2466 
  132500      132.486     259.7791    10.846044   -688.21161   -677.36556     23708.66    44620.352    48563.199   -22057.573      15.2149      13.1765      28.7324    5760.2466 
  133000      132.986    264.42199     11.03989   -688.39051   -677.35062    24857.279    46295.312    47381.673   -19105.149      15.2149      13.1765      28.7324    5760.2466 
  133500      133.486    259.79532    10.846721   -688.18002    -677.3333    25282.554    46002.171    47646.887   -17801.396      15.2149      13.1765      28.7324    5760.2466 
  134000      133.986    274.45939    11.458962   -688.77809   -677.31913    23486.652    45973.978    45961.196   -21475.217      15.2149      13.1765      28.7324    5760.2466 
  134500      134.486    259.95712    10.853477   -688.15598    -677.3025    23838.369    44960.914    46607.513   -20053.319      15.2149      13.1765      28.7324    5760.2466 
  135000      134.986    265.55714    11.087283   -688.37467   -677.28739    23135.362    48054.062    48287.349   -26935.325      15.2149      13.1765      28.7324    5760.2466 
  135500      135.486    271.80665    11.348207   -688.62031    -677.2721    24247.052    43713.982    48502.736   -19475.562      15.2149      13.1765      28.7324    5760.2466 
  136000      135.986    257.69441    10.759006   -688.01558   -677.25658    25709.045    45714.832     48836.23   -17423.927      15.2149      13.1765      28.7324    5760.2466 
  136500      136.486    267.59684    11.172443   -688.41381   -677.24137     24080.75     42476.78    48441.084   -18675.614      15.2149      13.1765      28.7324    5760.2466 
  137000      136.986    274.36873    11.455176    -688.6807   -677.22553     25996.79     47016.01    46100.013   -15125.652      15.2149      13.1765      28.7324    5760.2466 
  137500      137.486    249.50191    10.416961   -687.62564   -677.20868    25979.649    45451.792    44966.151   -12478.996      15.2149      13.1765      28.7324    5760.2466 
  138000      137.986    275.58846    11.506101   -688.70032   -677.19422    25962.265    48373.027    47648.816   -18135.048      15.2149      13.1765      28.7324    5760.2466 
  138500      138.486    258.39808    10.788385    -687.9656   -677.17721    26446.397    46762.108    50202.745   -17625.661      15.2149      13.1765      28.7324    5760.2466 
  139000      138.986    262.12608    10.944033   -688.10596   -677.16193    24643.524    47774.958    48550.718   -22395.106      15.2149      13.1765      28.7324    5760.2466 
  139500      139.486    260.69529    10.884296   -688.03063   -677.14633    23755.119    45519.266    48369.448   -22623.357      15.2149      13.1765      28.7324    5760.2466 
  140000      139.986    270.39573      11.2893   -688.42052   -677.13122    24303.936    45735.984     47094.88   -19919.055      15.2149      13.1765      28.7324    5760.2466 
  140500      140.486    249.39915    10.412671   -687.52679   -677.11412    23754.404    45416.666    47157.621   -21311.076      15.2149      13.1765      28.7324    5760.2466 
  141000      140.986    271.51157    11.335887   -688.43586   -677.09998     24566.29    44372.694    49445.786   -20119.608      15.2149      13.1765      28.7324    5760.2466 
  141500      141.486    271.73923    11.345392   -688.42842   -677.08302    24255.864    49031.198    48360.337   -24623.943      15.2149      13.1765      28.7324    5760.2466 
  142000      141.986     274.7323    11.470356   -688.53824   -677.06789    23384.063    45135.666     45542.07   -20525.547      15.2149      13.1765      28.7324    5760.2466 
  142500      142.486    256.20195    10.696695   -687.74806   -677.05137    26602.653    47247.335    47601.372   -15040.747      15.2149      13.1765      28.7324    5760.2466 
  143000      142.986     273.7752    11.430396    -688.4663    -677.0359    24177.441    44461.904    46756.567   -18686.149      15.2149      13.1765      28.7324    5760.2466 
  143500      143.486    260.26183    10.866199   -687.88604   -677.01984    23320.671    41912.633    46988.147   -18938.767      15.2149      13.1765      28.7324    5760.2466 
  144000      143.986    253.78633     10.59584   -687.60018   -677.00434    23373.425    48590.611    45725.047   -24195.384      15.2149      13.1765      28.7324    5760.2466 
  144500      144.486    274.33258    11.453667    -688.4424   -676.98873    23028.021    45495.593    45102.787   -21514.316      15.2149      13.1765      28.7324    5760.2466 
  145000      144.986    262.13509    10.944409   -687.91671    -676.9723    23978.105    45539.363    47573.833   -21178.882      15.2149      13.1765      28.7324    5760.2466 
  145500      145.486    277.76613    11.597021   -688.55408   -676.95706    22238.979    43486.808    46369.909   -23139.781      15.2149      13.1765      28.7324    5760.2466 
  146000      145.986    262.86948    10.975071   -687.91565   -676.94057    25160.051    45303.185    46151.892   -15974.923      15.2149      13.1765      28.7324    5760.2466 
  146500      146.486    273.30339    11.410697   -688.33583   -676.92514    24143.334     45918.16    47555.338   -21043.496      15.2149      13.1765      28.7324    5760.2466 
  147000      146.986    265.43264    11.082085   -687.99107   -676.90898    24883.827    44779.436        49859   -19986.955      15.2149      13.1765      28.7324    5760.2466 
  147500      147.486    264.27472    11.033741    -687.9264   -676.89266    23302.256    43335.841    48810.579   -22239.652      15.2149      13.1765      28.7324    5760.2466 
  148000      147.986    275.34261    11.495837   -688.37326   -676.87742     25466.38    44740.853    48348.323   -16690.038      15.2149      13.1765      28.7324    5760.2466 
  148500      148.486    283.86704     11.85174   -688.71296   -676.86122    24876.427    45138.452    49127.055   -19636.224      15.2149      13.1765      28.7324    5760.2466 
  149000      148.986    269.58236     11.25534   -688.10038   -676.84504     24797.88     43582.67    47165.893   -16354.924      15.2149      13.1765      28.7324    5760.2466 
  149500      149.486    283.88092     11.85232    -688.6809   -676.82858      25309.6    47332.547    48382.302   -19786.049      15.2149      13.1765      28.7324    5760.2466 
  150000      149.986    271.28284    11.326337   -688.13915   -676.81281    23518.112    43974.717    46569.986   -19990.367      15.2149      13.1765      28.7324    5760.2466 
  150500      150.486    256.68996    10.717069   -687.51289   -676.79582    25171.116    43982.704     48301.39   -16770.747      15.2149      13.1765      28.7324    5760.2466 
  151000      150.986    261.68319    10.925542   -687.70514   -676.77959    24286.758    48075.754    45443.378   -20658.857      15.2149      13.1765      28.7324    5760.2466 
  151500      151.486    284.20437    11.865824   -688.63079   -676.76497     25124.19    48108.476    47537.391   -20273.296      15.2149      13.1765      28.7324    5760.2466 
  152000      151.986     266.3157    11.118954   -687.86676   -676.74781     25515.98    46176.121      44890.1   -14518.281      15.2149      13.1765      28.7324    5760.2466 
  152500      152.486    275.48254    11.501679    -688.2342   -676.73253    23218.564    43968.917     44443.71   -18756.936      15.2149      13.1765      28.7324    5760.2466 
  153000      152.986    270.19484    11.280912   -687.99688   -676.71596    24001.032    47714.171    46275.988   -21987.065      15.2149      13.1765      28.7324    5760.2466 
  153500      153.486    273.44704    11.416695    -688.1172    -676.7005    23424.778    50075.037    43434.255   -23234.959      15.2149      13.1765      28.7324    5760.2466 
  154000      153.986    273.68573     11.42666   -688.11123   -676.68457    23440.227    42923.855    45948.346   -18551.521      15.2149      13.1765      28.7324    5760.2466 
  154500      154.486    267.30398    11.160216   -687.82768   -676.66746    23934.013     44045.49    46166.933   -18410.385      15.2149      13.1765      28.7324    5760.2466 
  155000      154.986    262.89031     10.97594   -687.62779   -676.65185    25081.714    47193.278    43653.633   -15601.768      15.2149      13.1765      28.7324    5760.2466 
  155500      155.486    266.65841    11.133263   -687.76852   -676.63526    23770.777    41991.599    46985.093   -17664.361      15.2149      13.1765      28.7324    5760.2466 
  156000      155.986    271.24418    11.324723   -687.94451   -676.61979    25244.157    44842.932    43611.187   -12721.648      15.2149      13.1765      28.7324    5760.2466 
  156500      156.486    289.30612    12.078828   -688.68249   -676.60367     23720.16    47918.335    45013.316    -21771.17      15.2149      13.1765      28.7324    5760.2466 
  157000      156.986     269.4997    11.251889   -687.83921   -676.58732    23905.332    45562.578    47097.293   -20943.876      15.2149      13.1765      28.7324    5760.2466 
  157500      157.486    279.25624    11.659235   -688.23086   -676.57163    23941.507    47419.335    45364.292   -20959.106      15.2149      13.1765      28.7324    5760.2466 
  158000      157.986    256.34233    10.702556   -687.25574   -676.55319    23029.374    46003.675    47050.374   -23965.928      15.2149      13.1765      28.7324    5760.2466 
  158500      158.486    272.97167    11.396848   -687.93508   -676.53824     22457.07      43052.6    45037.471   -20718.862      15.2149      13.1765      28.7324    5760.2466 
  159000      158.986    285.03174    11.900368   -688.42258   -676.52221    24727.392    47726.587    49212.468   -22756.879      15.2149      13.1765      28.7324    5760.2466 
  159500      159.486    276.57279    11.547198   -688.05274   -676.50555    25525.488    47826.851    47351.708   -18602.096      15.2149      13.1765      28.7324    5760.2466 
  160000      159.986    287.77914    12.015075   -688.50445   -676.48937    22797.839    43966.892    47591.518   -23164.894      15.2149      13.1765      28.7324    5760.2466 
  160500      160.486    267.14166    11.153439    -687.6261   -676.47266    23096.467    44232.641    45228.315   -20171.556      15.2149      13.1765      28.7324    5760.2466 
  161000      160.986    269.09939    11.235176   -687.69167    -676.4565    23850.772    47494.631    48321.391   -24263.706      15.2149      13.1765      28.7324    5760.2466 
  161500      161.486    281.82941    11.766667   -688.20686    -676.4402    24732.507    46818.762    47574.331   -20195.571      15.2149      13.1765      28.7324    5760.2466 
  162000      161.986    288.95818    12.064301   -688.48875   -676.42445    23318.128    44085.716    48177.008   -22308.342      15.2149      13.1765      28.7324    5760.2466 
  162500      162.486     264.8769    11.058883   -687.46534   -676.40646    24523.323     46128.81    45944.347   -18503.188      15.2149      13.1765      28.7324    5760.2466 
  163000      162.986    278.37742    11.622543   -688.01356   -676.39102     23853.23    43835.119    46539.159   -18814.588      15.2149      13.1765      28.7324    5760.2466 
  163500      163.486    266.85377    11.141419   -687.51509   -676.37367    24314.616    47162.953    50452.006   -24671.112      15.2149      13.1765      28.7324    5760.2466 
  164000      163.986     269.9854    11.272168   -687.63032   -676.35815    27120.135    46578.605    50692.587   -15910.786      15.2149      13.1765      28.7324    5760.2466 
  164500      164.486    259.92855    10.852284   -687.19341   -676.34113    25510.042    46671.065    48902.763   -19043.701      15.2149      13.1765      28.7324    5760.2466 
  165000      164.986    280.76225    11.722112   -688.04877   -676.32666    23732.013    44164.015     47649.72   -20617.695      15.2149      13.1765      28.7324    5760.2466 
  165500      165.486    268.83322    11.224063    -687.5326   -676.30854    24891.443    46432.837    45802.624   -17561.132      15.2149      13.1765      28.7324    5760.2466 
  166000      165.986    270.32077     11.28617   -687.57876   -676.29259    24386.887    45521.552    46464.167   -18825.057      15.2149      13.1765      28.7324    5760.2466 
  166500      166.486     260.3476     10.86978   -687.14604   -676.27626    27884.618     48777.65    53656.103   -18779.899      15.2149      13.1765      28.7324    5760.2466 
  167000      166.986    273.95092    11.437732   -687.69778   -676.26005    24158.997    43938.454    47391.867   -18853.328      15.2149      13.1765      28.7324    5760.2466 
  167500      167.486     288.9547    12.064155   -688.30805   -676.24389    25204.871    45677.253    47526.365   -17589.007      15.2149      13.1765      28.7324    5760.2466 
  168000      167.986    282.39699    11.790364   -688.01832   -676.22796    24301.416    45969.476    47580.252   -20645.481      15.2149      13.1765      28.7324    5760.2466 
  168500      168.486    263.71755    11.010479   -687.21954   -676.20906    24217.865    46117.326    48077.956   -21541.688      15.2149      13.1765      28.7324    5760.2466 
  169000      168.986    280.82154    11.724588   -687.91875   -676.19417    24786.567    44450.387    47583.606   -17674.291      15.2149      13.1765      28.7324    5760.2466 
  169500      169.486    282.26566    11.784881   -687.96182   -676.17694      22773.8    45209.331    45714.149   -22602.079      15.2149      13.1765      28.7324    5760.2466 
  170000      169.986    283.78499    11.848315   -688.00935   -676.16103    26694.684    48857.449    46410.752    -15184.15      15.2149      13.1765      28.7324    5760.2466 
  170500      170.486     279.5114    11.669888   -687.81418   -676.14429     24458.29    46082.636    47862.436     -20570.2      15.2149      13.1765      28.7324    5760.2466 
  171000      170.986    274.86823    11.476031   -687.60434   -676.12831    24648.281    44195.855    48537.665   -18788.676      15.2149      13.1765      28.7324    5760.2466 
  171500      171.486    283.73965    11.846422   -687.95861   -676.11219    24090.965    46390.728    49127.932   -23245.766      15.2149      13.1765      28.7324    5760.2466 
  172000      171.986    264.57368    11.046223    -687.1404   -676.09418    23968.982    44120.938    46859.886   -19073.879      15.2149      13.1765      28.7324    5760.2466 
  172500      172.486    267.88663    11.184542   -687.26226   -676.07772    24750.182    41772.741    48768.321   -16290.516      15.2149      13.1765      28.7324    5760.2466 
  173000      172.986    269.17683    11.238409   -687.30001    -676.0616    26037.288    47759.517     45567.09   -15214.742      15.2149      13.1765      28.7324    5760.2466 
  173500      173.486    287.08807    11.986222   -688.03155   -676.04532    24386.229    48273.097    45811.108   -20925.518      15.2149      13.1765      28.7324    5760.2466 
  174000      173.986    265.70465    11.093442   -687.12089   -676.02745    25873.781    48270.484    45148.952   -15798.093      15.2149      13.1765      28.7324    5760.2466 
  174500      174.486    272.93652     11.39538   -687.40563   -676.01025    26708.632    49210.502     47652.85   -16737.455      15.2149      13.1765      28.7324    5760.2466 
  175000      174.986    277.18203    11.572634    -687.5671   -675.99447     23559.51    41435.176    46965.419   -17722.064      15.2149      13.1765      28.7324    5760.2466 
  175500      175.486    288.39869    12.040942   -688.01769   -675.97675    25455.884    46076.063    48320.877   -18029.287      15.2149      13.1765      28.7324    5760.2466 
  176000      175.986    294.79341    12.307928   -688.26902    -675.9611    24248.466    45166.595    47053.984    -19475.18      15.2149      13.1765      28.7324    5760.2466 
  176500      176.486    277.03725    11.566589   -687.51133   -675.94474     24736.34    43703.423    45332.972   -14827.374      15.2149      13.1765      28.7324    5760.2466 
  177000      176.986    276.93725    11.562415   -687.48948   -675.92707    24534.938    44533.915    47535.119   -18464.219      15.2149      13.1765      28.7324    5760.2466 
  177500      177.486    282.88566    11.810767   -687.72139   -675.91062    24035.431    46309.231    47408.556   -21611.494      15.2149      13.1765      28.7324    5760.2466 
  178000      177.986    286.48519    11.961051   -687.85403   -675.89297    24315.953    43245.042    47219.793   -17516.976      15.2149      13.1765      28.7324    5760.2466 
  178500      178.486    296.68683     12.38698   -688.26328    -675.8763    24334.149     44485.68    44757.625    -16240.86      15.2149      13.1765      28.7324    5760.2466 
  179000      178.986    264.17889     11.02974   -686.88862   -675.85888    24288.614    43658.993    47111.176   -17904.326      15.2149      13.1765      28.7324    5760.2466 
  179500      179.486     287.8269    12.017069   -687.85949   -675.84242    25071.081    45551.052    49637.697   -19975.506      15.2149      13.1765      28.7324    5760.2466 
  180000      179.986    266.13871    11.111564   -686.93706    -675.8255    25837.242    43586.379    50274.945   -16349.596      15.2149      13.1765      28.7324    5760.2466 
  180500      180.486    279.55294    11.671622    -687.4797   -675.80808    24008.342     45165.73    48715.706   -21856.411      15.2149      13.1765      28.7324    5760.2466 
  181000      180.986    282.75912    11.805483   -687.59848     -675.793    22957.821     44584.53    47141.374   -22852.442      15.2149      13.1765      28.7324    5760.2466 
  181500      181.486    289.27743     12.07763   -687.85334   -675.77571    25540.686    45673.725    44422.681   -13474.347      15.2149      13.1765      28.7324    5760.2466 
  182000      181.986    275.78307    11.514226   -687.27214   -675.75792    23513.611    46481.625    49550.954   -25491.747      15.2149      13.1765      28.7324    5760.2466 
  182500      182.486    278.79316    11.639901   -687.38061   -675.74071    24775.336    44952.561     49720.94   -20347.494      15.2149      13.1765      28.7324    5760.2466 
  183000      182.986    278.70839    11.636361   -687.36046    -675.7241    25474.808    45943.382    47550.058   -17069.018      15.2149      13.1765      28.7324    5760.2466 
  183500      183.486    284.04343    11.859105   -687.56616   -675.70705     24229.29    46359.127    45515.424    -19186.68      15.2149      13.1765      28.7324    5760.2466 
  184000      183.986    287.59979    12.007586   -687.69855   -675.69096    24131.887    42792.514    49255.048   -19651.901      15.2149      13.1765      28.7324    5760.2466 
  184500      184.486    287.90346    12.020265    -687.6946   -675.67434    23645.459    46238.766    47243.448   -22545.836      15.2149      13.1765      28.7324    5760.2466 
  185000      184.986    279.40054    11.665259   -687.32253   -675.65727    24026.056    47112.484    44802.516   -19836.832      15.2149      13.1765      28.7324    5760.2466 
  185500      185.486    267.45652    11.166584   -686.80653   -675.63995    24027.652    44288.075     46848.24   -19053.358      15.2149      13.1765      28.7324    5760.2466 
  186000      185.986    280.94453    11.729723   -687.35346   -675.62374    23926.002    44785.054    47022.808   -20029.854      15.2149      13.1765      28.7324    5760.2466 
  186500      186.486    289.03926    12.067686   -687.67468     -675.607    22476.077    41952.287    47103.405   -21627.461      15.2149      13.1765      28.7324    5760.2466 
  187000      186.986    279.19852    11.656825   -687.24558   -675.58876    24133.294    43670.653    46023.631   -17294.402      15.2149      13.1765      28.7324    5760.2466 
  187500      187.486    307.69565    12.846609   -688.42011    -675.5735    23835.593    47199.787    45025.239   -20718.246      15.2149      13.1765      28.7324    5760.2466 
  188000      187.986    298.72422    12.472043   -688.02743   -675.55539    24621.651    43871.802    48948.907   -18955.756      15.2149      13.1765      28.7324    5760.2466 
  188500      188.486     288.6923      12.0532   -687.59187   -675.53867    25355.502    45646.145    45129.491   -14709.129      15.2149      13.1765      28.7324    5760.2466 
  189000      188.986    290.30093    12.120362   -687.64215   -675.52179    25028.873    43858.041    46264.313   -15035.734      15.2149      13.1765      28.7324    5760.2466 
  189500      189.486    299.50499    12.504641   -688.01002   -675.50538    25219.844    45460.953    50613.693   -20415.116      15.2149      13.1765      28.7324    5760.2466 
  190000      189.986    295.96243    12.356735   -687.84362   -675.48689    24446.591    44313.959    47682.983   -18657.168      15.2149      13.1765      28.7324    5760.2466 
  190500      190.486    293.57827    12.257194    -687.7275   -675.47031    25287.551    47599.698    46266.095    -18003.14      15.2149      13.1765      28.7324    5760.2466 
  191000      190.986    293.70188    12.262355   -687.71473   -675.45237    23287.008     44232.35    46248.705   -20620.033      15.2149      13.1765      28.7324    5760.2466 
  191500      191.486    271.68399    11.343086   -686.77785   -675.43476    24722.944    46062.633    47365.129    -19258.93      15.2149      13.1765      28.7324    5760.2466 
  192000      191.986    289.50561    12.087156   -687.50546    -675.4183    26803.528    49098.264    46013.932   -14701.612      15.2149      13.1765      28.7324    5760.2466 
  192500      192.486    291.42786    12.167412   -687.56768   -675.40027    24350.552     46242.91    44803.747       -17995      15.2149      13.1765      28.7324    5760.2466 
  193000      192.986    294.36675    12.290114   -687.67389   -675.38378    26222.444    43067.646    48897.663   -13297.977      15.2149      13.1765      28.7324    5760.2466 
  193500      193.486    292.77487    12.223651   -687.58984   -675.36619    23279.492    46100.763    45643.768   -21906.055      15.2149      13.1765      28.7324    5760.2466 
  194000      193.986    300.12434    12.530499   -687.88073   -675.35023     25443.59    45188.953    45856.079   -14714.261      15.2149      13.1765      28.7324    5760.2466 
  194500      194.486    292.69633    12.220372   -687.55302   -675.33265    22878.346    41720.518    47594.138   -20679.617      15.2149      13.1765      28.7324    5760.2466 
  195000      194.986    288.52581    12.046249   -687.36243   -675.31618    24783.093    46949.995    47171.356   -19772.071      15.2149      13.1765      28.7324    5760.2466 
  195500      195.486    298.85328    12.477431   -687.77488   -675.29745    24178.427    45827.466    47850.639   -21142.823      15.2149      13.1765      28.7324    5760.2466 
  196000      195.986    304.12245    12.697424    -687.9787   -675.28128    25082.289    43506.753    45469.357   -13729.244      15.2149      13.1765      28.7324    5760.2466 
  196500      196.486    294.20484    12.283354   -687.54773   -675.26438    24985.486    43370.826    50933.512   -19347.881      15.2149      13.1765      28.7324    5760.2466 
  197000      196.986    296.92891    12.397087   -687.64393   -675.24685    23765.635    46715.728    48400.361   -23819.183      15.2149      13.1765      28.7324    5760.2466 
  197500      197.486    292.16104    12.198024   -687.42715   -675.22913    26239.144    45365.685    46489.349   -13137.602      15.2149      13.1765      28.7324    5760.2466 
  198000      197.986    282.34728    11.788289   -686.99946   -675.21117    23331.318    44195.476     45535.97   -19737.493      15.2149      13.1765      28.7324    5760.2466 
  198500      198.486    290.29222    12.119998   -687.31569    -675.1957      24105.4    44469.806    46094.698   -18248.303      15.2149      13.1765      28.7324    5760.2466 
  199000      198.986    286.12893    11.946177   -687.12444   -675.17826    23909.919      44245.6    46218.177    -18734.02      15.2149      13.1765      28.7324    5760.2466 
  199500      199.486    287.53803    12.005008    -687.1653   -675.16029    24112.452    43812.039    46578.306   -18052.987      15.2149      13.1765      28.7324    5760.2466 
  200000      199.986    298.37794    12.457586   -687.60055   -675.14297    23016.665    41060.009    46845.372   -18855.386      15.2149      13.1765      28.7324    5760.2466 
  200500      200.486    280.80811    11.724027   -686.84918   -675.12516    23878.548     44272.54    51172.916   -23809.812      15.2149      13.1765      28.7324    5760.2466 
  201000      200.986    292.39822    12.207926   -687.31739   -675.10947    23189.263    43180.402     48145.77   -21758.382      15.2149      13.1765      28.7324    5760.2466 
  201500      201.486    298.54204    12.464437   -687.55661   -675.09218    23223.989    43005.275    46896.371   -20229.678      15.2149      13.1765      28.7324    5760.2466 
  202000      201.986    303.66545    12.678344   -687.75289   -675.07455    23448.712    46720.176    46296.626   -22670.666      15.2149      13.1765      28.7324    5760.2466 
  202500      202.486    288.43492    12.042454    -687.0983   -675.05585    21715.318    44244.758    44685.022   -23783.828      15.2149      13.1765      28.7324    5760.2466 
  203000      202.986    289.24079      12.0761   -687.11626   -675.04016    21462.661     44823.93    45483.908   -25919.855      15.2149      13.1765      28.7324    5760.2466 
  203500      203.486    300.89352    12.562614   -687.58574   -675.02312    24916.865    43495.974    48123.245   -16868.623      15.2149      13.1765      28.7324    5760.2466 
  204000      203.986    288.58734    12.048818   -687.05357   -675.00475    25535.538    51733.866    48136.486   -23263.737      15.2149      13.1765      28.7324    5760.2466 
  204500      204.486    294.03971     12.27646   -687.26443   -674.98797    22730.558    45312.689     42762.27   -19883.287      15.2149      13.1765      28.7324    5760.2466 
  205000      204.986     301.1771    12.574453   -687.54418   -674.96973    24553.588    46343.476    48960.775   -21643.486      15.2149      13.1765      28.7324    5760.2466 
  205500      205.486    288.87235    12.060717   -687.01388   -674.95316    25829.445    46845.678    48226.877   -17584.218      15.2149      13.1765      28.7324    5760.2466 
  206000      205.986    279.41106    11.665699   -686.60012   -674.93442    24384.435    44356.958    44213.022   -15416.674      15.2149      13.1765      28.7324    5760.2466 
  206500      206.486    292.28289    12.203111   -687.12076   -674.91765    23601.557    45660.165     48361.84   -23217.334      15.2149      13.1765      28.7324    5760.2466 
  207000      206.986     297.3714    12.415561   -687.31645   -674.90089    23910.548    47823.147    44350.581   -20442.084      15.2149      13.1765      28.7324    5760.2466 
  207500      207.486    290.54027    12.130354   -687.01366   -674.88331    25743.846    46892.992    48234.282   -17895.736      15.2149      13.1765      28.7324    5760.2466 
  208000      207.986    296.31673    12.371528   -687.23664   -674.86511    25300.149    47805.608    45618.943   -17524.106      15.2149      13.1765      28.7324    5760.2466 
  208500      208.486    288.73519    12.054991   -686.90276   -674.84777    24966.977    44410.936    45807.462   -15317.466      15.2149      13.1765      28.7324    5760.2466 
  209000      208.986     289.2493    12.076455   -686.90614   -674.82968    23991.811    47763.571    47267.352    -23055.49      15.2149      13.1765      28.7324    5760.2466 
  209500      209.486    287.40974    11.999652   -686.81214   -674.81249    22773.358    46408.551    46098.304   -24186.781      15.2149      13.1765      28.7324    5760.2466 
  210000      209.986    299.88371    12.520453    -687.3159   -674.79545    23938.706    45188.449     45076.88   -18449.212      15.2149      13.1765      28.7324    5760.2466 
  210500      210.486    289.80466    12.099642   -686.87756   -674.77792    20681.871    43478.759    44617.954     -26051.1      15.2149      13.1765      28.7324    5760.2466 
  211000      210.986    290.00915     12.10818   -686.86949   -674.76131    24013.172    43176.199    48524.766   -19661.447      15.2149      13.1765      28.7324    5760.2466 
  211500      211.486    310.02805     12.94399   -687.68928   -674.74529    24106.323     45681.57     46506.65   -19869.253      15.2149      13.1765      28.7324    5760.2466 
  212000      211.986    295.65993    12.344106   -687.06986   -674.72575    22799.008    44531.571    47344.046   -23478.594      15.2149      13.1765      28.7324    5760.2466 
[...]
  948500      948.486     369.2535    15.416713   -683.25374   -667.83703      23080.1    43583.969    49769.862    -24113.53      15.2149      13.1765      28.7324    5760.2466 
  949000      948.986    366.41903    15.298371   -683.13132   -667.83295    22315.305    46938.563    44926.746   -24919.393      15.2149      13.1765      28.7324    5760.2466 
  949500      949.486    380.88367    15.902284   -683.73337   -667.83109    23714.907    46041.716    44688.477   -19585.471      15.2149      13.1765      28.7324    5760.2466 
  950000      949.986    409.77049    17.108339   -684.93705   -667.82872    23718.381    44663.384    47454.734   -20962.975      15.2149      13.1765      28.7324    5760.2466 
  950500      950.486    355.03597    14.823116   -682.64612   -667.82301    22972.837    48068.784    44387.751   -23538.023      15.2149      13.1765      28.7324    5760.2466 
  951000      950.986    366.10175    15.285124    -683.1046   -667.81948    25456.246    47954.004    50648.725    -22233.99      15.2149      13.1765      28.7324    5760.2466 
  951500      951.486      388.388    16.215598   -684.03288   -667.81728    21863.156    43923.104    46144.564   -24478.199      15.2149      13.1765      28.7324    5760.2466 
  952000      951.986    350.80022     14.64627   -682.45813   -667.81186    23408.796    43006.619     45638.55   -18418.781      15.2149      13.1765      28.7324    5760.2466 
  952500      952.486    368.46203    15.383668   -683.19247   -667.80881    23900.675    46383.918    45316.379   -19998.273      15.2149      13.1765      28.7324    5760.2466 
  953000      952.986    372.88654    15.568396   -683.37333   -667.80493    21562.094     42236.88    44607.076   -22157.674      15.2149      13.1765      28.7324    5760.2466 
  953500      953.486     375.1926    15.664676   -683.46609   -667.80142    22112.004     44099.36    46422.149   -24185.497      15.2149      13.1765      28.7324    5760.2466 
  954000      953.986    388.35799    16.214345   -684.01278   -667.79844     24829.61    48370.103     43878.66   -17759.934      15.2149      13.1765      28.7324    5760.2466 
  954500      954.486    375.32463    15.670189   -683.46389    -667.7937    22851.164    46493.297    47726.577   -25666.382      15.2149      13.1765      28.7324    5760.2466 
  955000      954.986    369.65222     15.43336   -683.22422   -667.79086    24220.676    42439.307     51018.79   -20796.068      15.2149      13.1765      28.7324    5760.2466 
  955500      955.486    384.18596    16.040158   -683.82636    -667.7862     22739.21    47205.394    46053.708   -25041.471      15.2149      13.1765      28.7324    5760.2466 
  956000      955.986    384.95012    16.072063   -683.85532   -667.78325     24589.15    44612.854    49401.836    -20247.24      15.2149      13.1765      28.7324    5760.2466 
  956500      956.486     374.1866    15.622675   -683.40082   -667.77814    24516.406    44478.717    47416.611   -18346.109      15.2149      13.1765      28.7324    5760.2466 
  957000      956.986    372.91976    15.569783   -683.34409   -667.77431    23084.339    44531.014    47975.867   -23253.864      15.2149      13.1765      28.7324    5760.2466 
  957500      957.486     377.6151    15.765818   -683.53642    -667.7706    21628.691    41442.229    45872.099   -22428.255      15.2149      13.1765      28.7324    5760.2466 
  958000      957.986    370.53356    15.470156   -683.23608   -667.76592    24695.277    44042.533    47077.341   -17034.044      15.2149      13.1765      28.7324    5760.2466 
  958500      958.486    363.65378    15.182919   -682.94424   -667.76132    25200.893    41803.392    52654.248   -18854.962      15.2149      13.1765      28.7324    5760.2466 
  959000      958.986    387.69563    16.186691   -683.94421   -667.75752    23709.243    43896.267    44472.576   -17241.114      15.2149      13.1765      28.7324    5760.2466 
  959500      959.486    351.04228    14.656376   -682.40765   -667.75127    24137.511    44781.736    48554.752   -20923.955      15.2149      13.1765      28.7324    5760.2466 
  960000      959.986     380.7554    15.896929    -683.6462   -667.74927    24604.736    45599.532     48568.28   -20353.603      15.2149      13.1765      28.7324    5760.2466 
  960500      960.486    362.34614    15.128324   -682.87237   -667.74405    23084.116    40921.681    49777.428   -21446.761      15.2149      13.1765      28.7324    5760.2466 
  961000      960.986    394.20415    16.458428   -684.19885   -667.74042    23895.732    46470.182    47028.626   -21811.613      15.2149      13.1765      28.7324    5760.2466 
  961500      961.486    373.51139    15.594484    -683.3295   -667.73502    21607.936    44574.794    46979.647   -26730.634      15.2149      13.1765      28.7324    5760.2466 
  962000      961.986    386.11393    16.120653   -683.85292   -667.73226    23173.476    42868.784    45243.395   -18591.753      15.2149      13.1765      28.7324    5760.2466 
  962500      962.486    371.13137    15.495116   -683.22157   -667.72645    24540.073    46524.902    48260.349    -21165.03      15.2149      13.1765      28.7324    5760.2466 
  963000      962.986    355.03247     14.82297   -682.54479   -667.72182    24005.196    43181.839    51754.177   -22920.428      15.2149      13.1765      28.7324    5760.2466 
  963500      963.486    393.69839    16.437312    -684.1563   -667.71899    24159.185     41915.16    52687.094   -22124.698      15.2149      13.1765      28.7324    5760.2466 
  964000      963.986    377.74173    15.771105   -683.48426   -667.71316    24210.663    45657.883     49042.74   -22068.634      15.2149      13.1765      28.7324    5760.2466 
  964500      964.486    392.00982    16.366813   -684.07599   -667.70918    23282.792    46996.706    49836.442   -26984.773      15.2149      13.1765      28.7324    5760.2466 
  965000      964.986    388.96758    16.239796   -683.94445   -667.70466    23907.924    45138.132    48352.057   -21766.416      15.2149      13.1765      28.7324    5760.2466 
  965500      965.486    381.10843    15.911668   -683.61051   -667.69884    22404.037    48523.439    44750.218   -26061.547      15.2149      13.1765      28.7324    5760.2466 
  966000      965.986    369.60075    15.431211   -683.12457   -667.69336    25819.293    46139.981    50146.687   -18828.789      15.2149      13.1765      28.7324    5760.2466 
  966500      966.486    389.82526    16.275605   -683.96468   -667.68908    22744.257     44812.05    48485.957   -25065.236      15.2149      13.1765      28.7324    5760.2466 
  967000      966.986    392.67928    16.394763   -684.07935   -667.68458    21234.023     41577.62    45302.239   -23177.791      15.2149      13.1765      28.7324    5760.2466 
  967500      967.486      363.676    15.183847   -682.86293   -667.67908    25647.421    45407.658    49485.039   -17950.435      15.2149      13.1765      28.7324    5760.2466 
  968000      967.986    393.71387    16.437958   -684.11233   -667.67437     24763.05    45637.967    48141.963   -19490.779      15.2149      13.1765      28.7324    5760.2466 
  968500      968.486    385.31882    16.087456   -683.75694   -667.66948    23521.129    42197.736    47218.069   -18852.419      15.2149      13.1765      28.7324    5760.2466 
  969000      968.986    390.43572    16.301092   -683.96615   -667.66506    21456.425    41705.316    44883.786   -22219.827      15.2149      13.1765      28.7324    5760.2466 
  969500      969.486    378.89708    15.819342   -683.47902   -667.65968     23012.69    42549.545    47136.651   -20648.126      15.2149      13.1765      28.7324    5760.2466 
  970000      969.986    383.37463    16.006284   -683.66084   -667.65456    24842.104     46838.82    47968.787   -20281.296      15.2149      13.1765      28.7324    5760.2466 
  970500      970.486    372.80905    15.565161   -683.21387   -667.64871    22282.444    44020.992    48793.251   -25966.911      15.2149      13.1765      28.7324    5760.2466 
  971000      970.986    368.68428    15.392947   -683.03708   -667.64413     23755.04     49847.97    41374.546   -19957.395      15.2149      13.1765      28.7324    5760.2466 
  971500      971.486     397.0762    16.578339   -684.21808   -667.63974    25490.055    48352.909    45585.862   -17468.606      15.2149      13.1765      28.7324    5760.2466 
  972000      971.986    381.84109    15.942258   -683.57801   -667.63575    22155.372    43710.753    49646.037   -26890.675      15.2149      13.1765      28.7324    5760.2466 
  972500      972.486    372.30209    15.543995   -683.17309    -667.6291    24700.567    46261.889    45037.191   -17197.379      15.2149      13.1765      28.7324    5760.2466 
  973000      972.986     370.9397    15.487113   -683.11154   -667.62442    23379.729    44301.429    50157.865   -24320.105      15.2149      13.1765      28.7324    5760.2466 
  973500      973.486    363.20438    15.164156   -682.78349   -667.61933    24619.348    52204.426     47715.75   -26062.132      15.2149      13.1765      28.7324    5760.2466 
  974000      973.986    347.34595     14.50205    -682.1151   -667.61305    23307.408     46842.94    46984.715   -23905.431      15.2149      13.1765      28.7324    5760.2466 
  974500      974.486    378.97964    15.822789   -683.43112   -667.60833    21241.727    45905.421    48625.597   -30805.838      15.2149      13.1765      28.7324    5760.2466 
  975000      974.986    394.17053    16.457024   -684.06103   -667.60401    23160.308    44132.261    48312.612    -22963.95      15.2149      13.1765      28.7324    5760.2466 
  975500      975.486    360.68308    15.058889   -682.65605   -667.59717    23217.878    43755.307    48147.252   -22248.925      15.2149      13.1765      28.7324    5760.2466 
  976000      975.986    380.69561    15.894433   -683.48749   -667.59306    22641.864    44068.238    44705.798   -20848.443      15.2149      13.1765      28.7324    5760.2466 
  976500      976.486    384.85667    16.068161    -683.6557   -667.58754    23181.158    45407.485    47673.705   -23537.714      15.2149      13.1765      28.7324    5760.2466 
  977000      976.986    361.73429    15.102778    -682.6833   -667.58052    22567.932    46211.854    43924.594   -22432.651      15.2149      13.1765      28.7324    5760.2466 
  977500      977.486    369.98456    15.447235   -683.02329   -667.57606    22404.837    45587.381    46496.522   -24869.393      15.2149      13.1765      28.7324    5760.2466 
  978000      977.986    378.07932      15.7852   -683.35612   -667.57092    22791.046    46458.563    46995.244   -25080.669      15.2149      13.1765      28.7324    5760.2466 
  978500      978.486    377.27757    15.751726   -683.31596   -667.56423    22184.561    46368.662     46966.16   -26781.139      15.2149      13.1765      28.7324    5760.2466 
  979000      978.986     381.7123     15.93688    -683.4971   -667.56022    21231.417    44520.702    47078.098   -27904.549      15.2149      13.1765      28.7324    5760.2466 
  979500      979.486    376.42754    15.716236   -683.27135   -667.55511    21949.556    42664.381    47783.936    -24599.65      15.2149      13.1765      28.7324    5760.2466 
  980000      979.986    385.26519    16.085217    -683.6348   -667.54959     23567.35    46111.501      45690.3   -21099.752      15.2149      13.1765      28.7324    5760.2466 
  980500      980.486    368.06147    15.366944   -682.90988   -667.54293    23816.424    47132.792    45814.097   -21497.615      15.2149      13.1765      28.7324    5760.2466 
  981000      980.986    395.53749    16.514096   -684.05306   -667.53897    21840.527    45827.717    45274.009   -25580.145      15.2149      13.1765      28.7324    5760.2466 
  981500      981.486    355.50557    14.842722   -682.37405   -667.53132    25862.615    46641.692    48289.628   -17343.477      15.2149      13.1765      28.7324    5760.2466 
  982000      981.986     371.3042    15.502331   -683.02855   -667.52622    21164.991    44739.186     44866.84   -26111.052      15.2149      13.1765      28.7324    5760.2466 
  982500      982.486     390.5726    16.306807   -683.82784   -667.52104    22691.381    44584.063    44919.112   -21429.032      15.2149      13.1765      28.7324    5760.2466 
  983000      982.986     391.1356    16.330313   -683.84527   -667.51495    23526.649    42489.142    49002.604   -20911.799      15.2149      13.1765      28.7324    5760.2466 
  983500      983.486    392.15718    16.372965   -683.88256    -667.5096    25501.044      49553.3    48021.326   -21071.495      15.2149      13.1765      28.7324    5760.2466 
  984000      983.986    399.31721    16.671904   -684.17622   -667.50432    23383.597    44210.164     47782.17   -21841.543      15.2149      13.1765      28.7324    5760.2466 
  984500      984.486    386.62923    16.142167   -683.64115   -667.49899    23287.713    46019.984    48090.058   -24246.904      15.2149      13.1765      28.7324    5760.2466 
  985000      984.986    394.45069    16.468721   -683.96112    -667.4924    24220.725    43602.767     50406.29   -21346.883      15.2149      13.1765      28.7324    5760.2466 
  985500      985.486    379.93947    15.862863   -683.34869   -667.48583    23387.376    44802.625    49744.908   -24385.406      15.2149      13.1765      28.7324    5760.2466 
  986000      985.986    385.62651    16.100303   -683.58062   -667.48032    21313.582    45383.167    44517.473   -25959.892      15.2149      13.1765      28.7324    5760.2466 
  986500      986.486    366.84696    15.316237   -682.78946   -667.47322    25725.339    47853.191    49237.629   -19914.805      15.2149      13.1765      28.7324    5760.2466 
  987000      986.986     367.6814    15.351076   -682.81828   -667.46721    22081.588    45900.997    46964.413   -26620.646      15.2149      13.1765      28.7324    5760.2466 
  987500      987.486    369.99848    15.447816   -682.90861   -667.46079    24142.362    46294.756    45123.209   -18990.879      15.2149      13.1765      28.7324    5760.2466 
  988000      987.986    371.43781     15.50791   -682.96303   -667.45512    27473.231    48711.265     45003.44   -11295.013      15.2149      13.1765      28.7324    5760.2466 
  988500      988.486    383.38359    16.006659   -683.45653   -667.44987    23624.395    46379.557    44679.385   -20185.756      15.2149      13.1765      28.7324    5760.2466 
  989000      988.986    366.70539    15.310326   -682.75338   -667.44306    22319.225     44937.67    45546.167   -23526.163      15.2149      13.1765      28.7324    5760.2466 
  989500      989.486    389.50891    16.262397   -683.70051   -667.43811    24439.813    42565.703    48224.555   -17470.819      15.2149      13.1765      28.7324    5760.2466 
  990000      989.986    357.32038    14.918493   -682.34949     -667.431    21095.629    45474.728     44287.76     -26475.6      15.2149      13.1765      28.7324    5760.2466 
  990500      990.486    386.02048    16.116751   -683.54226    -667.4255    25855.495     45530.29    50264.091   -18227.896      15.2149      13.1765      28.7324    5760.2466 
  991000      990.986    385.62267    16.100142   -683.51984    -667.4197    23122.571    43171.444    45543.118    -19346.85      15.2149      13.1765      28.7324    5760.2466 
  991500      991.486    368.59688    15.389298   -682.80069   -667.41139    22149.774    43645.211    43368.958   -20564.846      15.2149      13.1765      28.7324    5760.2466 
  992000      991.986    377.75378    15.771608   -683.17861   -667.40701    23220.185    47854.405    45019.303   -23213.153      15.2149      13.1765      28.7324    5760.2466 
  992500      992.486    375.09729    15.660697   -683.06136   -667.40066    21765.844    41849.122    47199.263   -23750.854      15.2149      13.1765      28.7324    5760.2466 
  993000      992.986    405.30977    16.922099   -684.31773   -667.39563     22814.84    47245.103     48345.96   -27146.544      15.2149      13.1765      28.7324    5760.2466 
  993500      993.486    386.11027      16.1205   -683.50991   -667.38941    21701.153    45805.268     47085.92    -27787.73      15.2149      13.1765      28.7324    5760.2466 
  994000      993.986    382.02523    15.949946   -683.33302   -667.38307    22673.427    46559.938     46319.32   -24858.977      15.2149      13.1765      28.7324    5760.2466 
  994500      994.486    363.87131    15.192001   -682.56735   -667.37535    26209.082    51112.019    50082.249   -22567.021      15.2149      13.1765      28.7324    5760.2466 
  995000      994.986    391.83701    16.359598   -683.73173   -667.37214    23849.069    45399.836    45552.292   -19404.922      15.2149      13.1765      28.7324    5760.2466 
  995500      995.486    398.42256    16.634551   -683.99923   -667.36468    22341.091    47516.389    44469.773   -24962.888      15.2149      13.1765      28.7324    5760.2466 
  996000      995.986    367.53399    15.344922   -682.70212    -667.3572    26571.344    46893.506    51639.226     -18818.7      15.2149      13.1765      28.7324    5760.2466 
  996500      996.486    383.12176    15.995727   -683.34558   -667.34986    23307.867    44783.738    46898.298   -21758.435      15.2149      13.1765      28.7324    5760.2466 
  997000      996.986    389.79201    16.274217   -683.61817   -667.34395     23508.18    49270.523    45322.965   -24068.947      15.2149      13.1765      28.7324    5760.2466 
  997500      997.486    380.88001    15.902132   -683.24038   -667.33824    23737.786    47214.215    45392.469   -21393.327      15.2149      13.1765      28.7324    5760.2466 
  998000      997.986    372.99243    15.572817    -682.9032   -667.33038    24180.812    46842.804    48751.937   -23052.306      15.2149      13.1765      28.7324    5760.2466 
  998500      998.486    391.36534    16.339905   -683.66609   -667.32618    22315.671    46484.807    45658.503   -25196.298      15.2149      13.1765      28.7324    5760.2466 
  999000      998.986    390.12704    16.288205   -683.60734   -667.31913    23578.417    46403.948    49440.275   -25108.973      15.2149      13.1765      28.7324    5760.2466 
  999500      999.486    390.97776    16.323723   -683.63522    -667.3115    23859.396    46187.136    46858.996   -21467.944      15.2149      13.1765      28.7324    5760.2466 
 1000000      999.986     368.8155    15.398426   -682.70193   -667.30351    24516.746    42064.721     48208.34   -16722.823      15.2149      13.1765      28.7324    5760.2466 
 1000014         1000    391.60101    16.349744   -683.65621   -667.30646    24645.264    41201.511     45714.49    -12980.21      15.2149      13.1765      28.7324    5760.2466 
Loop time of 941.459 on 28 procs for 1000000 steps with 324 atoms

Performance: 91.772 ns/day, 0.262 hours/ns, 1062.182 timesteps/s
88.5% CPU use with 28 MPI tasks x no OpenMP threads

MPI task timing breakdown:
Section |  min time  |  avg time  |  max time  |%varavg| %total
---------------------------------------------------------------
Pair    | 748.65     | 810.9      | 875.89     | 122.2 | 86.13
Neigh   | 0          | 0          | 0          |   0.0 |  0.00
Comm    | 53.543     | 117.79     | 182.66     | 318.7 | 12.51
Output  | 0.098354   | 0.10051    | 0.11774    |   1.1 |  0.01
Modify  | 4.6866     | 7.5834     | 14.062     | 101.1 |  0.81
Other   |            | 5.081      |            |       |  0.54

Nlocal:    11.5714 ave 15 max 6 min
Histogram: 1 0 2 3 4 1 6 5 3 3
Nghost:    645.036 ave 702 max 600 min
Histogram: 5 1 6 2 3 1 2 4 0 4
Neighs:    727.929 ave 1002 max 409 min
Histogram: 1 3 2 3 1 5 6 2 2 3
FullNghs:  1455.86 ave 1904 max 775 min
Histogram: 1 0 2 3 4 1 6 5 3 3

Total # of neighbors = 40764
Ave neighs/atom = 125.815
Neighbor list builds = 0
Dangerous builds = 0

write_restart   POSCAR_1x1x1.rest

#unfix    1
#undump   1
Total wall time: 0:15:41
