LAMMPS (7 Dec 2015)
#----------- Initialize Simulation ------------ restart01
#processors	2 2 2
units		metal
boundary	p p p     ## periodic boundary condition  on x y z axis ##
atom_style atomic
#atom_modify map array sort 0 0.0

read_data	POSCAR_1x1x1.lammps
  triclinic box = (0 0 0) to (15.2149 13.1765 28.7324) with tilt (-7.60743 0 0)
  2 by 2 by 7 MPI processor grid
  reading atoms ...
  324 atoms

#----------- Define Potential -----------------
pair_style meam
pair_coeff * * MgAlZn.library.meam Mg Al Zn MgAlZn.parameter.meam Mg Al Zn 	#1=Mg 2=Al 3=Zn	#atoms/mass

#----------- Neighbor List --------------------
neighbor 2.0 bin
neigh_modify delay 10 check yes

#--------------  Run a simulation (minimization) ---------------------------------------
minimize       1.0e-4   1.0e-6   100   1000          #結構優化的條件
WARNING: Resetting reneighboring criteria during minimization (../min.cpp:168)
Neighbor list info ...
  2 neighbor list requests
  update every 1 steps, delay 0 steps, check yes
  max neighbors/atom: 2000, page size: 100000
  master list distance cutoff = 8
  ghost atom cutoff = 8
  binsize = 4 -> bins = 6 4 8
Memory usage per processor = 8.65379 Mbytes
Step Temp E_pair E_mol TotEng Press 
       0            0    -511.0912            0    -511.0912    4356.6892 
      12            0   -526.51738            0   -526.51738   -2288.0261 
Loop time of 0.0206552 on 28 procs for 12 steps with 324 atoms

83.2% CPU use with 28 MPI tasks x no OpenMP threads

Minimization stats:
  Stopping criterion = energy tolerance
  Energy initial, next-to-last, final = 
        -511.091203625     -526.469217885     -526.517382492
  Force two-norm initial, final = 23.0603 2.48238
  Force max component initial, final = 4.84623 1.06583
  Final line search alpha, max atom move = 0.228851 0.243915
  Iterations, force evaluations = 12 23

MPI task timing breakdown:
Section |  min time  |  avg time  |  max time  |%varavg| %total
---------------------------------------------------------------
Pair    | 0.016926   | 0.017658   | 0.018698   |   0.3 | 85.49
Neigh   | 0          | 0          | 0          |   0.0 |  0.00
Comm    | 0.0011651  | 0.00212    | 0.0028874  |   0.9 | 10.26
Output  | 0          | 0          | 0          |   0.0 |  0.00
Modify  | 0          | 0          | 0          |   0.0 |  0.00
Other   |            | 0.0008771  |            |       |  4.25

Nlocal:    11.5714 ave 15 max 9 min
Histogram: 5 5 0 4 0 6 3 0 1 4
Nghost:    659.857 ave 709 max 626 min
Histogram: 9 3 0 5 3 0 0 0 2 6
Neighs:    720.857 ave 979 max 531 min
Histogram: 3 3 6 3 5 0 2 2 2 2
FullNghs:  1441.71 ave 1879 max 1110 min
Histogram: 5 2 4 3 4 2 3 0 1 4

Total # of neighbors = 40368
Ave neighs/atom = 124.593
Neighbor list builds = 0
Dangerous builds = 0
velocity all  create 393.0 4928459 #rot yes dist gaussian

#--------------  Run a simulation (Relaxation)  ----------------------------------------
fix  1  all  nvt   temp  393.0  393.0  100				#damping constant
#fix  2  all  npt   temp  393.0  393.0  50 iso 0.0 0.0 1000.0
#fix  2  all deform 1 x final 0 15.6906 y final 0 13.5884 z final 0 25.2339 xy final -7.8452 units lattice
#fix  3  all  npt   temp  393.0  393.0  50 z 0.0 0.0 1000.0

#variable b equal 1
#fix 2 all efield  0.0  0.0  v_b
#compute pot all pe/atom


#----------- Output --------------------------
thermo	 500
timestep  0.001		#1.0 fs
thermo_style	custom step time temp ke pe etotal press pxx pyy pzz lx ly lz vol

dump 1 all custom 10000 dump.eq id type x y z
dump_modify 1 sort  id

run        1000000	#10000	 ps
Neighbor list info ...
  2 neighbor list requests
  update every 1 steps, delay 10 steps, check yes
  max neighbors/atom: 2000, page size: 100000
  master list distance cutoff = 8
  ghost atom cutoff = 8
  binsize = 4 -> bins = 6 4 8
Memory usage per processor = 7.54427 Mbytes
Step Time Temp KinEng PotEng TotEng Press Pxx Pyy Pzz Lx Ly Lz Volume 
      12            0          393    16.408154   -526.51738   -510.10923    754.52401    22369.123    33146.014   -53251.564      15.2149      13.1765      28.7324    5760.2466 
     500        0.488    210.35889    8.7826997   -518.88622   -510.10352    2111.9913    27029.091    37487.639   -58180.755      15.2149      13.1765      28.7324    5760.2466 
    1000        0.988    201.37761    8.4077221   -518.50995   -510.10223    2494.8589    28901.843    38312.623   -59729.889      15.2149      13.1765      28.7324    5760.2466 
    1500        1.488    201.45723    8.4110462    -518.5132   -510.10215    3541.5287    27142.297    37502.681   -54020.392      15.2149      13.1765      28.7324    5760.2466 
    2000        1.988     210.0753    8.7708593     -518.872   -510.10114    2942.6097    28439.738    38849.719   -58461.628      15.2149      13.1765      28.7324    5760.2466 
    2500        2.488    213.00714    8.8932668   -518.99417   -510.10091    2903.0152    26006.645    35565.525   -52863.125      15.2149      13.1765      28.7324    5760.2466 
    3000        2.988    214.62624    8.9608659    -519.0603   -510.09943    2392.6028    28159.882    38660.731   -59642.804      15.2149      13.1765      28.7324    5760.2466 
    3500        3.488     211.9266    8.8481531   -518.94664   -510.09849     2679.571    26824.586    39960.737    -58746.61      15.2149      13.1765      28.7324    5760.2466 
    4000        3.988    219.05215    9.1456521   -519.24235    -510.0967    2626.6425    26399.506    38504.504   -57024.083      15.2149      13.1765      28.7324    5760.2466 
    4500        4.488    213.16384    8.8998092   -518.99472   -510.09491    1957.1231    24667.246    34753.596   -53549.473      15.2149      13.1765      28.7324    5760.2466 
    5000        4.988    195.58069    8.1656947   -518.25828   -510.09258    2026.6813    25751.317    38506.458   -58177.731      15.2149      13.1765      28.7324    5760.2466 
    5500        5.488    211.69506     8.838486   -518.92881   -510.09032    3113.7444    25923.635    39074.942   -55657.344      15.2149      13.1765      28.7324    5760.2466 
    6000        5.988    213.87416    8.9294659   -519.01749   -510.08803    2048.4754    23736.511    38766.265    -56357.35      15.2149      13.1765      28.7324    5760.2466 
    6500        6.488    222.21317    9.2776281   -519.36266   -510.08504    2507.5317    27063.941    39968.892   -59510.238      15.2149      13.1765      28.7324    5760.2466 
    7000        6.988     232.0745    9.6893485   -519.77317   -510.08382    3065.1781    28892.739    37528.812   -57226.016      15.2149      13.1765      28.7324    5760.2466 
    7500        7.488    217.84495    9.0952503   -519.17524   -510.07999    1969.3206    24990.142    36526.408   -55608.589      15.2149      13.1765      28.7324    5760.2466 
    8000        7.988    219.54015    9.1660265    -519.2433   -510.07728    1881.6847    25390.598    38427.185   -58172.728      15.2149      13.1765      28.7324    5760.2466 
    8500        8.488    208.80867    8.7179764   -518.79144   -510.07346    2081.7165    25892.674    37237.661   -56885.185      15.2149      13.1765      28.7324    5760.2466 
    9000        8.988     202.7331     8.464315   -518.53346   -510.06915    2421.5994    29934.193    37062.267   -59731.662      15.2149      13.1765      28.7324    5760.2466 
    9500        9.488    203.88517    8.5124153     -518.578   -510.06559    2340.8999    28658.485    37661.657   -59297.442      15.2149      13.1765      28.7324    5760.2466 
   10000        9.988    225.40478    9.4108809   -519.47318    -510.0623    2121.8074    25808.894    38550.906   -57994.378      15.2149      13.1765      28.7324    5760.2466 
   10500       10.488    209.16416    8.7328186   -518.79033   -510.05752    2552.3187    25048.741    39711.119   -57102.905      15.2149      13.1765      28.7324    5760.2466 
   11000       10.988    196.14044    8.1890649   -518.24138   -510.05232    1389.6816    25064.287    39308.891   -60204.133      15.2149      13.1765      28.7324    5760.2466 
   11500       11.488    210.19114     8.775696   -518.82373   -510.04803    2343.1085     27623.45    38186.079   -58780.203      15.2149      13.1765      28.7324    5760.2466 
   12000       11.988    214.05077    8.9368394   -518.98051   -510.04367    1803.1777    27354.044    39613.265   -61557.776      15.2149      13.1765      28.7324    5760.2466 
   12500       12.488    215.39982    8.9931635   -519.03128   -510.03812    3307.6068    29277.011     37445.53    -56799.72      15.2149      13.1765      28.7324    5760.2466 
   13000       12.988    203.70226    8.5047785   -518.53731   -510.03253     2999.735    27250.976    34931.686   -53183.457      15.2149      13.1765      28.7324    5760.2466 
   13500       13.488    207.49177    8.6629944   -518.69026   -510.02726    2705.4097    29030.132    37766.644   -58680.547      15.2149      13.1765      28.7324    5760.2466 
   14000       13.988    207.06002    8.6449683   -518.66682   -510.02186    3112.4441    31639.427    39453.426   -61755.521      15.2149      13.1765      28.7324    5760.2466 
   14500       14.488    214.17479    8.9420176   -518.95811   -510.01609    2783.0582    24971.728    39321.089   -55943.643      15.2149      13.1765      28.7324    5760.2466 
   15000       14.988    216.20334    9.0267113   -519.03666   -510.00995    1941.8223    26467.774    41062.045   -61704.352      15.2149      13.1765      28.7324    5760.2466 
   15500       15.488    214.93695    8.9738382   -518.97838   -510.00454    2577.0997    25189.354     40742.26   -58200.315      15.2149      13.1765      28.7324    5760.2466 
   16000       15.988    212.51119    8.8725603   -518.87061   -509.99805    1987.3561    26638.416     40306.81   -60983.158      15.2149      13.1765      28.7324    5760.2466 
   16500       16.488    203.86146    8.5114254   -518.50234   -509.99092    3333.2713    27814.657    39590.142   -57404.984      15.2149      13.1765      28.7324    5760.2466 
   17000       16.988    224.71881    9.3822409   -519.36703   -509.98479    3478.2521    28283.063    38608.727   -56457.034      15.2149      13.1765      28.7324    5760.2466 
   17500       17.488    209.98093    8.7669196   -518.74426   -509.97734    2459.8277     27777.95    35148.313   -55546.781      15.2149      13.1765      28.7324    5760.2466 
   18000       17.988     216.7865     9.051059   -519.02079   -509.96974    2758.6952    26316.128    35947.251   -53987.293      15.2149      13.1765      28.7324    5760.2466 
   18500       18.488    212.27337    8.8626313   -518.82548   -509.96284    2390.5656    24782.688    37487.143   -55098.134      15.2149      13.1765      28.7324    5760.2466 
   19000       18.988    203.82847    8.5100481   -518.46478   -509.95474    2721.3086    27250.145    36534.709   -55620.928      15.2149      13.1765      28.7324    5760.2466 
   19500       19.488    224.13284    9.3577763   -519.30509   -509.94731    2010.3943    26829.251    35215.613   -56013.681      15.2149      13.1765      28.7324    5760.2466 
   20000       19.988    207.73712    8.6732379   -518.61175   -509.93851    2931.1971     28478.06    41599.651    -61284.12      15.2149      13.1765      28.7324    5760.2466 
   20500       20.488    203.97275    8.5160717   -518.44649   -509.93042    3029.5709    25246.339    37222.898   -53380.524      15.2149      13.1765      28.7324    5760.2466 
   21000       20.988    230.27245     9.614111   -519.53809   -509.92398    1630.2376    28487.706    37277.691   -60874.684      15.2149      13.1765      28.7324    5760.2466 
   21500       21.488    215.76483    9.0084034    -518.9222    -509.9138    3410.8111    26336.903    36591.378   -52695.847      15.2149      13.1765      28.7324    5760.2466 
   22000       21.988    214.37707    8.9504629   -518.85509   -509.90463    2971.7701    29706.643    33291.462   -54082.795      15.2149      13.1765      28.7324    5760.2466 
   22500       22.488    206.38105    8.6166209   -518.51215   -509.89553    3474.2663      28734.1    36724.426   -55035.726      15.2149      13.1765      28.7324    5760.2466 
   23000       22.988    215.45435    8.9954403   -518.88285   -509.88741    3341.5562    30409.553    38118.376    -58503.26      15.2149      13.1765      28.7324    5760.2466 
   23500       23.488    211.92562    8.8481123   -518.72533   -509.87721    1778.7139    27992.464    36314.145   -58970.468      15.2149      13.1765      28.7324    5760.2466 
   24000       23.988    223.13849    9.3162609   -519.18388   -509.86761    2299.5229    27937.014    35285.241   -56323.687      15.2149      13.1765      28.7324    5760.2466 
   24500       24.488    205.91616    8.5972112   -518.45518   -509.85797    3710.8028    27966.289    38567.189    -55401.07      15.2149      13.1765      28.7324    5760.2466 
   25000       24.988    206.73643    8.6314583   -518.47931   -509.84786    2350.5631    24001.685    39607.578   -56557.574      15.2149      13.1765      28.7324    5760.2466 
   25500       25.488    221.54562    9.2497573   -519.08807   -509.83831     2346.697    28032.301    36162.696   -57154.906      15.2149      13.1765      28.7324    5760.2466 
   26000       25.988    228.56902    9.5429914   -519.37127   -509.82828     1540.711    26354.266    34398.634   -56130.767      15.2149      13.1765      28.7324    5760.2466 
   26500       26.488    203.38406    8.4914933   -518.30804   -509.81654    3070.8752    25235.151    38046.139   -54068.665      15.2149      13.1765      28.7324    5760.2466 
   27000       26.988    225.30834    9.4068547   -519.21354   -509.80669    2016.5967    26022.506    36525.754   -56498.469      15.2149      13.1765      28.7324    5760.2466 
   27500       27.488    216.21887      9.02736   -518.82335   -509.79599    3024.2685    28513.701    36973.818   -56414.714      15.2149      13.1765      28.7324    5760.2466 
   28000       27.988    210.35046    8.7823479   -518.56713   -509.78478    3116.3199    30119.658    37222.705   -57993.403      15.2149      13.1765      28.7324    5760.2466 
   28500       28.488    214.47487    8.9545461     -518.728   -509.77346    1899.9133    28225.091    39067.887   -61593.238      15.2149      13.1765      28.7324    5760.2466 
   29000       28.988    211.37174    8.8249872   -518.58781   -509.76282    2149.5803    29970.883    37279.441   -60801.582      15.2149      13.1765      28.7324    5760.2466 
   29500       29.488    204.73725    8.5479904   -518.29935   -509.75136    2674.8403     29477.83    38413.152   -59866.462      15.2149      13.1765      28.7324    5760.2466 
   30000       29.988    218.39844     9.118359   -518.85754   -509.73918    2770.1552    28157.963    35182.868   -55030.366      15.2149      13.1765      28.7324    5760.2466 
   30500       30.488    213.68688    8.9216467   -518.64948   -509.72783    1894.0917    30546.489    34648.519   -59512.733      15.2149      13.1765      28.7324    5760.2466 
   31000       30.988    224.01658    9.3529221   -519.06936   -509.71644     2326.678     28769.01    36699.921   -58488.898      15.2149      13.1765      28.7324    5760.2466 
   31500       31.488    206.80988     8.634525   -518.33918   -509.70465    699.23761    26171.193     37007.24   -61080.721      15.2149      13.1765      28.7324    5760.2466 
   32000       31.988    219.17433    9.1507532   -518.84407   -509.69332    2413.7572    29913.935    35766.456    -58439.12      15.2149      13.1765      28.7324    5760.2466 
   32500       32.488    221.28333    9.2388064   -518.91952   -509.68072    906.18644    24499.514    37869.106   -59650.061      15.2149      13.1765      28.7324    5760.2466 
   33000       32.988    214.15087    8.9410188   -518.60998   -509.66896    3069.2995    26201.054    37524.093   -54517.248      15.2149      13.1765      28.7324    5760.2466 
   33500       33.488    223.48082    9.3305536   -518.98718   -509.65663    1504.8282    25787.533    37091.863   -58364.911      15.2149      13.1765      28.7324    5760.2466 
   34000       33.988    226.99385    9.4772261   -519.12151   -509.64429    2817.6753    28154.497    39577.577   -59279.048      15.2149      13.1765      28.7324    5760.2466 
   34500       34.488    224.04105    9.3539437   -518.98545   -509.63151    1594.9617    26980.419     37273.49   -59469.024      15.2149      13.1765      28.7324    5760.2466 
   35000       34.988    218.18184    9.1093158   -518.72837   -509.61905     1212.357    26031.602    37275.974   -59670.506      15.2149      13.1765      28.7324    5760.2466 
   35500       35.488    225.87646    9.4305741   -519.03744   -509.60687    2565.7322    27118.659    37980.426   -57401.888      15.2149      13.1765      28.7324    5760.2466 
   36000       35.988    218.91765    9.1400365   -518.73378   -509.59375    634.92534    23941.871    37277.865    -59314.96      15.2149      13.1765      28.7324    5760.2466 
   36500       36.488    226.16447     9.442599    -519.0235    -509.5809    2130.2603    26329.943    37471.329   -57410.491      15.2149      13.1765      28.7324    5760.2466 
   37000       36.988    216.89793    9.0557114   -518.62346   -509.56775    2142.4755    26127.912     37589.78   -57290.265      15.2149      13.1765      28.7324    5760.2466 
   37500       37.488    218.25497    9.1123691    -518.6674   -509.55503    2025.4111    26223.305    35059.302   -55206.374      15.2149      13.1765      28.7324    5760.2466 
   38000       37.988    212.25358    8.8618049   -518.40335   -509.54154    1216.8553    27018.371    38634.817   -62002.622      15.2149      13.1765      28.7324    5760.2466 
   38500       38.488    215.71429    9.0062931   -518.53633   -509.53004    1617.2794    26730.254    39078.506   -60956.921      15.2149      13.1765      28.7324    5760.2466 
   39000       38.988    217.99994    9.1017215   -518.61823   -509.51651    1092.2866    27071.981    38061.358   -61856.479      15.2149      13.1765      28.7324    5760.2466 
   39500       39.488    214.03609    8.9362265   -518.43923   -509.50301    1831.3665    25749.206    39607.087   -59862.194      15.2149      13.1765      28.7324    5760.2466 
   40000       39.988    224.64707     9.379246   -518.87045    -509.4912    2313.1786    26396.897    37274.343   -56731.704      15.2149      13.1765      28.7324    5760.2466 
   40500       40.488    210.19375    8.7758051   -518.25286   -509.47705     2265.487    28074.515    37114.015   -58392.068      15.2149      13.1765      28.7324    5760.2466 
   41000       40.988    229.15332    9.5673864   -519.03208    -509.4647    2136.8154     25685.57    34872.533   -54147.657      15.2149      13.1765      28.7324    5760.2466 
   41500       41.488    216.28582    9.0301552   -518.48154   -509.45138    2439.1094    26813.309     40114.96    -59610.94      15.2149      13.1765      28.7324    5760.2466 
   42000       41.988    223.90455    9.3482448   -518.78657   -509.43833    2291.6984    26588.916    36580.962   -56294.783      15.2149      13.1765      28.7324    5760.2466 
   42500       42.488    226.40953    9.4528305   -518.87871   -509.42588    2163.0244    27942.047    38934.199   -60387.173      15.2149      13.1765      28.7324    5760.2466 
   43000       42.988    221.79927    9.2603471   -518.67248   -509.41213    1677.8708    27106.097    37573.985   -59646.469      15.2149      13.1765      28.7324    5760.2466 
   43500       43.488    205.54714     8.581804   -517.98111   -509.39931    2597.1637    29108.303    39926.276   -61243.088      15.2149      13.1765      28.7324    5760.2466 
   44000       43.988    223.10825    9.3149987   -518.70149   -509.38649     1892.414    23338.153    36941.984   -54602.895      15.2149      13.1765      28.7324    5760.2466 
   44500       44.488    221.65464    9.2543087   -518.62781    -509.3735     3687.133    29064.278    38263.594   -56266.473      15.2149      13.1765      28.7324    5760.2466 
   45000       44.988    228.19141    9.5272257   -518.88858   -509.36135     1973.093    28253.325    33007.497   -55341.543      15.2149      13.1765      28.7324    5760.2466 
   45500       45.488    226.47918    9.4557381   -518.80426   -509.34852     1911.653    25614.489    38368.492   -58248.022      15.2149      13.1765      28.7324    5760.2466 
   46000       45.988    227.08981    9.4812327   -518.81673    -509.3355    2149.4262    26630.511    36244.105   -56426.337      15.2149      13.1765      28.7324    5760.2466 
   46500       46.488      226.365    9.4509712   -518.77351   -509.32254    2141.1153    28849.702    33647.341   -56073.697      15.2149      13.1765      28.7324    5760.2466 
   47000       46.988    218.34598    9.1161688   -518.42585   -509.30968    1771.0069    28709.994    40736.667    -64133.64      15.2149      13.1765      28.7324    5760.2466 
   47500       47.488    224.01077    9.3526796   -518.65049   -509.29781    2616.5595    27056.131     40962.82   -60169.273      15.2149      13.1765      28.7324    5760.2466 
   48000       47.988    215.43891    8.9947958   -518.27943   -509.28463    1889.0473    25989.845    37368.855   -57691.558      15.2149      13.1765      28.7324    5760.2466 
   48500       48.488    219.62882    9.1697288   -518.44192   -509.27219    2530.1111    27425.323    38115.752   -57950.743      15.2149      13.1765      28.7324    5760.2466 
   49000       48.988    227.24568    9.4877403   -518.74802   -509.26028    1575.8765    26392.064    38178.915    -59843.35      15.2149      13.1765      28.7324    5760.2466 
   49500       49.488    233.27536     9.739486   -518.98684   -509.24736    1616.6014    26797.953    38810.617   -60758.765      15.2149      13.1765      28.7324    5760.2466 
   50000       49.988    234.70863    9.7993263    -519.0348   -509.23547    2344.8599    28593.037    40906.056   -62464.514      15.2149      13.1765      28.7324    5760.2466 
   50500       50.488    224.04314     9.354031   -518.57776   -509.22373    1752.4334    26793.142    36795.663   -58331.505      15.2149      13.1765      28.7324    5760.2466 
   51000       50.988    228.30203    9.5318442   -518.74293   -509.21108     1300.795    26121.752     33578.07   -55797.437      15.2149      13.1765      28.7324    5760.2466 
   51500       51.488    218.02898    9.1029339   -518.30182   -509.19888    1289.4763    23160.315     34771.34   -54063.226      15.2149      13.1765      28.7324    5760.2466 
   52000       51.988    224.71866     9.382235   -518.56956   -509.18733    2915.2535    25291.148     37028.27   -53573.657      15.2149      13.1765      28.7324    5760.2466 
   52500       52.488    228.18006    9.5267519   -518.70227   -509.17552    1680.9587    29792.573    38243.925   -62993.621      15.2149      13.1765      28.7324    5760.2466 
   53000       52.988    230.77855    9.6352416   -518.79909   -509.16385    2022.3668     28867.36     38689.58   -61489.839      15.2149      13.1765      28.7324    5760.2466 
   53500       53.488    227.04928    9.4795405    -518.6311   -509.15156    2123.9095    25867.517    38170.236   -57666.024      15.2149      13.1765      28.7324    5760.2466 
   54000       53.988    224.78711    9.3850928   -518.52533   -509.14023    1828.7731    25107.966    36374.547   -55996.194      15.2149      13.1765      28.7324    5760.2466 
   54500       54.488    221.54325     9.249658   -518.37749   -509.12783    2496.6215    28776.679    37334.886   -58621.701      15.2149      13.1765      28.7324    5760.2466 
   55000       54.988    228.22217    9.5285101   -518.64482   -509.11631    2212.2175     25638.81    40874.302    -59876.46      15.2149      13.1765      28.7324    5760.2466 
   55500       55.488    223.67047    9.3384717   -518.44382   -509.10534     3665.751    28450.667    35256.702   -52710.116      15.2149      13.1765      28.7324    5760.2466 
   56000       55.988    229.03454    9.5624272   -518.65584   -509.09341    1935.0597    27935.847    35964.986   -58095.654      15.2149      13.1765      28.7324    5760.2466 
   56500       56.488    228.19693    9.5274561   -518.60985    -509.0824    1859.1086    23770.926    39527.381   -57720.982      15.2149      13.1765      28.7324    5760.2466 
   57000       56.988    219.63932    9.1701673    -518.2411   -509.07093    1330.6703     24314.19    37278.096   -57600.275      15.2149      13.1765      28.7324    5760.2466 
   57500       57.488    213.56697    8.9166402   -517.97566   -509.05902    2063.3241    28783.211     37003.87   -59597.109      15.2149      13.1765      28.7324    5760.2466 
   58000       57.988    220.88207    9.2220531    -518.2701   -509.04805    1417.2085    29411.364     38501.12   -63660.859      15.2149      13.1765      28.7324    5760.2466 
   58500       58.488    227.27983    9.4891664   -518.52651   -509.03734     2834.471    28690.141    39088.056   -59274.784      15.2149      13.1765      28.7324    5760.2466 
   59000       58.988    225.37023    9.4094384   -518.43483   -509.02539    2306.2352    29718.455    36429.369   -59229.118      15.2149      13.1765      28.7324    5760.2466 
   59500       59.488    230.42547    9.6204999   -518.63524   -509.01474    2343.3178    27206.668    38223.399   -58400.113      15.2149      13.1765      28.7324    5760.2466 
   60000       59.988     239.0599    9.9809963    -518.9842   -509.00321    951.72825    26961.071    36058.165   -60164.051      15.2149      13.1765      28.7324    5760.2466 
   60500       60.488    238.42829    9.9546259    -518.9474   -508.99277    2586.0453     27909.84    36441.723   -56593.427      15.2149      13.1765      28.7324    5760.2466 
   61000       60.988    225.64703    9.4209951   -518.40187   -508.98087    2751.6709    27905.202    33090.955   -52741.144      15.2149      13.1765      28.7324    5760.2466 
   61500       61.488    236.17122    9.8603909   -518.83124   -508.97085    2970.9813    28073.698     34988.81   -54149.563      15.2149      13.1765      28.7324    5760.2466 
   62000       61.988    219.91189    9.1815472   -518.14122   -508.95967    2283.1821    28920.039    34143.918   -56214.411      15.2149      13.1765      28.7324    5760.2466 
   62500       62.488    231.63779    9.6711156   -518.61986   -508.94874    2411.5691    26452.311    37687.321   -56904.925      15.2149      13.1765      28.7324    5760.2466 
   63000       62.988    237.43825    9.9132907   -518.85132   -508.93803    1846.2188    27317.762    34304.087   -56083.193      15.2149      13.1765      28.7324    5760.2466 
   63500       63.488    219.80333    9.1770145   -518.10341    -508.9264    2691.0623    29809.315    41740.181    -63476.31      15.2149      13.1765      28.7324    5760.2466 
   64000       63.988    232.48607     9.706532   -518.62225   -508.91572    3012.9821     27018.19    36286.978   -54266.222      15.2149      13.1765      28.7324    5760.2466 
   64500       64.488    223.35148    9.3251535   -518.23046   -508.90531    4044.6349    28596.075    41200.274   -57662.444      15.2149      13.1765      28.7324    5760.2466 
   65000       64.988    226.78794    9.4686294   -518.36354   -508.89491    2063.0876    26544.856    38454.314   -58809.907      15.2149      13.1765      28.7324    5760.2466 
   65500       65.488    233.42561     9.745759   -518.62997   -508.88422    1318.3515    26851.991    38208.246   -61105.182      15.2149      13.1765      28.7324    5760.2466 
   66000       65.988    233.27408    9.7394324   -518.61355   -508.87411    2066.5565    27844.152    37873.417     -59517.9      15.2149      13.1765      28.7324    5760.2466 
   66500       66.488     228.5161     9.540782   -518.40366   -508.86287    2391.1347    26421.904    37348.513   -56597.013      15.2149      13.1765      28.7324    5760.2466 
   67000       66.988    226.30864    9.4486182   -518.30097   -508.85235    2293.7721    28613.931    39902.373   -61634.987      15.2149      13.1765      28.7324    5760.2466 
   67500       67.488    232.08386    9.6897395    -518.5326   -508.84286    2768.8707    27635.292    36148.143   -55476.823      15.2149      13.1765      28.7324    5760.2466 
   68000       67.988    239.24852    9.9888715   -518.82062   -508.83175    2485.0694    31208.954    37921.179   -61674.925      15.2149      13.1765      28.7324    5760.2466 
   68500       68.488    222.16014     9.275414   -518.09664   -508.82123    2776.2961    27526.747    38018.068   -57215.926      15.2149      13.1765      28.7324    5760.2466 
   69000       68.988     231.5993    9.6695085   -518.48009   -508.81059    2413.2202    25707.842    36127.236   -54595.418      15.2149      13.1765      28.7324    5760.2466 
   69500       69.488    237.83976    9.9300543   -518.73073   -508.80067    1742.4378    30025.933    33825.032   -58623.652      15.2149      13.1765      28.7324    5760.2466 
   70000       69.988     239.3763    9.9942065   -518.78424   -508.79003    2374.0734    26943.489    37392.895   -57214.164      15.2149      13.1765      28.7324    5760.2466 
   70500       70.488    216.16003    9.0249033   -517.80354   -508.77863    4398.7739     28168.32    36690.013   -51662.011      15.2149      13.1765      28.7324    5760.2466 
   71000       70.988    232.82729    9.7207783   -518.48985   -508.76907    1661.9634     26515.54    35248.237   -56777.887      15.2149      13.1765      28.7324    5760.2466 
   71500       71.488    227.77745    9.5099424   -518.26737   -508.75743    3494.5443    26265.323    36627.385   -52409.075      15.2149      13.1765      28.7324    5760.2466 
   72000       71.988    222.69698    9.2978275   -518.04495   -508.74712    1814.5608    28541.982    38334.143   -61432.442      15.2149      13.1765      28.7324    5760.2466 
   72500       72.488    242.51179    10.125116   -518.86187   -508.73675    2010.2544    23178.166    39926.169   -57073.571      15.2149      13.1765      28.7324    5760.2466 
   73000       72.988    234.83575    9.8046339      -518.53   -508.72537    2068.2113    26443.307    38595.115   -58833.788      15.2149      13.1765      28.7324    5760.2466 
   73500       73.488    239.58528    10.002931   -518.71814   -508.71521    2075.2544    27308.387    38592.477   -59675.101      15.2149      13.1765      28.7324    5760.2466 
   74000       73.988    226.71789    9.4657049   -518.16962   -508.70392    1151.2111    28840.094    38043.277   -63429.738      15.2149      13.1765      28.7324    5760.2466 
   74500       74.488    223.36072    9.3255395    -518.0197   -508.69416    2550.2196    26070.427      33495.1   -51914.869      15.2149      13.1765      28.7324    5760.2466 
   75000       74.988    220.97174     9.225797   -517.90871   -508.68292    2181.3643     25476.11    38546.135   -57478.152      15.2149      13.1765      28.7324    5760.2466 
   75500       75.488    230.60382    9.6279461   -518.30044    -508.6725    2428.4211    26228.948    33839.224   -52782.909      15.2149      13.1765      28.7324    5760.2466 
   76000       75.988    222.81474    9.3027441   -517.96396   -508.66122    477.05926    23836.434    38678.843     -61084.1      15.2149      13.1765      28.7324    5760.2466 
   76500       76.488    235.33592    9.8255164   -518.47632   -508.65081    1508.2213    26511.234    37468.018   -59454.589      15.2149      13.1765      28.7324    5760.2466 
   77000       76.988    222.64607    9.2957022   -517.93546   -508.63976    3101.7209    27872.352    38109.982   -56677.171      15.2149      13.1765      28.7324    5760.2466 
   77500       77.488    242.20425    10.112276   -518.74207    -508.6298    2277.0279    28785.004    37732.204   -59686.125      15.2149      13.1765      28.7324    5760.2466 
   78000       77.988    221.97595    9.2677239    -517.8857   -508.61797    2767.5292    29282.824    38721.282   -59701.518      15.2149      13.1765      28.7324    5760.2466 
   78500       78.488    236.37829    9.8690363   -518.47663   -508.60759    2286.7473    29996.659     35362.95   -58499.368      15.2149      13.1765      28.7324    5760.2466 
   79000       78.988    239.68155    10.006951   -518.60281   -508.59586    1853.3562    23819.401     39132.28   -57391.613      15.2149      13.1765      28.7324    5760.2466 
   79500       79.488    232.69913    9.7154278   -518.30019   -508.58476    3109.5612    26455.653    42077.063   -59204.032      15.2149      13.1765      28.7324    5760.2466 
   80000       79.988    225.77894    9.4265027   -517.99957   -508.57306    2501.0258    25353.564    39087.572   -56938.058      15.2149      13.1765      28.7324    5760.2466 
   80500       80.488    236.70541    9.8826939   -518.44595   -508.56326    2790.2074    29077.374    35049.892   -55756.644      15.2149      13.1765      28.7324    5760.2466 
   81000       80.988    242.10443    10.108109   -518.65974   -508.55164    2023.8148    29073.671    36099.966   -59102.193      15.2149      13.1765      28.7324    5760.2466 
   81500       81.488    234.81783    9.8038856   -518.34438   -508.54049    967.80774    23660.196    35757.491   -56514.264      15.2149      13.1765      28.7324    5760.2466 
   82000       81.988     232.7059    9.7157101   -518.24488   -508.52917     2629.327    26256.835    39372.591   -57741.445      15.2149      13.1765      28.7324    5760.2466 
   82500       82.488    215.36294    8.9916241   -517.50877   -508.51714    2642.0094    23817.987    37995.412   -53887.371      15.2149      13.1765      28.7324    5760.2466 
   83000       82.988    237.17318    9.9022238   -518.40904   -508.50681    2750.5755     25425.97    38580.863   -55755.106      15.2149      13.1765      28.7324    5760.2466 
   83500       83.488    236.66854    9.8811544   -518.37706   -508.49591    2497.1114    26032.381    36841.111   -55382.159      15.2149      13.1765      28.7324    5760.2466 
   84000       83.988    235.87072    9.8478448   -518.33146   -508.48362    2646.9382    25334.078    36219.267    -53612.53      15.2149      13.1765      28.7324    5760.2466 
   84500       84.488    239.27447    9.9899548   -518.46272   -508.47276    3707.1405     29310.29    37907.427   -56096.296      15.2149      13.1765      28.7324    5760.2466 
   85000       84.988    237.64629    9.9219768   -518.38306   -508.46108    3024.6131    27641.064    39193.048   -57760.273      15.2149      13.1765      28.7324    5760.2466 
   85500       85.488    242.76666    10.135757   -518.58576      -508.45    2565.7959    26043.385    33724.855   -52070.852      15.2149      13.1765      28.7324    5760.2466 
   86000       85.988    225.90965    9.4319597   -517.86899   -508.43703    2028.3766    22873.744    36901.454   -53690.067      15.2149      13.1765      28.7324    5760.2466 
   86500       86.488    234.26866     9.780957   -518.20746    -508.4265    3434.1316    29504.962    35157.379   -54359.947      15.2149      13.1765      28.7324    5760.2466 
   87000       86.988    236.53003    9.8753717   -518.28894   -508.41357    2043.9628    27316.609    37682.135   -58866.856      15.2149      13.1765      28.7324    5760.2466 
   87500       87.488    232.85821    9.7220694   -518.12406   -508.40199    4145.7951    28738.437     39315.55   -55616.602      15.2149      13.1765      28.7324    5760.2466 
   88000       87.988    230.11327    9.6074652   -517.99723   -508.38976    1797.7536    24172.417    35719.665   -54498.821      15.2149      13.1765      28.7324    5760.2466 
   88500       88.488    241.80436    10.095581   -518.47393   -508.37835     3163.641    27848.765      39436.1   -57793.942      15.2149      13.1765      28.7324    5760.2466 
   89000       88.988    235.34599    9.8259367   -518.19224    -508.3663    1519.0857    25916.341    36965.962   -58325.046      15.2149      13.1765      28.7324    5760.2466 
   89500       89.488    246.71953    10.300794   -518.65583   -508.35503    2987.4904    29189.762     39831.28   -60058.572      15.2149      13.1765      28.7324    5760.2466 
   90000       89.988    227.65874    9.5049862   -517.84702   -508.34203    2846.5923    25633.311    39156.446   -56249.979      15.2149      13.1765      28.7324    5760.2466 
   90500       90.488     233.4184    9.7454578   -518.07545   -508.32999     3558.421    26717.716    40069.247   -56111.701      15.2149      13.1765      28.7324    5760.2466 
   91000       90.988    232.71976    9.7162888   -518.03439    -508.3181    2551.2983    28267.169    40218.992   -60832.266      15.2149      13.1765      28.7324    5760.2466 
   91500       91.488    239.24297    9.9886397    -518.2948   -508.30616    3530.1944    24577.558    39835.915    -53822.89      15.2149      13.1765      28.7324    5760.2466 
   92000       91.988    243.23258     10.15521   -518.44929   -508.29408    1709.5813    24001.844    37925.716   -56798.816      15.2149      13.1765      28.7324    5760.2466 
   92500       92.488    231.52933    9.6665874   -517.94775   -508.28117    2464.4275    26550.303    38442.692   -57599.712      15.2149      13.1765      28.7324    5760.2466 
   93000       92.988    226.54961    9.4586788   -517.72734   -508.26866    2933.1833     27848.15    37882.445   -56931.045      15.2149      13.1765      28.7324    5760.2466 
   93500       93.488    231.31686    9.6577163   -517.91359   -508.25587    2640.7765    29128.195    40038.205    -61244.07      15.2149      13.1765      28.7324    5760.2466 
   94000       93.988    233.59015    9.7526287   -517.99588   -508.24325    3577.9206    27783.959    41574.262   -58624.459      15.2149      13.1765      28.7324    5760.2466 
   94500       94.488    235.89997     9.849066   -518.07977    -508.2307    2577.8683    30098.588    38819.716     -61184.7      15.2149      13.1765      28.7324    5760.2466 
   95000       94.988    243.28358    10.157339   -518.37546   -508.21812    3229.4682    26411.849    42469.492   -59192.936      15.2149      13.1765      28.7324    5760.2466 
   95500       95.488    225.96685     9.434348    -517.6395   -508.20515    2804.7243    28363.452    38109.398   -58058.677      15.2149      13.1765      28.7324    5760.2466 
   96000       95.988    235.77936    9.8440305   -518.03724   -508.19321    2460.8893     24064.95    37232.799   -53915.081      15.2149      13.1765      28.7324    5760.2466 
   96500       96.488    241.45086    10.080821   -518.26133   -508.18051    2757.5682    28030.279    40295.222   -60052.796      15.2149      13.1765      28.7324    5760.2466 
   97000       96.988     244.0714    10.190232   -518.35724   -508.16701    1596.1346    23223.639    37315.701   -55750.936      15.2149      13.1765      28.7324    5760.2466 
   97500       97.488     221.3762    9.2426837   -517.39758   -508.15489    2536.7223    25280.943    40522.457   -58193.232      15.2149      13.1765      28.7324    5760.2466 
   98000       97.988    242.16859    10.110787   -518.25265   -508.14186    3059.4794    29592.067    39754.557   -60168.187      15.2149      13.1765      28.7324    5760.2466 
   98500       98.488    231.09059    9.6482694   -517.77637    -508.1281    2582.5065    26536.994     35624.59   -54414.065      15.2149      13.1765      28.7324    5760.2466 
   99000       98.988    243.86061    10.181431   -518.29745   -508.11602    3098.0715    24881.696    38370.281   -53957.763      15.2149      13.1765      28.7324    5760.2466 
   99500       99.488    244.72809    10.217649   -518.31974   -508.10209    3737.9023      27511.5    37086.648   -53384.442      15.2149      13.1765      28.7324    5760.2466 
  100000       99.988    248.20204     10.36269   -518.45211   -508.08942    3542.5204    26879.756    39164.024   -55416.219      15.2149      13.1765      28.7324    5760.2466 
  100500      100.488    231.64996    9.6716236   -517.74727   -508.07565     1855.964    26726.525    39532.849   -60691.482      15.2149      13.1765      28.7324    5760.2466 
  101000      100.988    232.45804     9.705362   -517.76767    -508.0623    2370.1925    23971.079    38720.298   -55580.799      15.2149      13.1765      28.7324    5760.2466 
  101500      101.488    246.57766     10.29487   -518.34426   -508.04939    3344.4167    27295.176    37860.519   -55122.445      15.2149      13.1765      28.7324    5760.2466 
  102000      101.988    238.98648    9.9779309   -518.01314    -508.0352    4339.6305    28527.313    36965.957   -52474.379      15.2149      13.1765      28.7324    5760.2466 
  102500      102.488    239.21071    9.9872926   -518.00944   -508.02214    3017.9656    25559.436     40326.12   -56831.659      15.2149      13.1765      28.7324    5760.2466 
  103000      102.988    238.57059    9.9605673   -517.96871   -508.00814    2822.1773    24572.446    37878.588   -53984.502      15.2149      13.1765      28.7324    5760.2466 
  103500      103.488    230.35683    9.6176344   -517.61154   -507.99391    3271.6766    28482.096    36750.183   -55417.249      15.2149      13.1765      28.7324    5760.2466 
  104000      103.988    232.73981    9.7171262   -517.69771   -507.98058    2950.8189    27265.062    39253.026   -57665.631      15.2149      13.1765      28.7324    5760.2466 
  104500      104.488    241.36715    10.077326   -518.04439   -507.96706    2333.9434    21296.273    38129.346   -52423.789      15.2149      13.1765      28.7324    5760.2466 
  105000      104.988    239.31482    9.9916394   -517.94442   -507.95278    1549.1459    25676.181    42470.045   -63498.788      15.2149      13.1765      28.7324    5760.2466 
  105500      105.488    249.55586    10.419214   -518.35894   -507.93973    1794.0748    26119.155    40402.825   -61139.755      15.2149      13.1765      28.7324    5760.2466 
  106000      105.988    249.95061    10.435695   -518.36234   -507.92664    2503.3368    27154.863    34967.229   -54612.082      15.2149      13.1765      28.7324    5760.2466 
  106500      106.488     235.6961    9.8405541   -517.75192   -507.91136    2397.1812    25927.402     42670.74   -61406.599      15.2149      13.1765      28.7324    5760.2466 
  107000      106.988    249.39493    10.412494   -518.31026   -507.89777    1767.8453    29386.381    37794.222   -61877.067      15.2149      13.1765      28.7324    5760.2466 
  107500      107.488    230.82572    9.6372107   -517.51991    -507.8827    2997.3403    27861.831    39257.992   -58127.802      15.2149      13.1765      28.7324    5760.2466 
  108000      107.988    239.50719    9.9996711   -517.86823   -507.86856    3884.3871    26243.449    39382.166   -53972.454      15.2149      13.1765      28.7324    5760.2466 
  108500      108.488    234.12436    9.7749325   -517.62958   -507.85465    2648.2725    27819.931    37010.927   -56886.041      15.2149      13.1765      28.7324    5760.2466 
  109000      108.988    242.03544    10.105228   -517.94589   -507.84066    3146.8039    28872.035    39573.749   -59005.372      15.2149      13.1765      28.7324    5760.2466 
  109500      109.488    245.62355    10.255035   -518.08211   -507.82707    3088.8129    29986.741    35625.092   -56345.394      15.2149      13.1765      28.7324    5760.2466 
  110000      109.988     246.4761     10.29063   -518.10266   -507.81203    2709.0908    28122.779    37412.823   -57408.329      15.2149      13.1765      28.7324    5760.2466 
  110500      110.488     252.6068    10.546593   -518.34491   -507.79832    3143.9569    26576.982    40415.543   -57560.655      15.2149      13.1765      28.7324    5760.2466 
  111000      110.988    239.24446     9.988702    -517.7722    -507.7835    2648.7702    25144.641    39922.508   -57120.838      15.2149      13.1765      28.7324    5760.2466 
  111500      111.488    248.00576    10.354495   -518.12506   -507.77056     2335.152    28959.962    35576.232   -57530.737      15.2149      13.1765      28.7324    5760.2466 
  112000      111.988    234.00088    9.7697772    -517.5252   -507.75543    2924.6727    25861.659    38620.989    -55708.63      15.2149      13.1765      28.7324    5760.2466 
  112500      112.488    233.08966    9.7317328   -517.47161   -507.73987    1872.5862    26051.801    37164.376   -57598.418      15.2149      13.1765      28.7324    5760.2466 
  113000      112.988    249.78388    10.428733   -518.15465   -507.72592     2729.823    27167.162    43268.448   -62246.142      15.2149      13.1765      28.7324    5760.2466 
  113500      113.488    237.05442    9.8972656   -517.60876    -507.7115     2392.218    25183.381    40527.817   -58534.544      15.2149      13.1765      28.7324    5760.2466 
  114000      113.988    241.01408    10.062585    -517.7595   -507.69691    3516.0598     26457.58     42090.92    -58000.32      15.2149      13.1765      28.7324    5760.2466 
  114500      114.488    225.23784    9.4039113   -517.08477   -507.68086    2434.4692    24211.323    42410.669   -59318.584      15.2149      13.1765      28.7324    5760.2466 
  115000      114.988    244.84548     10.22255   -517.88982   -507.66727    2378.0899    27213.077    38561.838   -58640.646      15.2149      13.1765      28.7324    5760.2466 
  115500      115.488    254.72774    10.635145    -518.2885   -507.65335    1793.8379    24838.111    37332.885   -56789.482      15.2149      13.1765      28.7324    5760.2466 
  116000      115.988    244.28289    10.199062   -517.83716   -507.63809    4436.2422    26417.752    39169.674   -52278.699      15.2149      13.1765      28.7324    5760.2466 
  116500      116.488    248.46965    10.373863   -517.99823   -507.62436    2897.4636    28291.642    37382.444   -56981.695      15.2149      13.1765      28.7324    5760.2466 
  117000      116.988    245.60098    10.254093   -517.86326   -507.60917    2715.8669    27336.567    43873.923    -63062.89      15.2149      13.1765      28.7324    5760.2466 
  117500      117.488    244.73762    10.218047   -517.81212   -507.59407    4022.0087    25836.645    41538.697   -55309.316      15.2149      13.1765      28.7324    5760.2466 
  118000      117.988    246.15103    10.277058   -517.85666    -507.5796    2439.8091    26802.624    37787.876   -57271.073      15.2149      13.1765      28.7324    5760.2466 
  118500      118.488    241.87342    10.098464   -517.66296   -507.56449    3540.6988     30018.85    39448.765   -58845.519      15.2149      13.1765      28.7324    5760.2466 
  119000      118.988    246.88493    10.307699   -517.85752   -507.54982     2422.545    28037.128    39891.316   -60660.809      15.2149      13.1765      28.7324    5760.2466 
  119500      119.488     247.6248     10.33859   -517.87289    -507.5343    2934.2598      27917.1    37504.101   -56618.422      15.2149      13.1765      28.7324    5760.2466 
  120000      119.988    237.33606    9.9090244   -517.42915   -507.52013    2849.8392    22956.476    39734.508   -54141.466      15.2149      13.1765      28.7324    5760.2466 
  120500      120.488    240.90497     10.05803   -517.56297   -507.50494    2777.1834    28243.318    34451.498   -54363.266      15.2149      13.1765      28.7324    5760.2466 
  121000      120.988    252.57472    10.545254   -518.03633   -507.49108     2390.139    24139.399    38517.326   -55486.308      15.2149      13.1765      28.7324    5760.2466 
  121500      121.488    240.80623    10.053907    -517.5292    -507.4753    2802.4057    28008.429     39175.22   -58776.432      15.2149      13.1765      28.7324    5760.2466 
  122000      121.988    236.85334      9.88887   -517.34865   -507.45978     3115.297    29067.162    33465.947   -53187.219      15.2149      13.1765      28.7324    5760.2466 
  122500      122.488    252.92122    10.559721   -518.00492    -507.4452    1727.3358    24803.258    39344.048   -58965.299      15.2149      13.1765      28.7324    5760.2466 
  123000      122.988    248.62904    10.380518   -517.81147   -507.43095    2621.7915    26860.018    33676.966   -52671.611      15.2149      13.1765      28.7324    5760.2466 
  123500      123.488    249.27941    10.407671   -517.82322   -507.41555     2238.823    22988.777    38649.555   -54921.863      15.2149      13.1765      28.7324    5760.2466 
  124000      123.988    256.70102    10.717531   -518.11811   -507.40058    2821.2781    25313.808    39293.141   -56143.115      15.2149      13.1765      28.7324    5760.2466 
  124500      124.488    239.27303    9.9898948   -517.37486   -507.38497    3485.9014    28193.528     41910.08   -59645.904      15.2149      13.1765      28.7324    5760.2466 
  125000      124.988     230.5075    9.6239247    -516.9931   -507.36917    2597.3706    27237.748      37201.1   -56646.736      15.2149      13.1765      28.7324    5760.2466 
  125500      125.488    243.80514    10.179115   -517.53261    -507.3535    3410.5351    29070.446    39480.683   -58319.523      15.2149      13.1765      28.7324    5760.2466 
  126000      125.988      260.751    10.886622   -518.22583    -507.3392    1533.9034    23141.965    38294.883   -56835.137      15.2149      13.1765      28.7324    5760.2466 
  126500      126.488    244.18226     10.19486    -517.5181   -507.32324     2671.844    24678.311    38039.489   -54702.268      15.2149      13.1765      28.7324    5760.2466 
  127000      126.988    245.80704    10.262696   -517.57065   -507.30796    4125.6768    26457.616    41043.351   -55123.937      15.2149      13.1765      28.7324    5760.2466 
  127500      127.488     247.8266    10.347015   -517.63935   -507.29233    2524.4824    27723.399    39357.218   -59507.169      15.2149      13.1765      28.7324    5760.2466 
  128000      127.988    252.71056    10.550925   -517.82882   -507.27789    3291.8497    27957.358    42558.781   -60640.589      15.2149      13.1765      28.7324    5760.2466 
  128500      128.488    240.98608    10.061416   -517.32403   -507.26262    2705.4087    28730.634    35872.432   -56486.839      15.2149      13.1765      28.7324    5760.2466 
  129000      128.988    253.95206    10.602759   -517.85015   -507.24739    2284.9341    24939.848    36536.585   -54621.631      15.2149      13.1765      28.7324    5760.2466 
  129500      129.488    243.76993    10.177645   -517.40855   -507.23091    3552.8621    26412.535    38478.467   -54232.416      15.2149      13.1765      28.7324    5760.2466 
  130000      129.988    242.11261     10.10845   -517.32277   -507.21432    1642.5115    26033.376    36984.001   -58089.842      15.2149      13.1765      28.7324    5760.2466 
  130500      130.488    258.11497    10.776565   -517.97647    -507.1999    1019.3955    24061.046    33119.116   -54121.976      15.2149      13.1765      28.7324    5760.2466 
  131000      130.988    256.73918    10.719124   -517.90359   -507.18447    2858.1678    25746.757    39601.909   -56774.163      15.2149      13.1765      28.7324    5760.2466 
  131500      131.488    257.89557    10.767405   -517.93646   -507.16906     2347.184    24021.637    37493.343   -54473.428      15.2149      13.1765      28.7324    5760.2466 
  132000      131.988    235.53046    9.8336386    -516.9868   -507.15316    2591.4617    27166.339    39486.382   -58878.336      15.2149      13.1765      28.7324    5760.2466 
  132500      132.488    249.76491    10.427942   -517.56568   -507.13774    3484.0061    30079.895    36562.683    -56190.56      15.2149      13.1765      28.7324    5760.2466 
  133000      132.988    240.07536    10.023393   -517.14454   -507.12114    3342.9959    27303.958    38040.102   -55315.072      15.2149      13.1765      28.7324    5760.2466 
  133500      133.488    240.91389    10.058402   -517.16453   -507.10612    3349.9115     29358.95    38079.935   -57389.151      15.2149      13.1765      28.7324    5760.2466 
  134000      133.988    249.27289    10.407399   -517.49762   -507.09022    4287.6478    31939.037    36795.509   -55871.602      15.2149      13.1765      28.7324    5760.2466 
  134500      134.488    245.56958    10.252782   -517.32743   -507.07465    2471.4117    25102.364    38473.478   -56161.606      15.2149      13.1765      28.7324    5760.2466 
  135000      134.988    246.40317    10.287586   -517.34703   -507.05944    2242.0078    27156.662    36729.825   -57160.464      15.2149      13.1765      28.7324    5760.2466 
  135500      135.488    247.70816     10.34207   -517.38501   -507.04294    2124.7068    23954.462    40443.472   -58023.814      15.2149      13.1765      28.7324    5760.2466 
  136000      135.988     246.1496    10.276999   -517.30467   -507.02767    3984.0283    25624.735    39515.163   -53187.813      15.2149      13.1765      28.7324    5760.2466 
  136500      136.488    253.92048    10.601441   -517.61331   -507.01187    3261.8396    23584.536    39716.744   -53515.761      15.2149      13.1765      28.7324    5760.2466 
  137000      136.988    267.31758    11.160783   -518.15807   -506.99729    3142.6562    25161.783    38954.273   -54688.087      15.2149      13.1765      28.7324    5760.2466 
  137500      137.488    248.28895    10.366319   -517.34667   -506.98036    3216.1784    28967.464    37519.378   -56838.307      15.2149      13.1765      28.7324    5760.2466 
  138000      137.988    255.80952     10.68031   -517.64519   -506.96488    2788.8583    25395.619    40428.974   -57458.018      15.2149      13.1765      28.7324    5760.2466 
  138500      138.488    258.45287    10.790673   -517.74038    -506.9497    2233.7542    28454.452    34205.085   -55958.275      15.2149      13.1765      28.7324    5760.2466 
  139000      138.988    253.89307    10.600296   -517.53386   -506.93356    4262.1745     27548.84    36064.922   -50827.238      15.2149      13.1765      28.7324    5760.2466 
  139500      139.488    247.41215    10.329711   -517.24786   -506.91815    3645.0515    26526.646    40283.063   -55874.555      15.2149      13.1765      28.7324    5760.2466 
  140000      139.988    264.09592    11.026276   -517.92943   -506.90315    4590.0149    27928.427    37290.878    -51449.26      15.2149      13.1765      28.7324    5760.2466 
  140500      140.488    238.30112    9.9493163   -516.83595   -506.88663    3879.3392     29112.31    40479.482   -57953.774      15.2149      13.1765      28.7324    5760.2466 
  141000      140.988    250.33273    10.451648   -517.32209   -506.87044    4305.6568    25907.292    39471.291   -52461.613      15.2149      13.1765      28.7324    5760.2466 
  141500      141.488    237.90974    9.9329761   -516.78738    -506.8544    3187.7697    24658.398    40135.224   -55230.313      15.2149      13.1765      28.7324    5760.2466 
  142000      141.988    261.83068      10.9317   -517.77033   -506.83863    2329.6864    28090.702    37192.149   -58293.792      15.2149      13.1765      28.7324    5760.2466 
  142500      142.488    247.49317    10.333094   -517.15489   -506.82179    4000.2284     26640.33    36177.834   -50817.479      15.2149      13.1765      28.7324    5760.2466 
  143000      142.988    256.53657    10.710665   -517.51669   -506.80602    3531.8882    27698.936    38594.189   -55697.461      15.2149      13.1765      28.7324    5760.2466 
  143500      143.488    248.45454    10.373232   -517.16418   -506.79095    3279.3829    28512.414    39308.906   -57983.172      15.2149      13.1765      28.7324    5760.2466 
  144000      143.988    264.47612    11.042149   -517.81809   -506.77594    4080.0651    28086.507    39354.941   -55201.252      15.2149      13.1765      28.7324    5760.2466 
  144500      144.488     260.5582    10.878572    -517.6371   -506.75853    4078.7115    25987.999    40868.975   -54620.839      15.2149      13.1765      28.7324    5760.2466 
  145000      144.988    264.94592    11.061764   -517.80462   -506.74285    4203.4088    29214.969    42939.626   -59544.368      15.2149      13.1765      28.7324    5760.2466 
  145500      145.488    253.43163    10.581031   -517.30747   -506.72644    2987.6318     24541.69    39745.518   -55324.312      15.2149      13.1765      28.7324    5760.2466 
  146000      145.988    259.20344     10.82201   -517.53188   -506.70987     3392.931    24886.708    42131.829   -56839.744      15.2149      13.1765      28.7324    5760.2466 
  146500      146.488    244.27808    10.198861   -516.89227   -506.69341    2965.6401    25622.937     41333.37   -58059.387      15.2149      13.1765      28.7324    5760.2466 
  147000      146.988    266.30583    11.118542   -517.79698   -506.67844    4415.4551    27719.912    42218.885   -56692.431      15.2149      13.1765      28.7324    5760.2466 
  147500      147.488    271.90006    11.352107   -518.01383   -506.66173    3231.9198    25955.328    39765.021    -56024.59      15.2149      13.1765      28.7324    5760.2466 
  148000      147.988    238.84125    9.9718674   -516.61669   -506.64482    3485.9255    28243.612    36139.642   -53925.477      15.2149      13.1765      28.7324    5760.2466 
  148500      148.488    268.40703    11.206269   -517.83662   -506.63035    3222.1711    25906.959    34963.479   -51203.925      15.2149      13.1765      28.7324    5760.2466 
  149000      148.988    258.59039    10.796414   -517.40903   -506.61262    3354.5889    28711.889    39980.066   -58628.188      15.2149      13.1765      28.7324    5760.2466 
  149500      149.488    252.86043    10.557183   -517.15427   -506.59709    2669.2545    27318.529    41159.278   -60470.043      15.2149      13.1765      28.7324    5760.2466 
  150000      149.988    258.56557    10.795378    -517.3768   -506.58142    3527.0864    28085.183    39373.689   -56877.612      15.2149      13.1765      28.7324    5760.2466 
  150500      150.488    267.33668    11.161581   -517.72642   -506.56484    4012.5684     28753.55    40200.903   -56916.747      15.2149      13.1765      28.7324    5760.2466 
  151000      150.988    255.47858    10.666493    -517.2155   -506.54901    4346.3745    29550.321    40262.332    -56773.53      15.2149      13.1765      28.7324    5760.2466 
  151500      151.488    251.63858    10.506169   -517.03837    -506.5322     3530.777    25286.319    37480.725   -52174.713      15.2149      13.1765      28.7324    5760.2466 
  152000      151.988    264.34644    11.036735   -517.55347   -506.51673    3830.3404    31477.753    39706.908    -59693.64      15.2149      13.1765      28.7324    5760.2466 
  152500      152.488    255.01507    10.647141   -517.14735    -506.5002    3346.3453     29537.97    39763.422   -59262.357      15.2149      13.1765      28.7324    5760.2466 
  153000      152.988    265.14979    11.070276   -517.55478    -506.4845    4169.0314    26941.904    39141.889   -53576.699      15.2149      13.1765      28.7324    5760.2466 
  153500      153.488    251.17497    10.486813   -516.95447   -506.46766    2749.0019    25614.052    39004.757   -56371.803      15.2149      13.1765      28.7324    5760.2466 
  154000      153.988    256.18183    10.695854    -517.1473   -506.45144    2531.5981    29016.902     37141.35   -58563.458      15.2149      13.1765      28.7324    5760.2466 
  154500      154.488    260.05476    10.857553   -517.29265   -506.43509    3480.1603    31275.974    37341.636   -58177.129      15.2149      13.1765      28.7324    5760.2466 
  155000      154.988    243.95066    10.185191   -516.60357   -506.41838    3454.3345    27916.764    42742.594   -60296.355      15.2149      13.1765      28.7324    5760.2466 
  155500      155.488    261.21951    10.906183   -517.30908    -506.4029    4113.6471    30428.964    40411.841   -58499.864      15.2149      13.1765      28.7324    5760.2466 
  156000      155.988    259.94767    10.853082   -517.23937   -506.38629    3065.7739    28728.412    41245.836   -60776.926      15.2149      13.1765      28.7324    5760.2466 
  156500      156.488    257.90984    10.768001   -517.13869   -506.37069    2911.6279    26657.173    35909.242   -53831.531      15.2149      13.1765      28.7324    5760.2466 
  157000      156.988    267.29181    11.159708   -517.51316   -506.35345    3845.0856    26742.822    42340.521   -57548.087      15.2149      13.1765      28.7324    5760.2466 
  157500      157.488    266.61167    11.131311   -517.46842   -506.33711    4261.2748    24884.688    42471.485   -54572.348      15.2149      13.1765      28.7324    5760.2466 
  158000      157.988    269.94274    11.270387   -517.59167   -506.32128    2870.5978    27404.888    42405.747   -61198.842      15.2149      13.1765      28.7324    5760.2466 
  158500      158.488    265.06502    11.066737   -517.37212   -506.30538    3196.3416    26951.174    40471.245   -57833.394      15.2149      13.1765      28.7324    5760.2466 
  159000      158.988    258.63525    10.798287   -517.08617   -506.28788    3064.7878    26529.043    35484.115   -52818.795      15.2149      13.1765      28.7324    5760.2466 
  159500      159.488    256.24743    10.698594   -516.96963   -506.27104    3691.6106    30281.933    38559.628   -57766.729      15.2149      13.1765      28.7324    5760.2466 
  160000      159.988    268.04476    11.191144   -517.44553   -506.25439    3132.4472     29047.83    41753.348   -61403.836      15.2149      13.1765      28.7324    5760.2466 
  160500      160.488    266.42201    11.123392   -517.36223   -506.23884    2727.0115    31939.541    41184.199   -64942.706      15.2149      13.1765      28.7324    5760.2466 
  161000      160.988    272.54279    11.378941   -517.60094     -506.222    3484.9649    27330.934    40689.442   -57565.482      15.2149      13.1765      28.7324    5760.2466 
  161500      161.488    259.42265    10.831162   -517.03605   -506.20488    3319.6789      27858.7    41937.978   -59837.641      15.2149      13.1765      28.7324    5760.2466 
  162000      161.988    271.26292    11.325506   -517.51442   -506.18892     4506.777    29798.293    38271.519   -54549.481      15.2149      13.1765      28.7324    5760.2466 
  162500      162.488    242.23401    10.113519   -516.28507   -506.17155    3181.0891     26273.53    39220.495   -55950.757      15.2149      13.1765      28.7324    5760.2466 
  163000      162.988    266.59441    11.130591   -517.28621   -506.15562    3646.6299    28570.746    37669.821   -55300.677      15.2149      13.1765      28.7324    5760.2466 
  163500      163.488    256.63093    10.714605   -516.85319   -506.13858    3025.5833    29240.392    41135.149   -61298.791      15.2149      13.1765      28.7324    5760.2466 
  164000      163.988    262.80136    10.972227   -517.09375   -506.12152    3322.5607    31561.539    36447.852   -58041.709      15.2149      13.1765      28.7324    5760.2466 
  164500      164.488    252.01657    10.521951   -516.62661   -506.10466     3283.663    30110.022    37428.807   -57687.839      15.2149      13.1765      28.7324    5760.2466 
  165000      164.988    275.75172    11.512918   -517.60155   -506.08863    3748.5562    27117.704    39470.586   -55342.622      15.2149      13.1765      28.7324    5760.2466 
  165500      165.488    255.96607    10.686846   -516.75781   -506.07097    3238.8838    29778.345     36416.42   -56478.114      15.2149      13.1765      28.7324    5760.2466 
  166000      165.988    260.54045    10.877831   -516.93303    -506.0552    4153.1076     26332.19     36437.85   -50310.717      15.2149      13.1765      28.7324    5760.2466 
  166500      166.488    274.60889    11.465203   -517.50421   -506.03901    3617.7099    29480.602    39332.797    -57960.27      15.2149      13.1765      28.7324    5760.2466 
  167000      166.988    261.97513    10.937731   -516.95937   -506.02164    4088.8229    26068.255    38268.795   -52070.581      15.2149      13.1765      28.7324    5760.2466 
  167500      167.488    265.59312    11.088785   -517.09412   -506.00534    3359.9571    26875.446     42561.34   -59356.915      15.2149      13.1765      28.7324    5760.2466 
  168000      167.988    266.40016     11.12248   -517.11139   -505.98891    4460.0207    28481.459    39860.563    -54961.96      15.2149      13.1765      28.7324    5760.2466 
  168500      168.488    256.27522    10.699754   -516.67137   -505.97161    3556.4175    28905.876    36166.157   -54402.781      15.2149      13.1765      28.7324    5760.2466 
  169000      168.988    261.51945    10.918706   -516.87356   -505.95485    3254.2545    28299.173    41410.081   -59946.491      15.2149      13.1765      28.7324    5760.2466 
  169500      169.488    266.22078    11.114991   -517.05263   -505.93764     4197.169     26908.01    37970.285   -52286.787      15.2149      13.1765      28.7324    5760.2466 
  170000      169.988    268.10731    11.193756   -517.11527   -505.92151    3636.8692    31555.598    38167.808   -58812.798      15.2149      13.1765      28.7324    5760.2466 
  170500      170.488    262.42119    10.956354   -516.86072   -505.90437    3547.1807    27423.512    40601.794   -57383.763      15.2149      13.1765      28.7324    5760.2466 
  171000      170.988    277.94384    11.604441   -517.49326   -505.88882    3888.9123    27711.031    41994.217   -58038.511      15.2149      13.1765      28.7324    5760.2466 
  171500      171.488    277.60951    11.590482   -517.46137   -505.87088    3031.5813      28943.3    39022.961   -58871.516      15.2149      13.1765      28.7324    5760.2466 
  172000      171.988     250.8965    10.475186   -516.32726   -505.85207    3294.8052     28287.76    40327.595    -58730.94      15.2149      13.1765      28.7324    5760.2466 
  172500      172.488    262.81012    10.972592   -516.80949    -505.8369    2923.7163    25862.325    40533.108   -57624.284      15.2149      13.1765      28.7324    5760.2466 
  173000      172.988    260.81577    10.889326   -516.70977   -505.82045    3499.9405    24972.238    41281.984     -55754.4      15.2149      13.1765      28.7324    5760.2466 
  173500      173.488    261.42955    10.914952   -516.71769   -505.80274    3254.6288    29940.827    40328.454   -60505.395      15.2149      13.1765      28.7324    5760.2466 
  174000      173.988    263.05823    10.982951   -516.77003   -505.78708    3903.3371    32288.609     37692.77   -58271.368      15.2149      13.1765      28.7324    5760.2466 
  174500      174.488    258.01337    10.772323   -516.54042   -505.76809    2985.3104    28429.341     39660.26    -59133.67      15.2149      13.1765      28.7324    5760.2466 
  175000      174.988    277.81424     11.59903   -517.35135   -505.75232    2507.6523    24738.141    37459.653   -54674.838      15.2149      13.1765      28.7324    5760.2466 
  175500      175.488    283.87855    11.852221   -517.58791   -505.73569    3359.8571    27022.974    40696.293   -57639.695      15.2149      13.1765      28.7324    5760.2466 
  176000      175.988     283.4304     11.83351   -517.55203   -505.71852    3380.8041    27131.504    38802.027   -55791.119      15.2149      13.1765      28.7324    5760.2466 
  176500      176.488    264.27921    11.033928    -516.7344   -505.70047    2414.3077    25423.547    38078.426   -56259.049      15.2149      13.1765      28.7324    5760.2466 
  177000      176.988     259.6746    10.841681   -516.52636   -505.68468    2661.2915     28722.84    36326.096   -57065.062      15.2149      13.1765      28.7324    5760.2466 
  177500      177.488    250.08255    10.441203   -516.10801    -505.6668    2687.0812    29340.555     36056.23   -57335.542      15.2149      13.1765      28.7324    5760.2466 
  178000      177.988    252.67332    10.549371   -516.19869   -505.64932    3840.4696    30129.137    37753.937   -56361.665      15.2149      13.1765      28.7324    5760.2466 
  178500      178.488    261.99569    10.938589     -516.572   -505.63341    2589.5704    27703.652    40647.292   -60582.233      15.2149      13.1765      28.7324    5760.2466 
  179000      178.988    274.79889    11.473136   -517.09013   -505.61699    3768.3194    27087.922    40441.334   -56224.298      15.2149      13.1765      28.7324    5760.2466 
  179500      179.488    283.07748    11.818776   -517.41792   -505.59914    2081.9664    27970.392    40262.834   -61987.327      15.2149      13.1765      28.7324    5760.2466 
  180000      179.988    264.68074    11.050693   -516.63254   -505.58184    3727.3117    29237.824    37524.567   -55580.456      15.2149      13.1765      28.7324    5760.2466 
  180500      180.488    275.69442    11.510525   -517.07531   -505.56479    2767.2099    29446.987    35276.493    -56421.85      15.2149      13.1765      28.7324    5760.2466 
  181000      180.988    267.43236    11.165576    -516.7136   -505.54803    2989.3078    31648.006    39335.806   -62015.889      15.2149      13.1765      28.7324    5760.2466 
  181500      181.488    264.76193    11.054082   -516.58488    -505.5308    3488.3923    27088.333    38598.472   -55221.628      15.2149      13.1765      28.7324    5760.2466 
  182000      181.988    269.88948    11.268163    -516.7819   -505.51373    3519.8274    28038.259    38028.864   -55507.641      15.2149      13.1765      28.7324    5760.2466 
  182500      182.488    279.01342    11.649097   -517.14558   -505.49648    3515.6217    30015.232     39990.48   -59458.848      15.2149      13.1765      28.7324    5760.2466 
  183000      182.988       277.31    11.577977   -517.05838    -505.4804    3525.3688     29540.85    41566.553   -60531.297      15.2149      13.1765      28.7324    5760.2466 
  183500      183.488    269.15735    11.237596   -516.69955   -505.46195     2828.014    27445.686    40242.885   -59204.529      15.2149      13.1765      28.7324    5760.2466 
  184000      183.988    268.38303    11.205267   -516.65004   -505.44477    3582.1027    27501.566    38831.304   -55586.562      15.2149      13.1765      28.7324    5760.2466 
  184500      184.488    270.01383    11.273355    -516.7015   -505.42814    2914.2556    29446.269    39766.314   -60469.817      15.2149      13.1765      28.7324    5760.2466 
  185000      184.988    275.94585    11.521023   -516.93215   -505.41113    3822.5855    28681.319    39877.318   -57090.881      15.2149      13.1765      28.7324    5760.2466 
  185500      185.488    269.50889    11.252273   -516.64585   -505.39358    3239.5518    26787.896    35705.098   -52774.339      15.2149      13.1765      28.7324    5760.2466 
  186000      185.988    279.42517    11.666288   -517.04278    -505.3765    2498.3641    28231.361    37525.512   -58261.781      15.2149      13.1765      28.7324    5760.2466 
  186500      186.488    251.16825    10.486532   -515.84487   -505.35833    4391.5201    28231.158    38208.921   -53265.519      15.2149      13.1765      28.7324    5760.2466 
  187000      186.988    274.51378    11.461232   -516.80303    -505.3418     3512.342    30399.172    43488.818   -63350.964      15.2149      13.1765      28.7324    5760.2466 
  187500      187.488    285.72521    11.929321   -517.25496   -505.32564    3110.5368    24613.469     40778.37   -56060.229      15.2149      13.1765      28.7324    5760.2466 
  188000      187.988    295.43384    12.334666   -517.64239   -505.30773    4201.8338    28583.182    37927.816   -53905.497      15.2149      13.1765      28.7324    5760.2466 
  188500      188.488    273.17127    11.405181    -516.6949   -505.28972    4605.4281    28486.232    34615.821   -49285.769      15.2149      13.1765      28.7324    5760.2466 
  189000      188.988    258.14473    10.777808   -516.05003   -505.27223    4290.5323    27951.268    39885.449   -54965.119      15.2149      13.1765      28.7324    5760.2466 
  189500      189.488    281.98788    11.773283   -517.02872   -505.25544    5225.2306    28489.086    40094.539   -52907.933      15.2149      13.1765      28.7324    5760.2466 
  190000      189.988     260.5915    10.879963   -516.11771   -505.23775    3302.2104    27767.659    44068.083   -61929.111      15.2149      13.1765      28.7324    5760.2466 
  190500      190.488    274.56164     11.46323   -516.68445   -505.22122    3986.7037    26948.581    38374.842   -53363.312      15.2149      13.1765      28.7324    5760.2466 
  191000      190.988    261.70675    10.926526   -516.12969   -505.20317    3212.3106    32480.565     37587.13   -60430.763      15.2149      13.1765      28.7324    5760.2466 
  191500      191.488    276.61726    11.549055   -516.73519   -505.18613    3225.7654     27899.87    36108.134   -54330.708      15.2149      13.1765      28.7324    5760.2466 
  192000      191.988    270.64426    11.299676   -516.46763   -505.16796    3559.2624    26948.685    40268.753    -56539.65      15.2149      13.1765      28.7324    5760.2466 
  192500      192.488    285.87281    11.935483    -517.0878   -505.15231    3536.3345    26661.959    39977.089   -56030.044      15.2149      13.1765      28.7324    5760.2466 
  193000      192.988    274.81195    11.473681   -516.60753   -505.13385    3034.4091     29700.41    40113.858   -60711.041      15.2149      13.1765      28.7324    5760.2466 
  193500      193.488    280.68874    11.719043   -516.83605     -505.117    4111.5489    26252.362    37442.704   -51360.419      15.2149      13.1765      28.7324    5760.2466 
  194000      193.988    270.53464    11.295099   -516.39412   -505.09902    3883.9158    29947.769    39294.975   -57590.997      15.2149      13.1765      28.7324    5760.2466 
  194500      194.488      296.309    12.371205   -517.45451    -505.0833    3757.2486    27018.805    37228.035   -52975.095      15.2149      13.1765      28.7324    5760.2466 
  195000      194.988     284.5359    11.879666   -516.94493   -505.06527    4547.7648    28468.541    40407.982   -55233.229      15.2149      13.1765      28.7324    5760.2466 
  195500      195.488    274.55767    11.463065   -516.50945   -505.04639    3302.7919    29364.013    44222.792    -63678.43      15.2149      13.1765      28.7324    5760.2466 
  196000      195.988    265.56269    11.087515    -516.1169   -505.02938    3162.0101    28903.133    40492.451   -59909.554      15.2149      13.1765      28.7324    5760.2466 
  196500      196.488    256.95309    10.728055   -515.73891   -505.01086    2826.7792     29622.98    37555.056   -58697.699      15.2149      13.1765      28.7324    5760.2466 
  197000      196.988    274.34419    11.454152   -516.44844   -504.99428    4325.6159    27935.361    39068.672   -54027.185      15.2149      13.1765      28.7324    5760.2466 
  197500      197.488    279.94619    11.688041   -516.66405   -504.97601    3336.5012    25683.962    37014.153   -52688.611      15.2149      13.1765      28.7324    5760.2466 
  198000      197.988    287.53895    12.005046   -516.96494    -504.9599    3143.9942    26162.867    40793.865   -57524.749      15.2149      13.1765      28.7324    5760.2466 
  198500      198.488    261.29817    10.909467   -515.84983   -504.94036    4294.9686    27308.334     42285.84   -56709.269      15.2149      13.1765      28.7324    5760.2466 
  199000      198.988    283.81662    11.849635   -516.77317   -504.92354    3295.6932      27910.5    40808.832   -58832.253      15.2149      13.1765      28.7324    5760.2466 
  199500      199.488    289.50435    12.087104   -516.99415   -504.90705    4134.2432    29412.136    40137.235   -57146.642      15.2149      13.1765      28.7324    5760.2466 
  200000      199.988    282.79341    11.806915   -516.69592     -504.889    2511.8803    24372.311    40625.673   -57462.343      15.2149      13.1765      28.7324    5760.2466 
  200500      200.488    260.89151    10.892489   -515.76247   -504.86998     4002.876    31340.653    37266.229   -56598.254      15.2149      13.1765      28.7324    5760.2466 
  201000      200.988    288.99678    12.065913   -516.91955   -504.85364    3230.4448    27629.392    41596.595   -59534.653      15.2149      13.1765      28.7324    5760.2466 
  201500      201.488    265.49346    11.084624    -515.9204   -504.83578    4163.8665    30315.433    37557.892   -55381.725      15.2149      13.1765      28.7324    5760.2466 
  202000      201.988    275.11057    11.486149   -516.30515     -504.819    4436.9315    29252.442     38776.05   -54717.698      15.2149      13.1765      28.7324    5760.2466 
  202500      202.488    280.52627     11.71226   -516.51345   -504.80119    3538.0837     27872.52    37652.962   -54911.231      15.2149      13.1765      28.7324    5760.2466 
  203000      202.988    278.32399    11.620312   -516.40428   -504.78396     3596.412    31284.459     40451.56   -60946.783      15.2149      13.1765      28.7324    5760.2466 
  203500      203.488    287.24982    11.992975   -516.75916   -504.76618    3368.4116    31542.517    39294.434   -60731.717      15.2149      13.1765      28.7324    5760.2466 
  204000      203.988    281.40077    11.748771   -516.49728   -504.74851      4087.05    27941.498    39464.834   -55145.183      15.2149      13.1765      28.7324    5760.2466 
  204500      204.488    277.14533    11.571102   -516.30064   -504.72954    2887.0639    25687.399    36143.675   -53169.882      15.2149      13.1765      28.7324    5760.2466 
  205000      204.988    303.80822    12.684305   -517.39664   -504.71234    3672.9476    26080.612    39064.541   -54126.311      15.2149      13.1765      28.7324    5760.2466 
  205500      205.488    281.83802    11.767027   -516.46243   -504.69541    2190.5434    25587.343    42532.175   -61547.888      15.2149      13.1765      28.7324    5760.2466 
  206000      205.988    295.66739    12.344417   -517.02139   -504.67697    4145.7783    25111.872    37548.587   -50223.124      15.2149      13.1765      28.7324    5760.2466 
  206500      206.488    284.59705    11.882219    -516.5415   -504.65928    3397.1612    26243.145      38766.2   -54817.862      15.2149      13.1765      28.7324    5760.2466 
  207000      206.988    279.87696     11.68515   -516.32667   -504.64152     3955.182    28564.139     38194.37   -54892.963      15.2149      13.1765      28.7324    5760.2466 
  207500      207.488    283.68064    11.843958   -516.46865   -504.62469    3722.7909    27302.754    41920.972   -58055.353      15.2149      13.1765      28.7324    5760.2466 
  208000      207.988    273.07673    11.401234   -516.00739   -504.60616     4540.876    27286.122    44228.193   -57891.687      15.2149      13.1765      28.7324    5760.2466 
  208500      208.488    274.27091    11.451092   -516.03936   -504.58826    3817.5803    25805.073    35666.616   -50018.948      15.2149      13.1765      28.7324    5760.2466 
  209000      208.988    265.31027    11.076976   -515.64717   -504.57019    4037.2155     26435.18    39100.886   -53424.419      15.2149      13.1765      28.7324    5760.2466 
  209500      209.488    270.63014    11.299086   -515.85117   -504.55208    2643.7838    31083.322     35784.04   -58936.011      15.2149      13.1765      28.7324    5760.2466 
  210000      209.988    284.64947    11.884408   -516.41843   -504.53402    3720.1231    26595.385    40548.112   -55983.127      15.2149      13.1765      28.7324    5760.2466 
  210500      210.488    269.11866    11.235981   -515.75207   -504.51609    3746.4395    29258.853    39114.609   -57134.144      15.2149      13.1765      28.7324    5760.2466 
  211000      210.988    292.70483    12.220727   -516.72064   -504.49992    3531.0461    27517.578    38635.856   -55560.296      15.2149      13.1765      28.7324    5760.2466 
  211500      211.488    285.06095    11.901587   -516.38363   -504.48204    2488.1654    31620.389    39773.114   -63929.006      15.2149      13.1765      28.7324    5760.2466 
  212000      211.988    275.87968     11.51826   -515.98173   -504.46347    2844.0796    28980.462    37442.592   -57890.815      15.2149      13.1765      28.7324    5760.2466 
[...]
  948500      948.488    367.93203     15.36154   -512.43804    -497.0765    6610.6154    30182.213    45436.471   -55786.838      15.2149      13.1765      28.7324    5760.2466 
  949000      948.988    370.24227    15.457995   -512.53363   -497.07564     7685.045    27677.164    46460.432   -51082.461      15.2149      13.1765      28.7324    5760.2466 
  949500      949.488    377.37994       15.756   -512.83011   -497.07411     5067.983    28335.783    41534.957   -54666.791      15.2149      13.1765      28.7324    5760.2466 
  950000      949.988    387.93279    16.196592   -513.26944   -497.07285     5280.411    31922.514    43103.195   -59184.476      15.2149      13.1765      28.7324    5760.2466 
  950500      950.488    367.29275     15.33485   -512.40577   -497.07092    6255.3501     28144.21    43850.123   -53228.283      15.2149      13.1765      28.7324    5760.2466 
  951000      950.988    390.62955    16.309185   -513.37898   -497.06979    4495.6907    28265.775    44803.139   -59581.842      15.2149      13.1765      28.7324    5760.2466 
  951500      951.488    367.99992    15.364374   -512.43112   -497.06675    7108.7066    28868.747    43432.378   -50975.004      15.2149      13.1765      28.7324    5760.2466 
  952000      951.988    375.68014    15.685032   -512.74915   -497.06412    5860.4841    31054.476     47049.29   -60522.313      15.2149      13.1765      28.7324    5760.2466 
  952500      952.488    365.11313    15.243848   -512.30617   -497.06232    6063.9012    31176.237    40256.603   -53241.136      15.2149      13.1765      28.7324    5760.2466 
  953000      952.988     397.9825    16.616178    -513.6787   -497.06252    4445.9876     30569.45    44934.396   -62165.883      15.2149      13.1765      28.7324    5760.2466 
  953500      953.488    388.84889    16.234841   -513.29444    -497.0596     5307.337    28473.395    44286.623   -56838.007      15.2149      13.1765      28.7324    5760.2466 
  954000      953.988    372.38322    15.547382   -512.60521   -497.05783    6158.4115    32772.067    45723.797    -60020.63      15.2149      13.1765      28.7324    5760.2466 
  954500      954.488    385.20739    16.082804   -513.13873   -497.05592    7053.2415    35783.938    42859.771   -57483.985      15.2149      13.1765      28.7324    5760.2466 
  955000      954.988    376.58716      15.7229    -512.7779     -497.055     7847.862    36335.966    41124.092   -53916.472      15.2149      13.1765      28.7324    5760.2466 
  955500      955.488     376.0653    15.701112   -512.75389   -497.05277    6127.1413    31458.583    43054.203   -56131.362      15.2149      13.1765      28.7324    5760.2466 
  956000      955.988    364.39047    15.213676   -512.26266   -497.04899    6005.5697    35978.059    43323.547   -61284.897      15.2149      13.1765      28.7324    5760.2466 
  956500      956.488    377.29523    15.752463   -512.80028   -497.04782    5986.7828    33472.677    43361.396   -58873.725      15.2149      13.1765      28.7324    5760.2466 
  957000      956.988    387.20237    16.166096   -513.21322   -497.04713    5631.2979    31029.847    43423.603   -57559.556      15.2149      13.1765      28.7324    5760.2466 
  957500      957.488    380.23449     15.87518   -512.91862   -497.04344     6120.988    31639.416    44187.437   -57463.889      15.2149      13.1765      28.7324    5760.2466 
  958000      957.988    382.82655    15.983402   -513.02504   -497.04164    5697.9587    30858.124     45698.09   -59462.338      15.2149      13.1765      28.7324    5760.2466 
  958500      958.488    362.07861    15.117154   -512.15577   -497.03862    6126.6848    33793.483    41936.224   -57349.652      15.2149      13.1765      28.7324    5760.2466 
  959000      958.988    372.96116    15.571511   -512.60796   -497.03645    6096.6374    31911.996    43941.656    -57563.74      15.2149      13.1765      28.7324    5760.2466 
  959500      959.488    375.01076    15.657084   -512.69303   -497.03595    6386.8544    29425.099    49451.355   -59715.891      15.2149      13.1765      28.7324    5760.2466 
  960000      959.988    347.97135    14.528161   -511.55862   -497.03046    5416.5436    28232.358    46844.768   -58827.495      15.2149      13.1765      28.7324    5760.2466 
  960500      960.488    370.58112    15.472142   -512.50216   -497.03002    6642.2567    32909.351    43689.686   -56672.267      15.2149      13.1765      28.7324    5760.2466 
  961000      960.988    380.38674    15.881537   -512.91037   -497.02883     5266.426    29826.186     44933.39   -58960.298      15.2149      13.1765      28.7324    5760.2466 
  961500      961.488    378.78698    15.814745   -512.84291   -497.02816    6848.4384    34681.511    47726.038   -61862.233      15.2149      13.1765      28.7324    5760.2466 
  962000      961.988    370.64326    15.474737   -512.50043   -497.02569    6262.7741    31151.818    43824.034    -56187.53      15.2149      13.1765      28.7324    5760.2466 
  962500      962.488    379.12201    15.828733   -512.85069   -497.02196    6093.4727    32049.877    44050.135   -57819.594      15.2149      13.1765      28.7324    5760.2466 
  963000      962.988    373.55755    15.596411   -512.61497   -497.01856    5810.5443     33220.19    48072.063   -63860.621      15.2149      13.1765      28.7324    5760.2466 
  963500      963.488    368.52076     15.38612   -512.40277   -497.01665    6382.3648    32338.037     43915.13   -57106.072      15.2149      13.1765      28.7324    5760.2466 
  964000      963.988    363.27364    15.167048   -512.18093   -497.01388    6928.5148    34977.493    39789.236   -53981.185      15.2149      13.1765      28.7324    5760.2466 
  964500      964.488    375.47534    15.676481   -512.68799   -497.01151    4760.9644    29254.197    40174.205   -55145.508      15.2149      13.1765      28.7324    5760.2466 
  965000      964.988    381.67041    15.935131   -512.94481   -497.00967      5662.23    29511.915    47480.566   -60005.791      15.2149      13.1765      28.7324    5760.2466 
  965500      965.488    364.60921    15.222809   -512.22867   -497.00586    6799.8643    31022.993    48752.776   -59376.176      15.2149      13.1765      28.7324    5760.2466 
  966000      965.988    343.08294    14.324065   -511.32616    -497.0021    6664.2769    32440.373    41184.788   -53632.331      15.2149      13.1765      28.7324    5760.2466 
  966500      966.488    362.79801    15.147189   -512.14603   -496.99885    5125.7361    25149.744    43047.401   -52819.937      15.2149      13.1765      28.7324    5760.2466 
  967000      966.988    383.09898    15.994776   -512.99135   -496.99657    6540.0387    29649.104    45513.708   -55542.696      15.2149      13.1765      28.7324    5760.2466 
  967500      967.488    383.99381    16.032136   -513.02802   -496.99588    5355.8502    30979.378    39646.288   -54558.115      15.2149      13.1765      28.7324    5760.2466 
  968000      967.988    382.81008    15.982714   -512.97275   -496.99003    5375.8057    30849.094    42353.221   -57074.898      15.2149      13.1765      28.7324    5760.2466 
  968500      968.488    380.63291    15.891815   -512.87956   -496.98774    5481.6324    25745.075    47613.396   -56913.574      15.2149      13.1765      28.7324    5760.2466 
  969000      968.988    381.78527    15.939927   -512.92431   -496.98438    5651.5472    34598.336    41536.793   -59180.488      15.2149      13.1765      28.7324    5760.2466 
  969500      969.488    367.68521    15.351235   -512.33327   -496.98204    6144.1284    30091.233    46946.943    -58605.79      15.2149      13.1765      28.7324    5760.2466 
  970000      969.988      347.617    14.513367   -511.49083   -496.97746    6290.6187    31582.906    44397.779    -57108.83      15.2149      13.1765      28.7324    5760.2466 
  970500      970.488    385.62658    16.100305   -513.07616   -496.97585    5954.8028    31988.933    42208.137   -56332.662      15.2149      13.1765      28.7324    5760.2466 
  971000      970.988    375.25418    15.667247   -512.64162   -496.97437    6226.7931    32350.191    39891.105   -53560.916      15.2149      13.1765      28.7324    5760.2466 
  971500      971.488    385.05192    16.076313   -513.04711    -496.9708    5639.9966    31192.214    46181.098   -60453.322      15.2149      13.1765      28.7324    5760.2466 
  972000      971.988     357.1147    14.909905   -511.87711   -496.96721    6485.9954    31177.909    49062.197   -60782.121      15.2149      13.1765      28.7324    5760.2466 
  972500      972.488    367.25561    15.333299   -512.29432   -496.96103    7756.2025    30710.398    40727.601   -48169.392      15.2149      13.1765      28.7324    5760.2466 
  973000      972.988     391.3391    16.338809   -513.30034   -496.96154     5770.439    30642.624    46575.769   -59907.076      15.2149      13.1765      28.7324    5760.2466 
  973500      973.488    363.26567    15.166715   -512.12229   -496.95557    4240.9537    28935.104    42352.132   -58564.376      15.2149      13.1765      28.7324    5760.2466 
  974000      973.988    378.72436    15.812131   -512.76334   -496.95121    5323.2198    34060.971     40741.02   -58832.332      15.2149      13.1765      28.7324    5760.2466 
  974500      974.488    371.47291    15.509376   -512.45762   -496.94825    6625.8804    31780.451    42349.256   -54252.066      15.2149      13.1765      28.7324    5760.2466 
  975000      974.988    382.05559    15.951213   -512.89495   -496.94373     7260.704    31635.122    43979.188   -53832.198      15.2149      13.1765      28.7324    5760.2466 
  975500      975.488    380.29439    15.877681   -512.81839   -496.94071    5591.9439    28146.756    44926.601   -56297.526      15.2149      13.1765      28.7324    5760.2466 
  976000      975.988    374.08309    15.618353    -512.5545   -496.93615    5208.1443    27566.078    42143.016    -54084.66      15.2149      13.1765      28.7324    5760.2466 
  976500      976.488    383.68556    16.019266   -512.95248   -496.93321    6213.6796    33102.008    44264.227   -58725.196      15.2149      13.1765      28.7324    5760.2466 
  977000      976.988    406.34217    16.965203   -513.89612   -496.93092    5596.8502    32697.048    44898.782    -60805.28      15.2149      13.1765      28.7324    5760.2466 
  977500      977.488      385.431     16.09214   -513.01751   -496.92537    6654.9013    30089.648    45053.268   -55178.212      15.2149      13.1765      28.7324    5760.2466 
  978000      977.988    381.51616    15.928691   -512.85052   -496.92183    6816.4508    29574.293    44958.344   -54083.284      15.2149      13.1765      28.7324    5760.2466 
  978500      978.488    360.09259    15.034235    -511.9516   -496.91736    6000.0491    29791.024     49810.08   -61600.956      15.2149      13.1765      28.7324    5760.2466 
  979000      978.988    379.05709    15.826023   -512.73922   -496.91319    5217.8211    35121.365    37260.225   -56728.127      15.2149      13.1765      28.7324    5760.2466 
  979500      979.488     377.4915    15.760658   -512.67048   -496.90982    6347.6423    29808.947    39563.185   -50329.205      15.2149      13.1765      28.7324    5760.2466 
  980000      979.988    369.38586    15.422239   -512.32841   -496.90617    5501.8395    31055.975    41084.107   -55634.564      15.2149      13.1765      28.7324    5760.2466 
  980500      980.488    341.06841    14.239956   -511.14075   -496.90079    6339.1825    31576.934    43623.417   -56182.804      15.2149      13.1765      28.7324    5760.2466 
  981000      980.988    370.35866    15.462854   -512.36083   -496.89798    4730.4846    32419.257    40392.094   -58619.898      15.2149      13.1765      28.7324    5760.2466 
  981500      981.488    364.50463    15.218442   -512.11272   -496.89428    5371.5429    35622.938    44582.429   -64090.739      15.2149      13.1765      28.7324    5760.2466 
  982000      981.988    378.06602    15.784645    -512.6754   -496.89075    5063.3376    34401.295    38879.808   -58091.091      15.2149      13.1765      28.7324    5760.2466 
  982500      982.488    373.04391    15.574966   -512.46024   -496.88528    4765.2735    31079.863    43731.817   -60515.859      15.2149      13.1765      28.7324    5760.2466 
  983000      982.988    357.98767    14.946353   -511.82612   -496.87977    5312.7062     32465.91    43396.263   -59924.054      15.2149      13.1765      28.7324    5760.2466 
  983500      983.488    367.94454    15.362062   -512.23825   -496.87619    4790.9216    31981.672    43673.073   -61281.981      15.2149      13.1765      28.7324    5760.2466 
  984000      983.988    364.65852    15.224868   -512.09716    -496.8723    5606.7369    30406.202    43503.024   -57089.015      15.2149      13.1765      28.7324    5760.2466 
  984500      984.488    388.56905    16.223157   -513.09182   -496.86867    6491.0507    27098.702    45010.064   -52635.614      15.2149      13.1765      28.7324    5760.2466 
  985000      984.988    398.94662    16.656431   -513.52233    -496.8659    5101.4243    35399.115    45358.226   -65453.068      15.2149      13.1765      28.7324    5760.2466 
  985500      985.488    360.82939    15.064998   -511.92555   -496.86055    6909.8413    31299.634      43355.4    -53925.51      15.2149      13.1765      28.7324    5760.2466 
  986000      985.988    371.78412    15.522369   -512.37864   -496.85627     5342.166     36765.73    43856.435   -64595.667      15.2149      13.1765      28.7324    5760.2466 
  986500      986.488    362.68573    15.142502    -511.9932    -496.8507    5370.6132    30666.238    46340.171    -60894.57      15.2149      13.1765      28.7324    5760.2466 
  987000      986.988    386.87648     16.15249   -513.00038   -496.84789    4661.9089    31347.633    43535.772   -60897.678      15.2149      13.1765      28.7324    5760.2466 
  987500      987.488    369.77493    15.438483   -512.28155   -496.84307     6272.797    32448.142     37828.07   -51457.821      15.2149      13.1765      28.7324    5760.2466 
  988000      987.988    361.94068    15.111395   -511.94882   -496.83742    6518.7314    32459.573    43508.778   -56412.156      15.2149      13.1765      28.7324    5760.2466 
  988500      988.488    377.30823    15.753006   -512.58679   -496.83378    7269.4233    29539.356    46451.573   -54182.659      15.2149      13.1765      28.7324    5760.2466 
  989000      988.988    385.91184    16.112216   -512.94199   -496.82978    6044.5961    34535.695     43621.53   -60023.437      15.2149      13.1765      28.7324    5760.2466 
  989500      989.488    373.86265     15.60915   -512.43357   -496.82442    6623.3997    31726.849    43283.529    -55140.18      15.2149      13.1765      28.7324    5760.2466 
  990000      989.988    365.27672    15.250678   -512.07114   -496.82046     5568.178    31495.899    40661.147   -55452.512      15.2149      13.1765      28.7324    5760.2466 
  990500      990.488    372.59759    15.556332   -512.37221   -496.81587    6695.2931     30874.78    40800.542   -51589.443      15.2149      13.1765      28.7324    5760.2466 
  991000      990.988    378.68625     15.81054   -512.62098   -496.81044     5517.939    35912.508    41947.506   -61306.197      15.2149      13.1765      28.7324    5760.2466 
  991500      991.488    381.10185    15.911394   -512.71795   -496.80655    6499.1481    36281.767    45232.317   -62016.639      15.2149      13.1765      28.7324    5760.2466 
  992000      991.988    386.09585    16.119898   -512.92256   -496.80266    6402.9511    30515.879    44774.649   -56081.675      15.2149      13.1765      28.7324    5760.2466 
  992500      992.488    374.55588    15.638093   -512.43493   -496.79684     5227.214    30379.024    42168.639   -56866.021      15.2149      13.1765      28.7324    5760.2466 
  993000      992.988    365.02658    15.240235   -512.03166   -496.79142    5862.1013    31069.177    44486.809   -57969.682      15.2149      13.1765      28.7324    5760.2466 
  993500      993.488    370.46875    15.467451    -512.2537   -496.78625    5855.4992    34247.477    46379.176   -63060.156      15.2149      13.1765      28.7324    5760.2466 
  994000      993.988    369.14455    15.412164    -512.1935   -496.78133    5619.1956    25841.164    48522.838   -57506.415      15.2149      13.1765      28.7324    5760.2466 
  994500      994.488    374.74492    15.645985   -512.42499     -496.779    5600.5724     29582.71    42068.242   -54849.235      15.2149      13.1765      28.7324    5760.2466 
  995000      994.988    354.54135    14.802465   -511.57508   -496.77262    6106.1896     32822.74    47610.532   -62114.703      15.2149      13.1765      28.7324    5760.2466 
  995500      995.488     376.8023    15.731883   -512.50015   -496.76826    5283.2758    25373.453     44949.63   -54473.255      15.2149      13.1765      28.7324    5760.2466 
  996000      995.988    355.79205    14.854683    -511.6169   -496.76222    7135.9337    31429.942    48279.476   -58301.617      15.2149      13.1765      28.7324    5760.2466 
  996500      996.488    376.65017    15.725531   -512.48329   -496.75776     6131.214    30554.582    47171.395   -59332.335      15.2149      13.1765      28.7324    5760.2466 
  997000      996.988    376.75419    15.729874   -512.48212   -496.75225    7322.1149    32123.044    47964.055   -58120.754      15.2149      13.1765      28.7324    5760.2466 
  997500      997.488    376.62084    15.724307    -512.4696   -496.74529    5066.8085    32520.542    44727.302   -62047.419      15.2149      13.1765      28.7324    5760.2466 
  998000      997.988    373.27088    15.584443   -512.32682   -496.74238    5703.9834    32856.654    45080.645   -60825.348      15.2149      13.1765      28.7324    5760.2466 
  998500      998.488    387.71433    16.187471   -512.92541   -496.73794    5432.7959    30070.348     41379.33   -55151.291      15.2149      13.1765      28.7324    5760.2466 
  999000      998.988    383.67683    16.018902   -512.74982   -496.73092    6153.5893    29992.898    44305.768   -55837.898      15.2149      13.1765      28.7324    5760.2466 
  999500      999.488    375.73552    15.687344   -512.41378   -496.72643    4858.1355    32759.693    41536.509   -59721.796      15.2149      13.1765      28.7324    5760.2466 
 1000000      999.988    374.61307     15.64048    -512.3611   -496.72062    6420.5672    34060.593    39091.217   -53890.108      15.2149      13.1765      28.7324    5760.2466 
 1000012         1000    360.84678    15.065724    -511.7862   -496.72047    6994.6816    34134.228    39814.714   -52964.897      15.2149      13.1765      28.7324    5760.2466 
Loop time of 887.255 on 28 procs for 1000000 steps with 324 atoms

Performance: 97.379 ns/day, 0.246 hours/ns, 1127.071 timesteps/s
88.0% CPU use with 28 MPI tasks x no OpenMP threads

MPI task timing breakdown:
Section |  min time  |  avg time  |  max time  |%varavg| %total
---------------------------------------------------------------
Pair    | 748.92     | 775.7      | 818.21     |  69.4 | 87.43
Neigh   | 0.00010487 | 0.00015431 | 0.00027678 |   0.3 |  0.00
Comm    | 58.019     | 98.314     | 125.01     | 197.5 | 11.08
Output  | 0.10004    | 0.1028     | 0.12066    |   1.2 |  0.01
Modify  | 4.4477     | 8.027      | 14.771     | 109.6 |  0.90
Other   |            | 5.109      |            |       |  0.58

Nlocal:    11.5714 ave 15 max 7 min
Histogram: 1 1 6 1 0 4 5 4 1 5
Nghost:    660.964 ave 716 max 618 min
Histogram: 5 7 0 2 3 3 0 0 5 3
Neighs:    719.964 ave 991 max 439 min
Histogram: 1 4 4 0 5 3 5 1 3 2
FullNghs:  1439.93 ave 1892 max 872 min
Histogram: 1 1 6 1 3 2 4 4 1 5

Total # of neighbors = 40318
Ave neighs/atom = 124.438
Neighbor list builds = 2
Dangerous builds = 0

write_restart   POSCAR_1x1x1.rest

#unfix    1
#undump   1
Total wall time: 0:14:47
