LAMMPS (7 Dec 2015)
#----------- Initialize Simulation ------------ restart01
#processors	2 2 2
units		metal
boundary	p p p     ## periodic boundary condition  on x y z axis ##
atom_style atomic
#atom_modify map array sort 0 0.0

read_data	POSCAR_1x1x1.lammps
  triclinic box = (0 0 0) to (15.2149 13.1765 28.7324) with tilt (-7.60743 0 0)
  2 by 2 by 7 MPI processor grid
  reading atoms ...
  324 atoms

#----------- Define Potential -----------------
pair_style meam
pair_coeff * * MgAlZn.library.meam Mg Al Zn MgAlZn.parameter.meam Mg Al Zn 	#1=Mg 2=Al 3=Zn	#atoms/mass

#----------- Neighbor List --------------------
neighbor 2.0 bin
neigh_modify delay 10 check yes

#--------------  Run a simulation (minimization) ---------------------------------------
minimize       1.0e-4   1.0e-6   100   1000          #結構優化的條件
WARNING: Resetting reneighboring criteria during minimization (../min.cpp:168)
Neighbor list info ...
  2 neighbor list requests
  update every 1 steps, delay 0 steps, check yes
  max neighbors/atom: 2000, page size: 100000
  master list distance cutoff = 8
  ghost atom cutoff = 8
  binsize = 4 -> bins = 6 4 8
Memory usage per processor = 8.65643 Mbytes
Step Temp E_pair E_mol TotEng Press 
       0            0   -450.19244            0   -450.19244   -10982.977 
      13            0   -464.30465            0   -464.30465    -19127.28 
Loop time of 0.0234168 on 28 procs for 13 steps with 324 atoms

94.3% CPU use with 28 MPI tasks x no OpenMP threads

Minimization stats:
  Stopping criterion = energy tolerance
  Energy initial, next-to-last, final = 
        -450.192441098     -464.265294405     -464.304654724
  Force two-norm initial, final = 16.7388 1.12746
  Force max component initial, final = 2.65209 0.375702
  Final line search alpha, max atom move = 0.292169 0.109769
  Iterations, force evaluations = 13 25

MPI task timing breakdown:
Section |  min time  |  avg time  |  max time  |%varavg| %total
---------------------------------------------------------------
Pair    | 0.019055   | 0.01997    | 0.021246   |   0.4 | 85.28
Neigh   | 0          | 0          | 0          |   0.0 |  0.00
Comm    | 0.0013112  | 0.0025674  | 0.0034889  |   1.1 | 10.96
Output  | 0          | 0          | 0          |   0.0 |  0.00
Modify  | 0          | 0          | 0          |   0.0 |  0.00
Other   |            | 0.0008796  |            |       |  3.76

Nlocal:    11.5714 ave 15 max 9 min
Histogram: 3 7 0 5 0 6 2 0 1 4
Nghost:    663.321 ave 716 max 629 min
Histogram: 6 4 2 3 5 0 2 0 4 2
Neighs:    717.643 ave 959 max 516 min
Histogram: 1 5 3 4 5 2 3 1 0 4
FullNghs:  1435.29 ave 1880 max 1092 min
Histogram: 3 3 4 5 2 4 2 1 0 4

Total # of neighbors = 40188
Ave neighs/atom = 124.037
Neighbor list builds = 0
Dangerous builds = 0
velocity all  create 393.0 4928459 #rot yes dist gaussian

#--------------  Run a simulation (Relaxation)  ----------------------------------------
fix  1  all  nvt   temp  393.0  393.0  100				#damping constant
#fix  2  all  npt   temp  393.0  393.0  50 iso 0.0 0.0 1000.0
#fix  2  all deform 1 x final 0 15.6906 y final 0 13.5884 z final 0 25.2339 xy final -7.8452 units lattice
#fix  3  all  npt   temp  393.0  393.0  50 z 0.0 0.0 1000.0

#variable b equal 1
#fix 2 all efield  0.0  0.0  v_b
#compute pot all pe/atom


#----------- Output --------------------------
thermo	 500
timestep  0.001		#1.0 fs
thermo_style	custom step time temp ke pe etotal press pxx pyy pzz lx ly lz vol

dump 1 all custom 10000 dump.eq id type x y z
dump_modify 1 sort  id

run        1000000	#10000	 ps
Neighbor list info ...
  2 neighbor list requests
  update every 1 steps, delay 10 steps, check yes
  max neighbors/atom: 2000, page size: 100000
  master list distance cutoff = 8
  ghost atom cutoff = 8
  binsize = 4 -> bins = 6 4 8
Memory usage per processor = 7.5469 Mbytes
Step Time Temp KinEng PotEng TotEng Press Pxx Pyy Pzz Lx Ly Lz Volume 
      13            0          393    16.408154   -464.30465    -447.8965    -16084.73    7249.7839    14641.856    -70145.83      15.2149      13.1765      28.7324    5760.2466 
     500        0.487     206.1677     8.607713   -456.50085   -447.89314   -13738.983    11433.049    17134.606   -69784.603      15.2149      13.1765      28.7324    5760.2466 
    1000        0.987    211.31165    8.8224782   -456.71534   -447.89287   -13529.718    11474.281    18620.867   -70684.301      15.2149      13.1765      28.7324    5760.2466 
    1500        1.487    206.08329    8.6041889   -456.49676   -447.89257   -13319.454    11930.493    20073.693   -71962.548      15.2149      13.1765      28.7324    5760.2466 
    2000        1.987    206.42483    8.6184486   -456.51014   -447.89169   -12944.006    10876.773    19012.424   -68721.215      15.2149      13.1765      28.7324    5760.2466 
    2500        2.487    215.62485    9.0025591   -456.89338   -447.89083   -12534.555    12535.845    19639.785   -69779.295      15.2149      13.1765      28.7324    5760.2466 
    3000        2.987    197.81636    8.2590363   -456.14872   -447.88968   -13509.121     9101.072    20276.067   -69904.504      15.2149      13.1765      28.7324    5760.2466 
    3500        3.487    207.89962    8.6800224   -456.56846   -447.88844   -14034.316    10231.993    18098.172   -70433.113      15.2149      13.1765      28.7324    5760.2466 
    4000        3.987    204.78969      8.55018   -456.43719   -447.88701    -13270.05     11366.24    19236.201   -70412.592      15.2149      13.1765      28.7324    5760.2466 
    4500        4.487    201.84837    8.4273767   -456.31259   -447.88521   -12955.731    11800.135    19657.017   -70324.345      15.2149      13.1765      28.7324    5760.2466 
    5000        4.987    203.08213    8.4788876   -456.36221   -447.88332   -13093.332    11930.284    17668.425   -68878.705      15.2149      13.1765      28.7324    5760.2466 
    5500        5.487    214.57313    8.9586484   -456.83985   -447.88121   -13755.387    12329.512    17339.381   -70935.054      15.2149      13.1765      28.7324    5760.2466 
    6000        5.987    212.51894    8.8728839   -456.75149   -447.87861   -13046.038    14725.336    17862.212   -71725.661      15.2149      13.1765      28.7324    5760.2466 
    6500        6.487    193.28329    8.0697757   -455.94572   -447.87594   -13097.203    11205.901    20243.071   -70740.582      15.2149      13.1765      28.7324    5760.2466 
    7000        6.987    190.55376     7.955815   -455.82914   -447.87332       -12838    11605.233    18228.113   -68347.344      15.2149      13.1765      28.7324    5760.2466 
    7500        7.487    210.90481    8.8054923   -456.67627   -447.87078   -12672.333    11801.327    20007.607   -69825.934      15.2149      13.1765      28.7324    5760.2466 
    8000        7.987    196.35989    8.1982272   -456.06523     -447.867   -12384.735    13397.447    18846.824   -69398.477      15.2149      13.1765      28.7324    5760.2466 
    8500        8.487    193.67745    8.0862323    -455.9502   -447.86397   -12903.176    13047.668    21822.031   -73579.225      15.2149      13.1765      28.7324    5760.2466 
    9000        8.987    205.80435    8.5925431   -456.45315   -447.86061    -13189.09    11687.024    19404.345   -70658.638      15.2149      13.1765      28.7324    5760.2466 
    9500        9.487    213.45169    8.9118271   -456.76865   -447.85683   -13472.116    12304.206    18025.188   -70745.741      15.2149      13.1765      28.7324    5760.2466 
   10000        9.987    215.94119    9.0157663   -456.86807   -447.85231   -13297.517    12442.428    21728.578   -74063.558      15.2149      13.1765      28.7324    5760.2466 
   10500       10.487    210.99783    8.8093762   -456.65791   -447.84854   -13289.712    10971.578    19417.924   -70258.638      15.2149      13.1765      28.7324    5760.2466 
   11000       10.987    206.97899    8.6415852   -456.48511   -447.84352   -13605.834    12194.461    19739.573   -72751.536      15.2149      13.1765      28.7324    5760.2466 
   11500       11.487    214.36916    8.9501326   -456.78969   -447.83955   -13876.256    11516.537    17614.163    -70759.47      15.2149      13.1765      28.7324    5760.2466 
   12000       11.987    215.37003      8.99192   -456.82627   -447.83435   -13644.081    10032.702     19321.73   -70286.674      15.2149      13.1765      28.7324    5760.2466 
   12500       12.487    207.78606    8.6752814   -456.50457   -447.82929   -11986.544    12272.771    21417.776   -69650.178      15.2149      13.1765      28.7324    5760.2466 
   13000       12.987    209.35647    8.7408475   -456.56476   -447.82391   -12843.132    12383.178     18183.91   -69096.485      15.2149      13.1765      28.7324    5760.2466 
   13500       13.487    214.59363    8.9595044   -456.77821    -447.8187     -13415.2    10549.918    18979.933   -69775.451      15.2149      13.1765      28.7324    5760.2466 
   14000       13.987    204.79325    8.5503285   -456.36376   -447.81343   -13387.919    12017.773    18388.102   -70569.632      15.2149      13.1765      28.7324    5760.2466 
   14500       14.487    213.16712    8.8999463   -456.70721   -447.80727   -13482.359    11473.246    18408.022   -70328.347      15.2149      13.1765      28.7324    5760.2466 
   15000       14.987    203.26264    8.4864239   -456.28731   -447.80089   -12617.101    12407.131    20312.951   -70571.384      15.2149      13.1765      28.7324    5760.2466 
   15500       15.487    201.76079    8.4237203   -456.21862    -447.7949   -13253.986    14087.927    18072.867   -71922.752      15.2149      13.1765      28.7324    5760.2466 
   16000       15.987    204.50293    8.5382074    -456.3263    -447.7881    -12479.85     13250.17    21698.059    -72387.78      15.2149      13.1765      28.7324    5760.2466 
   16500       16.487    201.49725     8.412717   -456.19475   -447.78204   -12689.396    13980.259    19593.274   -71641.721      15.2149      13.1765      28.7324    5760.2466 
   17000       16.987    201.99947    8.4336855   -456.20826   -447.77457   -12751.365    11229.756    20109.517   -69593.368      15.2149      13.1765      28.7324    5760.2466 
   17500       17.487      206.195    8.6088531    -456.3767   -447.76785   -12306.413    14952.983    19259.168    -71131.39      15.2149      13.1765      28.7324    5760.2466 
   18000       17.987    207.87376    8.6789428   -456.43965   -447.76071   -12979.805    11616.884    18647.707   -69204.007      15.2149      13.1765      28.7324    5760.2466 
   18500       18.487    201.27076    8.4032611   -456.15642   -447.75315   -11788.673     15154.45    20646.999   -71167.469      15.2149      13.1765      28.7324    5760.2466 
   19000       18.987    199.29887    8.3209325   -456.06642   -447.74548   -12071.634    16414.314    19768.227   -72397.444      15.2149      13.1765      28.7324    5760.2466 
   19500       19.487    208.95871    8.7242407   -456.46191   -447.73767   -13065.113    13282.059    20975.541    -73452.94      15.2149      13.1765      28.7324    5760.2466 
   20000       19.987    216.14257    9.0241742   -456.75398    -447.7298   -12437.666    11331.103    22011.607   -70655.709      15.2149      13.1765      28.7324    5760.2466 
   20500       20.487    213.30858    8.9058523   -456.62722   -447.72137   -14344.746    10928.718    18639.895   -72602.849      15.2149      13.1765      28.7324    5760.2466 
   21000       20.987    208.17713    8.6916091   -456.40442   -447.71281   -13633.762    12584.156    19569.763   -73055.204      15.2149      13.1765      28.7324    5760.2466 
   21500       21.487    203.86733    8.5116705    -456.2157   -447.70403   -12950.588    11410.581    17784.953   -68047.297      15.2149      13.1765      28.7324    5760.2466 
   22000       21.987    207.47823    8.6624293   -456.35789   -447.69546   -12187.227     14463.97    20756.074   -71781.725      15.2149      13.1765      28.7324    5760.2466 
   22500       22.487    211.72553    8.8397584    -456.5263   -447.68654   -13016.964    12232.288    20666.868   -71950.048      15.2149      13.1765      28.7324    5760.2466 
   23000       22.987    207.52609    8.6644275   -456.34139   -447.67697   -12556.948     12241.01    20436.894   -70348.747      15.2149      13.1765      28.7324    5760.2466 
   23500       23.487    209.29889    8.7384437   -456.40613   -447.66768   -13586.754     12896.95    19018.218    -72675.43      15.2149      13.1765      28.7324    5760.2466 
   24000       23.987    209.59119    8.7506474   -456.40908   -447.65843   -13205.775     11579.02    19673.167   -70869.514      15.2149      13.1765      28.7324    5760.2466 
   24500       24.487    214.63781    8.9613489   -456.61031   -447.64896   -13159.693    11474.717    22412.279   -73366.074      15.2149      13.1765      28.7324    5760.2466 
   25000       24.987    204.27225     8.528576   -456.16735   -447.63877   -12569.542    12382.073    19590.027   -69680.726      15.2149      13.1765      28.7324    5760.2466 
   25500       25.487    214.49167    8.9552476   -456.58379   -447.62854    -13257.51    12281.228    22501.671   -74555.427      15.2149      13.1765      28.7324    5760.2466 
   26000       25.987    205.70753    8.5885006   -456.20654   -447.61804   -12825.424    12356.436    20172.762   -71005.471      15.2149      13.1765      28.7324    5760.2466 
   26500       26.487    209.70788    8.7555192   -456.36339   -447.60788   -13040.651    14313.256    18280.254   -71715.465      15.2149      13.1765      28.7324    5760.2466 
   27000       26.987    213.25567    8.9036431   -456.50065     -447.597   -13438.721    12703.843    18327.304   -71347.309      15.2149      13.1765      28.7324    5760.2466 
   27500       27.487    209.91999    8.7643749   -456.35073   -447.58636   -12756.739    13841.728    20099.506    -72211.45      15.2149      13.1765      28.7324    5760.2466 
   28000       27.987    203.34651    8.4899254   -456.06565   -447.57573   -12795.324    13097.629    17267.944   -68751.544      15.2149      13.1765      28.7324    5760.2466 
   28500       28.487    203.30892     8.488356   -456.05288   -447.56452   -12943.855    11048.881    18802.369   -68682.816      15.2149      13.1765      28.7324    5760.2466 
   29000       28.987    214.73446     8.965384   -456.51888    -447.5535   -13418.193    11419.475    18141.782   -69815.837      15.2149      13.1765      28.7324    5760.2466 
   29500       29.487    204.08877    8.5209156   -456.06289   -447.54197   -12674.347     11605.56    21343.872   -70972.473      15.2149      13.1765      28.7324    5760.2466 
   30000       29.987    204.00189    8.5172882   -456.04811   -447.53082   -13152.618    13028.059    20969.841   -73455.755      15.2149      13.1765      28.7324    5760.2466 
   30500       30.487    214.88084    8.9714959   -456.49134   -447.51984   -13170.541    13197.642    20271.295   -72980.561      15.2149      13.1765      28.7324    5760.2466 
   31000       30.987    213.67272    8.9210555   -456.42939   -447.50834   -12934.182    12982.538     18443.82   -70228.902      15.2149      13.1765      28.7324    5760.2466 
   31500       31.487    213.57617    8.9170244   -456.41281   -447.49578   -12888.214    11503.451    17945.212   -68113.304      15.2149      13.1765      28.7324    5760.2466 
   32000       31.987    202.65387    8.4610071   -455.94507   -447.48406   -13049.675    8929.7339     20602.92   -68681.679      15.2149      13.1765      28.7324    5760.2466 
   32500       32.487    219.64605    9.1704482   -456.64263   -447.47218   -12841.127    11939.554    17509.206   -67972.139      15.2149      13.1765      28.7324    5760.2466 
   33000       32.987    203.96459    8.5157312    -455.9759   -447.46017   -13385.354    11296.245    18272.976   -69725.285      15.2149      13.1765      28.7324    5760.2466 
   33500       33.487    210.35965    8.7827315   -456.23093   -447.44819     -13429.9    9754.8626    21023.609   -71068.173      15.2149      13.1765      28.7324    5760.2466 
   34000       33.987    218.51315    9.1231486   -456.55929   -447.43614   -13289.961    11467.522    19094.919   -70432.324      15.2149      13.1765      28.7324    5760.2466 
   34500       34.487    204.23327    8.5269486   -455.95093   -447.42398   -11498.092     12747.17    19066.351   -66307.798      15.2149      13.1765      28.7324    5760.2466 
   35000       34.987    210.99641    8.8093167   -456.22069   -447.41137   -12124.078    14118.884    18819.124   -69310.241      15.2149      13.1765      28.7324    5760.2466 
   35500       35.487    213.19218    8.9009926   -456.30024   -447.39925   -12352.901    10901.261    19913.348   -67873.313      15.2149      13.1765      28.7324    5760.2466 
   36000       35.987    213.25296    8.9035301   -456.28961   -447.38608   -12969.499     12379.15    20977.118   -72264.763      15.2149      13.1765      28.7324    5760.2466 
   36500       36.487    219.52042    9.1652031   -456.53913   -447.37392   -13900.578    10529.076     16251.77   -68482.579      15.2149      13.1765      28.7324    5760.2466 
   37000       36.987    216.69043    9.0470482   -456.40837   -447.36132   -13144.005    11982.894    16571.737   -67986.647      15.2149      13.1765      28.7324    5760.2466 
   37500       37.487    216.57469    9.0422156    -456.3911   -447.34888   -12368.319    13131.685    20462.658   -70699.301      15.2149      13.1765      28.7324    5760.2466 
   38000       37.987    221.03619    9.2284879   -456.56451   -447.33602   -13485.873    12947.739    18048.527   -71453.887      15.2149      13.1765      28.7324    5760.2466 
   38500       38.487    210.39783    8.7843253   -456.10749   -447.32316    -12420.52    13455.945    18015.612   -68733.116      15.2149      13.1765      28.7324    5760.2466 
   39000       38.987    219.66686     9.171317   -456.48238   -447.31106   -12321.544    13962.515     18235.67   -69162.817      15.2149      13.1765      28.7324    5760.2466 
   39500       39.487    206.03034    8.6019784   -455.89992   -447.29794   -12479.466    11942.308    20759.565   -70140.271      15.2149      13.1765      28.7324    5760.2466 
   40000       39.987    225.04384    9.3958113   -456.68122   -447.28541   -12808.654    10929.086    20040.612   -69395.661      15.2149      13.1765      28.7324    5760.2466 
   40500       40.487    208.67396    8.7123521   -455.98469   -447.27234   -12406.045    13412.268    19716.565    -70346.97      15.2149      13.1765      28.7324    5760.2466 
   41000       40.987    203.97411    8.5161285   -455.77575   -447.25962   -11957.784    15807.851     20054.03   -71735.234      15.2149      13.1765      28.7324    5760.2466 
   41500       41.487     221.2334    9.2367216   -456.48427   -447.24754    -12832.24    12570.783    20026.927    -71094.43      15.2149      13.1765      28.7324    5760.2466 
   42000       41.987    221.24509    9.2372096   -456.47208   -447.23487    -11858.63    14108.998    19090.656   -68775.543      15.2149      13.1765      28.7324    5760.2466 
   42500       42.487    206.25319    8.6112824   -455.83325   -447.22197   -12184.953     13939.82     18757.48   -69252.159      15.2149      13.1765      28.7324    5760.2466 
   43000       42.987    227.45546     9.496499   -456.70617   -447.20967   -13783.218    11311.707    18778.222   -71439.585      15.2149      13.1765      28.7324    5760.2466 
   43500       43.487    226.90602    9.4735591   -456.66995   -447.19639   -12789.758    11292.796    21355.138   -71017.207      15.2149      13.1765      28.7324    5760.2466 
   44000       43.987    215.21002    8.9852391   -456.16944    -447.1842   -12903.657    12644.039    18613.319    -69968.33      15.2149      13.1765      28.7324    5760.2466 
   44500       44.487    233.12222    9.7330919   -456.90477   -447.17168   -13080.304    12215.647    18614.506   -70071.065      15.2149      13.1765      28.7324    5760.2466 
   45000       44.987    215.50761    8.9976641   -456.15691   -447.15925   -12431.164    14658.854     18577.29   -70529.636      15.2149      13.1765      28.7324    5760.2466 
   45500       45.487    208.43727    8.7024703   -455.84845   -447.14598   -12994.486    11102.646    22378.521   -72464.626      15.2149      13.1765      28.7324    5760.2466 
   46000       45.987    209.95962    8.7660298    -455.8998   -447.13377   -12217.126    14024.201     20164.38   -70839.959      15.2149      13.1765      28.7324    5760.2466 
   46500       46.487    206.68335    8.6292422   -455.75049   -447.12124   -12848.412    12696.018    21424.782   -72666.036      15.2149      13.1765      28.7324    5760.2466 
   47000       46.987    221.45684    9.2460505   -456.35536   -447.10931   -13049.839    13917.044    18559.838   -71626.399      15.2149      13.1765      28.7324    5760.2466 
   47500       47.487    220.36232    9.2003531   -456.29713   -447.09678   -12889.942    12099.399    18735.079   -69504.302      15.2149      13.1765      28.7324    5760.2466 
   48000       47.987     219.8396    9.1785289   -456.26314   -447.08461   -14175.778    10708.982      18470.2   -71706.515      15.2149      13.1765      28.7324    5760.2466 
   48500       48.487    218.26822    9.1129222   -456.18547   -447.07255   -12283.805    12656.324    20490.561   -69998.301      15.2149      13.1765      28.7324    5760.2466 
   49000       48.987    218.95322    9.1415216   -456.20143   -447.05991   -13128.791    13051.041    17694.463   -70131.878      15.2149      13.1765      28.7324    5760.2466 
   49500       49.487    207.92285    8.6809925   -455.72872   -447.04773   -12453.717    13326.316    19993.258   -70680.724      15.2149      13.1765      28.7324    5760.2466 
   50000       49.987    224.47944    9.3722469   -456.40834   -447.03609   -12889.962    13018.415    19194.406   -70882.707      15.2149      13.1765      28.7324    5760.2466 
   50500       50.487    215.45454    8.9954484    -456.0191   -447.02365    -12176.71    14463.939    19574.128   -70568.198      15.2149      13.1765      28.7324    5760.2466 
   51000       50.987    220.34357    9.1995704   -456.21124   -447.01167   -12062.516    13858.114    19548.763   -69594.427      15.2149      13.1765      28.7324    5760.2466 
   51500       51.487    220.06999    9.1881479   -456.18839   -447.00025   -12447.744    12446.886    17780.687   -67570.804      15.2149      13.1765      28.7324    5760.2466 
   52000       51.987    214.25856    8.9455151   -455.93386   -446.98834   -13184.962    13139.646    18708.778   -71403.308      15.2149      13.1765      28.7324    5760.2466 
   52500       52.487    209.26975    8.7372269   -455.71405   -446.97682   -13043.409    12502.013    20835.594   -72467.835      15.2149      13.1765      28.7324    5760.2466 
   53000       52.987    226.17345    9.4429739   -456.40833   -446.96536   -12783.087    13057.636    19604.176   -71011.075      15.2149      13.1765      28.7324    5760.2466 
   53500       53.487    223.27957    9.3221515   -456.27593   -446.95378   -13606.842    12504.919    16905.677   -70231.121      15.2149      13.1765      28.7324    5760.2466 
   54000       53.987    209.51081    8.7472915   -455.68906   -446.94176   -12714.961    12586.723    19569.963   -70301.569      15.2149      13.1765      28.7324    5760.2466 
   54500       54.487    211.34365    8.8238144   -455.75416   -446.93034    -12498.01    12973.218    17686.832    -68154.08      15.2149      13.1765      28.7324    5760.2466 
   55000       54.987     216.9191    9.0565954   -455.97575   -446.91916   -11979.149    13014.588    19564.522   -68516.555      15.2149      13.1765      28.7324    5760.2466 
   55500       55.487    214.44934    8.9534801   -455.86152   -446.90804   -12829.573    11791.704    20210.847   -70491.271      15.2149      13.1765      28.7324    5760.2466 
   56000       55.987    236.59409    9.8780461   -456.77526   -446.89722   -12911.214    12590.384    20541.751   -71865.778      15.2149      13.1765      28.7324    5760.2466 
   56500       56.487    211.86935    8.8457631   -455.73153   -446.88577   -12227.536    12822.207    19994.905   -69499.722      15.2149      13.1765      28.7324    5760.2466 
   57000       56.987    231.05377    9.6467321   -456.52152   -446.87479   -12749.157    11842.082     18799.43   -68888.982      15.2149      13.1765      28.7324    5760.2466 
   57500       57.487    225.81264    9.4279096   -456.29125   -446.86334   -12939.099    12609.641    20692.967   -72119.906      15.2149      13.1765      28.7324    5760.2466 
   58000       57.987    236.15448    9.8596922    -456.7124   -446.85271   -13335.769    11278.106    19645.419   -70930.834      15.2149      13.1765      28.7324    5760.2466 
   58500       58.487    231.17504    9.6517953    -456.4933   -446.84151   -13071.493    11846.325    20110.484   -71171.289      15.2149      13.1765      28.7324    5760.2466 
   59000       58.987     224.4961    9.3729428   -456.20341   -446.83047   -12182.642     11613.33    20946.558   -69107.812      15.2149      13.1765      28.7324    5760.2466 
   59500       59.487    226.60118    9.4608319   -456.28056   -446.81972   -12796.287    11781.622    19147.828    -69318.31      15.2149      13.1765      28.7324    5760.2466 
   60000       59.987    222.78917    9.3016766   -456.11051   -446.80884   -13057.042    10396.676    18997.419    -68565.22      15.2149      13.1765      28.7324    5760.2466 
   60500       60.487    222.82047    9.3029836   -456.10107   -446.79808   -13143.372    12662.645    21112.125   -73204.886      15.2149      13.1765      28.7324    5760.2466 
   61000       60.987    227.59496    9.5023234   -456.28982    -446.7875   -12477.851    11999.476    20785.546   -70218.574      15.2149      13.1765      28.7324    5760.2466 
   61500       61.487    218.45539    9.1207367   -455.89734   -446.77661   -12414.662    13229.629    18888.314    -69361.93      15.2149      13.1765      28.7324    5760.2466 
   62000       61.987    223.33745    9.3245678   -456.09033   -446.76577   -12326.513    12197.655    18262.003   -67439.196      15.2149      13.1765      28.7324    5760.2466 
   62500       62.487    210.01146    8.7681943   -455.52303   -446.75483   -13384.352     12361.96    17037.035   -69552.052      15.2149      13.1765      28.7324    5760.2466 
   63000       62.987    228.92953     9.558043   -456.30268   -446.74463   -13335.495    12038.346    19655.308   -71700.137      15.2149      13.1765      28.7324    5760.2466 
   63500       63.487     216.6294    9.0444998   -455.77823   -446.73373    -12220.03     11506.85    20768.901    -68935.84      15.2149      13.1765      28.7324    5760.2466 
   64000       63.987    220.53493      9.20756   -455.93054   -446.72298    -13207.99    12946.627    16823.097   -69393.693      15.2149      13.1765      28.7324    5760.2466 
   64500       64.487    230.92192    9.6412275   -456.35406   -446.71283   -12909.123    10141.289    19534.791   -68403.448      15.2149      13.1765      28.7324    5760.2466 
   65000       64.987    210.67268    8.7958007    -455.4981    -446.7023    -12358.16     12486.18    19293.253   -68853.914      15.2149      13.1765      28.7324    5760.2466 
   65500       65.487     223.9636    9.3507104   -456.04217   -446.69146   -13290.824    12515.695    17994.052   -70382.219      15.2149      13.1765      28.7324    5760.2466 
   66000       65.987    213.58454     8.917374   -455.59837   -446.68099   -12463.634    11346.742    19948.767   -68686.412      15.2149      13.1765      28.7324    5760.2466 
   66500       66.487    222.67485    9.2969035   -455.96777   -446.67086   -12635.257    11850.682    21095.744   -70852.197      15.2149      13.1765      28.7324    5760.2466 
   67000       66.987    233.30156    9.7405798   -456.40072   -446.66014   -12796.114    11125.139    20371.896   -69885.377      15.2149      13.1765      28.7324    5760.2466 
   67500       67.487    213.60949    8.9184156   -455.56825   -446.64984   -13394.826    10773.786    20797.524   -71755.789      15.2149      13.1765      28.7324    5760.2466 
   68000       67.987     220.9773    9.2260293    -455.8656   -446.63957   -13334.003    11581.461    17937.807   -69521.278      15.2149      13.1765      28.7324    5760.2466 
   68500       68.487    237.53256    9.9172285   -456.54635   -446.62913    -12502.32    12041.308    18420.731   -67968.998      15.2149      13.1765      28.7324    5760.2466 
   69000       68.987     218.5132    9.1231504   -455.74113   -446.61798   -12580.325    13278.013    18998.619   -70017.608      15.2149      13.1765      28.7324    5760.2466 
   69500       69.487    230.37084     9.618219    -456.2265   -446.60828   -12237.236    14397.185    17720.108       -68829      15.2149      13.1765      28.7324    5760.2466 
   70000       69.987    224.37421    9.3678538   -455.96565   -446.59779    -13641.49    13289.152    17005.476   -71219.098      15.2149      13.1765      28.7324    5760.2466 
   70500       70.487    212.66333    8.8789123   -455.46573   -446.58682   -11836.204    15782.548    19082.535   -70373.694      15.2149      13.1765      28.7324    5760.2466 
   71000       70.987     228.8454    9.5545304   -456.13101   -446.57648   -12844.539    10663.679    21203.891   -70401.188      15.2149      13.1765      28.7324    5760.2466 
   71500       71.487    222.37116    9.2842245   -455.84966   -446.56543   -12887.227    12487.344    17493.533   -68642.558      15.2149      13.1765      28.7324    5760.2466 
   72000       71.987    220.61369     9.210848   -455.76583   -446.55498   -12008.524    14516.663    19316.142   -69858.377      15.2149      13.1765      28.7324    5760.2466 
   72500       72.487    215.23635    8.9863387   -455.53082   -446.54448     -12082.2    13974.085    21501.101   -71721.786      15.2149      13.1765      28.7324    5760.2466 
   73000       72.987    237.48301    9.9151595   -456.44945    -446.5343    -12816.06    11549.295    18698.832   -68696.309      15.2149      13.1765      28.7324    5760.2466 
   73500       73.487    220.24304    9.1953732   -455.71918   -446.52381   -13154.135    10910.863    20306.831   -70680.098      15.2149      13.1765      28.7324    5760.2466 
   74000       73.987    226.06206    9.4383231   -455.95151   -446.51319   -13699.043    12968.333    17176.634   -71242.096      15.2149      13.1765      28.7324    5760.2466 
   74500       74.487     217.8101    9.0937954   -455.59604   -446.50224   -11764.441    14740.886    20978.545   -71012.754      15.2149      13.1765      28.7324    5760.2466 
   75000       74.987    235.74231    9.8424835   -456.33414   -446.49165   -12888.264    11634.666     19541.16   -69840.619      15.2149      13.1765      28.7324    5760.2466 
   75500       75.487    228.86561    9.5553743    -456.0363   -446.48092   -12764.321    15170.467     18506.74    -71970.17      15.2149      13.1765      28.7324    5760.2466 
   76000       75.987    231.94519    9.6839499   -456.15452   -446.47057   -12169.148    14655.592    21501.506   -72664.543      15.2149      13.1765      28.7324    5760.2466 
   76500       76.487    214.61933    8.9605772   -455.41958     -446.459   -11999.637    12827.814    20118.211   -68944.937      15.2149      13.1765      28.7324    5760.2466 
   77000       76.987    224.52553    9.3741714   -455.82268   -446.44851   -12549.703    11267.143     20417.11   -69333.363      15.2149      13.1765      28.7324    5760.2466 
   77500       77.487     206.8773    8.6373398   -455.07435   -446.43701   -12143.467    13221.805    23707.277   -73359.483      15.2149      13.1765      28.7324    5760.2466 
   78000       77.987    223.44198    9.3289321   -455.75555   -446.42662   -12042.956    13213.384     18640.79   -67983.041      15.2149      13.1765      28.7324    5760.2466 
   78500       78.487    232.76733    9.7182752   -456.13425   -446.41598   -13213.819    11075.668    22647.099   -73364.224      15.2149      13.1765      28.7324    5760.2466 
   79000       78.987    228.67994    9.5476224   -455.95229   -446.40466   -11856.673    13760.911    21221.892   -70552.821      15.2149      13.1765      28.7324    5760.2466 
   79500       79.487    218.45032    9.1205251   -455.51365   -446.39313   -12171.055    13670.418    22146.026   -72329.609      15.2149      13.1765      28.7324    5760.2466 
   80000       79.987    223.05731    9.3128718   -455.69507    -446.3822   -11865.193    13711.971     19909.77   -69217.319      15.2149      13.1765      28.7324    5760.2466 
   80500       80.487    228.64933    9.5463444   -455.91753   -446.37119   -12779.505    13008.105    22243.365   -73589.986      15.2149      13.1765      28.7324    5760.2466 
   81000       80.987    234.92112    9.8081978    -456.1684    -446.3602   -12247.337    12426.783    19607.624   -68776.418      15.2149      13.1765      28.7324    5760.2466 
   81500       81.487    231.97941    9.6853786   -456.03444   -446.34906   -12861.657     13994.18    19411.583   -71990.733      15.2149      13.1765      28.7324    5760.2466 
   82000       81.987    215.87392    9.0129578   -455.34985    -446.3369   -12980.232    12191.251     17280.07   -68412.018      15.2149      13.1765      28.7324    5760.2466 
   82500       82.487    233.98836    9.7692544   -456.09561   -446.32636   -13089.698    12345.607    19131.752   -70746.454      15.2149      13.1765      28.7324    5760.2466 
   83000       82.987    213.37391    8.9085799   -455.22276   -446.31418   -12748.119    13722.511    20029.571    -71996.44      15.2149      13.1765      28.7324    5760.2466 
   83500       83.487    212.10998    8.8558093   -455.15857   -446.30276   -12347.531     14556.91    22272.137    -73871.64      15.2149      13.1765      28.7324    5760.2466 
   84000       83.987    238.54693    9.9595791   -456.25194   -446.29236   -12656.496    13067.737    21542.133   -72579.357      15.2149      13.1765      28.7324    5760.2466 
   84500       84.487    229.46942     9.580584   -455.86079    -446.2802   -12527.684     13223.29    18322.755   -69129.096      15.2149      13.1765      28.7324    5760.2466 
   85000       84.987    230.86544    9.6388692   -455.90792   -446.26906   -12756.407    12459.135     20242.34   -70970.698      15.2149      13.1765      28.7324    5760.2466 
   85500       85.487    227.22449    9.4868556   -455.74386   -446.25701   -11877.579    13987.615    21661.769   -71282.123      15.2149      13.1765      28.7324    5760.2466 
   86000       85.987     228.1173    9.5241317    -455.7697   -446.24557   -12193.894    13690.616    20897.734   -71170.032      15.2149      13.1765      28.7324    5760.2466 
   86500       86.487    220.48758     9.205583   -455.43935   -446.23377   -11972.012    14315.064    21987.766   -72218.867      15.2149      13.1765      28.7324    5760.2466 
   87000       86.987    233.05255    9.7301834   -455.95198    -446.2218   -13120.138    11374.383    20257.846   -70992.644      15.2149      13.1765      28.7324    5760.2466 
   87500       87.487    222.79577     9.301952   -455.51204   -446.21009   -12690.528    11816.113    21187.663   -71075.358      15.2149      13.1765      28.7324    5760.2466 
   88000       87.987    230.42092      9.62031   -455.81825   -446.19794   -11723.628    13933.823     20175.89   -69280.596      15.2149      13.1765      28.7324    5760.2466 
   88500       88.487    226.66877     9.463654   -455.64922   -446.18556   -12328.563    12834.752    19354.339    -69174.78      15.2149      13.1765      28.7324    5760.2466 
   89000       88.987    235.59837     9.836474   -456.01075   -446.17427    -11760.48    13994.818    21182.333   -70458.592      15.2149      13.1765      28.7324    5760.2466 
   89500       89.487    221.33642    9.2410226    -455.4035   -446.16248   -13271.005    10035.607    19797.787   -69646.409      15.2149      13.1765      28.7324    5760.2466 
   90000       89.987    221.73152    9.2575188   -455.40746   -446.14994   -12566.443    10916.794    19785.181   -68401.304      15.2149      13.1765      28.7324    5760.2466 
   90500       90.487    224.02283     9.353183   -455.49112   -446.13794    -13233.44    13512.164    17235.474   -70447.957      15.2149      13.1765      28.7324    5760.2466 
   91000       90.987    217.89893     9.097504    -455.2226    -446.1251    -12583.31    10162.198     21527.98   -69440.108      15.2149      13.1765      28.7324    5760.2466 
   91500       91.487    216.80021    9.0516312   -455.16446   -446.11283    -12714.47    12162.565    19984.973   -70290.949      15.2149      13.1765      28.7324    5760.2466 
   92000       91.987    227.96391    9.5177271   -455.61842   -446.10069   -11791.708    13508.426    21421.658   -70305.209      15.2149      13.1765      28.7324    5760.2466 
   92500       92.487    224.51816    9.3738636   -455.46174   -446.08788   -12622.508    13837.071    21558.636   -73263.232      15.2149      13.1765      28.7324    5760.2466 
   93000       92.987    231.40344     9.661331   -455.73683   -446.07549   -12184.533    13872.498     22452.77   -72878.867      15.2149      13.1765      28.7324    5760.2466 
   93500       93.487    232.15061    9.6925261   -455.75571   -446.06319   -12221.117    13673.188    21143.731   -71480.269      15.2149      13.1765      28.7324    5760.2466 
   94000       93.987    227.11024    9.4820859   -455.53292   -446.05083   -12665.015    13143.411    19617.613   -70756.069      15.2149      13.1765      28.7324    5760.2466 
   94500       94.487    231.23307    9.6542182   -455.69263   -446.03841   -12415.865    12330.286    21064.885   -70642.767      15.2149      13.1765      28.7324    5760.2466 
   95000       94.987    220.40711    9.2022232   -455.22759   -446.02537   -12329.096    11338.866    21583.619   -69909.772      15.2149      13.1765      28.7324    5760.2466 
   95500       95.487    234.61846    9.7955617   -455.80836    -446.0128   -12232.549    11714.447    21650.652   -70062.745      15.2149      13.1765      28.7324    5760.2466 
   96000       95.987    222.31007    9.2816735   -455.28083   -445.99916   -12822.739    13351.502    18913.258   -70732.978      15.2149      13.1765      28.7324    5760.2466 
   96500       96.487    234.23497    9.7795503   -455.76622   -445.98667   -13054.073    12661.618    18041.974    -69865.81      15.2149      13.1765      28.7324    5760.2466 
   97000       96.987     241.3241    10.075529    -456.0495   -445.97397   -12505.039     11336.35    19940.061   -68791.528      15.2149      13.1765      28.7324    5760.2466 
   97500       97.487    226.65836    9.4632191   -455.42341   -445.96019   -12696.418     12987.59    21088.837   -72165.681      15.2149      13.1765      28.7324    5760.2466 
   98000       97.987    235.39405    9.8279432   -455.77518   -445.94723   -11621.782    13219.096     22025.72   -70110.164      15.2149      13.1765      28.7324    5760.2466 
   98500       98.487    228.24833    9.5296023   -455.46421   -445.93461   -12452.776    11659.779    22108.861   -71126.967      15.2149      13.1765      28.7324    5760.2466 
   99000       98.987    235.69874    9.8406645   -455.76257   -445.92191   -12721.979    13031.752    18886.237   -70083.927      15.2149      13.1765      28.7324    5760.2466 
   99500       99.487    229.18307    9.5686286   -455.47636   -445.90773   -12394.628      10111.3    21162.641   -68457.824      15.2149      13.1765      28.7324    5760.2466 
  100000       99.987    243.65473    10.172835   -456.06793   -445.89509    -11480.24    14133.462    18952.465   -67526.647      15.2149      13.1765      28.7324    5760.2466 
  100500      100.487    240.25854    10.031041   -455.91216   -445.88112    -12660.59    11909.097    21486.833   -71377.701      15.2149      13.1765      28.7324    5760.2466 
  101000      100.987    239.78367    10.011215    -455.8794   -445.86819   -12622.807    12898.746    20000.246   -70767.412      15.2149      13.1765      28.7324    5760.2466 
  101500      101.487    240.44057    10.038641   -455.89299   -445.85435   -12671.296    13988.368    18502.093   -70504.349      15.2149      13.1765      28.7324    5760.2466 
  102000      101.987    234.60305     9.794918   -455.63575   -445.84083   -12538.209    11111.045    18960.845   -67686.519      15.2149      13.1765      28.7324    5760.2466 
  102500      102.487     234.8273    9.8042809   -455.63194   -445.82766    -11872.16    14480.961    18703.954   -68801.393      15.2149      13.1765      28.7324    5760.2466 
  103000      102.987    235.88447    9.8484189   -455.66113   -445.81272   -12476.514    13655.512    19449.625   -70534.678      15.2149      13.1765      28.7324    5760.2466 
  103500      103.487    231.20407    9.6530074   -455.45183   -445.79882   -11794.992    12377.476    24227.459   -71989.912      15.2149      13.1765      28.7324    5760.2466 
  104000      103.987    253.77812    10.595497   -456.38125   -445.78575   -12578.475    10481.998    22485.995   -70703.417      15.2149      13.1765      28.7324    5760.2466 
  104500      104.487    239.65373    10.005789   -455.77758   -445.77179     -12241.2    12119.316    20924.257   -69767.174      15.2149      13.1765      28.7324    5760.2466 
  105000      104.987    241.54846    10.084896     -455.843   -445.75811   -12228.051    13545.131     20768.01   -70997.295      15.2149      13.1765      28.7324    5760.2466 
  105500      105.487    219.57616    9.1675301   -454.91102   -445.74349   -11803.972    14035.239    18693.745     -68140.9      15.2149      13.1765      28.7324    5760.2466 
  106000      105.987    230.51846    9.6243824   -455.35395   -445.72957   -12125.641    11019.155    21625.242   -69021.321      15.2149      13.1765      28.7324    5760.2466 
  106500      106.487    223.60948    9.3359254   -455.05139   -445.71547   -12402.498    12260.763    19896.889   -69365.146      15.2149      13.1765      28.7324    5760.2466 
  107000      106.987     233.9032    9.7656987   -455.46771   -445.70202   -11937.915    12782.991    19734.309   -68331.046      15.2149      13.1765      28.7324    5760.2466 
  107500      107.487    232.31836    9.6995303    -455.3871   -445.68757   -13406.075    11096.431    20587.223    -71901.88      15.2149      13.1765      28.7324    5760.2466 
  108000      107.987    248.35041    10.368885   -456.04284   -445.67396   -12846.465    11814.742    19169.664   -69523.801      15.2149      13.1765      28.7324    5760.2466 
  108500      108.487    235.13752    9.8172328   -455.47682   -445.65959   -11586.226    12612.719    22028.233    -69399.63      15.2149      13.1765      28.7324    5760.2466 
  109000      108.987    244.73938    10.218121   -455.86316   -445.64504   -12295.211     13389.46    18140.476   -68415.569      15.2149      13.1765      28.7324    5760.2466 
  109500      109.487    242.70886    10.133344   -455.76397   -445.63063   -12824.174    11832.763    19089.582   -69394.868      15.2149      13.1765      28.7324    5760.2466 
  110000      109.987    245.72725    10.259365   -455.87598   -445.61661   -12215.607    12499.928    20596.334   -69743.082      15.2149      13.1765      28.7324    5760.2466 
  110500      110.487    231.77838    9.6769854   -455.27886   -445.60187    -12292.69    14270.654    21074.353   -72223.076      15.2149      13.1765      28.7324    5760.2466 
  111000      110.987     228.2649    9.5302942   -455.11778   -445.58748   -12136.685    14291.693    19187.177   -69888.926      15.2149      13.1765      28.7324    5760.2466 
  111500      111.487      229.842    9.5961397    -455.1698   -445.57366   -12831.542    13858.222    21593.904   -73946.751      15.2149      13.1765      28.7324    5760.2466 
  112000      111.987     228.0893    9.5229625   -455.08241   -445.55945   -11787.658    14161.652    22691.401   -72216.026      15.2149      13.1765      28.7324    5760.2466 
  112500      112.487    229.90679    9.5988446   -455.14327   -445.54443   -12725.333    12029.447    21991.344   -72196.789      15.2149      13.1765      28.7324    5760.2466 
  113000      112.987    234.53764    9.7921873   -455.32258   -445.53039   -12670.804    12322.748    19438.595   -69773.754      15.2149      13.1765      28.7324    5760.2466 
  113500      113.487    237.93769    9.9341428   -455.45024    -445.5161   -12767.896    12012.356    23214.221   -73530.266      15.2149      13.1765      28.7324    5760.2466 
  114000      113.987    236.81867    9.8874228   -455.38886   -445.50144   -12159.618    12309.234    20368.625   -69156.714      15.2149      13.1765      28.7324    5760.2466 
  114500      114.487    237.81638    9.9290779   -455.41584   -445.48676   -12079.691    12198.798    21459.155   -69897.025      15.2149      13.1765      28.7324    5760.2466 
  115000      114.987    243.13583    10.151171   -455.62321   -445.47204   -12595.638    12546.542    21890.841   -72224.299      15.2149      13.1765      28.7324    5760.2466 
  115500      115.487    237.63054    9.9213189   -455.37889   -445.45757   -12014.438    12894.353    21154.892   -70092.559      15.2149      13.1765      28.7324    5760.2466 
  116000      115.987     244.1215    10.192323   -455.63512    -445.4428   -13304.016    11922.602    20758.411   -72593.061      15.2149      13.1765      28.7324    5760.2466 
  116500      116.487    230.47963    9.6227614   -455.05017   -445.42741   -12803.156    13133.791    20248.016   -71791.275      15.2149      13.1765      28.7324    5760.2466 
  117000      116.987    242.90624    10.141585   -455.55416   -445.41258   -11927.445    12171.735    20065.306   -68019.375      15.2149      13.1765      28.7324    5760.2466 
  117500      117.487    243.25089    10.155974   -455.55365   -445.39768   -12168.254    14280.592    21022.557   -71807.911      15.2149      13.1765      28.7324    5760.2466 
  118000      117.987    246.71418     10.30057   -455.68374   -445.38317   -12271.146    11246.475    19499.212   -67559.126      15.2149      13.1765      28.7324    5760.2466 
  118500      118.487    255.05704    10.648893   -456.01778   -445.36889   -12481.395    13265.301    23158.295   -73867.781      15.2149      13.1765      28.7324    5760.2466 
  119000      118.987    246.01477    10.271369   -455.62427    -445.3529   -12458.285    13246.356    18559.804   -69181.014      15.2149      13.1765      28.7324    5760.2466 
  119500      119.487    236.57545    9.8772681   -455.21524   -445.33797    -11298.09    13250.293    23487.274   -70631.836      15.2149      13.1765      28.7324    5760.2466 
  120000      119.987    240.29085     10.03239   -455.35575   -445.32337   -12154.189    11969.138    20540.888   -68972.595      15.2149      13.1765      28.7324    5760.2466 
  120500      120.487    234.78114    9.8023538   -455.11072   -445.30837   -11520.432     13693.08    18451.676   -66706.053      15.2149      13.1765      28.7324    5760.2466 
  121000      120.987    244.71629    10.217156   -455.51045   -445.29329   -12401.798    13338.477    18842.042   -69385.913      15.2149      13.1765      28.7324    5760.2466 
  121500      121.487    229.37177    9.5765067   -454.85447   -445.27796   -12582.567    11279.986    21727.728   -70755.417      15.2149      13.1765      28.7324    5760.2466 
  122000      121.987    235.39142    9.8278334   -455.09075   -445.26291   -11732.101    12883.276    22180.729   -70260.307      15.2149      13.1765      28.7324    5760.2466 
  122500      122.487    240.76084    10.052012   -455.30007   -445.24805   -11890.542    13467.116    23059.927   -72198.671      15.2149      13.1765      28.7324    5760.2466 
  123000      122.987    234.07175    9.7727358   -455.00542   -445.23268   -11484.642    14004.273    22072.557   -70530.757      15.2149      13.1765      28.7324    5760.2466 
  123500      123.487    233.47426      9.74779   -454.96512   -445.21733    -12494.05    10445.135    23591.768   -71519.054      15.2149      13.1765      28.7324    5760.2466 
  124000      123.987    251.32559    10.493101   -455.69549   -445.20239   -12002.858    13667.734    20975.037   -70651.345      15.2149      13.1765      28.7324    5760.2466 
  124500      124.487    236.39759    9.8698421   -455.05666   -445.18682   -11664.656    12470.387    22713.455   -70177.809      15.2149      13.1765      28.7324    5760.2466 
  125000      124.987    234.14614    9.7758418   -454.94763   -445.17178   -12699.459    12451.096    22067.011   -72616.486      15.2149      13.1765      28.7324    5760.2466 
  125500      125.487     239.4956    9.9991873   -455.15554   -445.15635   -12606.272     13616.38    17676.817   -69112.012      15.2149      13.1765      28.7324    5760.2466 
  126000      125.987    233.26121     9.738895   -454.87972   -445.14083   -11514.943    13123.139    22020.822   -69688.789      15.2149      13.1765      28.7324    5760.2466 
  126500      126.487    243.04702    10.147463   -455.27304   -445.12557   -11734.641    13733.409    21544.553   -70481.885      15.2149      13.1765      28.7324    5760.2466 
  127000      126.987    233.04412    9.7298314   -454.83939   -445.10956   -11923.198    13038.354    21575.617   -70383.566      15.2149      13.1765      28.7324    5760.2466 
  127500      127.487    241.72312    10.092189   -455.18685   -445.09466   -12454.552    10894.455    21994.728   -70252.841      15.2149      13.1765      28.7324    5760.2466 
  128000      127.987    232.60081    9.7113227   -454.79072    -445.0794   -12533.231    12908.203    20718.721   -71226.616      15.2149      13.1765      28.7324    5760.2466 
  128500      128.487     250.3987    10.454403   -455.51904   -445.06463   -12442.855    13256.592    18530.882   -69116.038      15.2149      13.1765      28.7324    5760.2466 
  129000      128.987    237.56233    9.9184714   -454.96679   -445.04831   -12093.764    13899.765    19109.055   -69290.112      15.2149      13.1765      28.7324    5760.2466 
  129500      129.487    245.61575     10.25471   -455.28811    -445.0334   -12434.017    12445.889    19317.996   -69065.936      15.2149      13.1765      28.7324    5760.2466 
  130000      129.987    247.69719    10.341612   -455.35996   -445.01835   -12184.879     13267.78    20518.228   -70340.646      15.2149      13.1765      28.7324    5760.2466 
  130500      130.487    245.08435    10.232523   -455.23524   -445.00272   -11683.443    11746.888     21355.06   -68152.277      15.2149      13.1765      28.7324    5760.2466 
  131000      130.987    233.41886    9.7454769   -454.73281   -444.98733   -11653.367    12228.589    18735.311   -65924.001      15.2149      13.1765      28.7324    5760.2466 
  131500      131.487    241.85166    10.097555   -455.06932   -444.97176   -12240.897    14548.066    20374.537   -71645.294      15.2149      13.1765      28.7324    5760.2466 
  132000      131.987    251.09656    10.483539   -455.43979   -444.95625   -12328.992    16690.543    16863.657   -70541.178      15.2149      13.1765      28.7324    5760.2466 
  132500      132.487    241.16331    10.068816   -455.00937   -444.94056   -12012.413    12420.133     21682.41   -70139.781      15.2149      13.1765      28.7324    5760.2466 
  133000      132.987    240.50418    10.041297   -454.96625   -444.92495   -12371.953    15315.291    19363.076   -71794.227      15.2149      13.1765      28.7324    5760.2466 
  133500      133.487    246.25283    10.281308   -455.19048   -444.90917   -12110.426    13864.033    20073.116   -70268.427      15.2149      13.1765      28.7324    5760.2466 
  134000      133.987    250.17072    10.444884   -455.33889     -444.894   -11720.028    10201.658    20852.311   -66214.053      15.2149      13.1765      28.7324    5760.2466 
  134500      134.487    243.83003    10.180154    -455.0581   -444.87794   -12647.244    11411.342    17340.042   -66693.114      15.2149      13.1765      28.7324    5760.2466 
  135000      134.987     247.8866     10.34952   -455.21208   -444.86256   -12175.087    11384.996    22503.866   -70414.122      15.2149      13.1765      28.7324    5760.2466 
  135500      135.487     254.3541    10.619545    -455.4662   -444.84666   -12219.501    11477.979    20433.215   -68569.697      15.2149      13.1765      28.7324    5760.2466 
  136000      135.987    250.29666    10.450143   -455.28167   -444.83152   -11904.076    12084.845     19336.31   -67133.383      15.2149      13.1765      28.7324    5760.2466 
  136500      136.487    248.68889    10.383016   -455.19841   -444.81539   -11890.758    13657.914    21702.661   -71032.848      15.2149      13.1765      28.7324    5760.2466 
  137000      136.987     233.8986    9.7655068     -454.565   -444.79949   -10901.316    13842.127     21375.13   -67921.205      15.2149      13.1765      28.7324    5760.2466 
  137500      137.487    248.28163    10.366013   -455.14975   -444.78373   -11812.164    13500.985    21147.273   -70084.751      15.2149      13.1765      28.7324    5760.2466 
  138000      137.987    245.35619    10.243873   -455.01158    -444.7677   -11707.087    13992.719    19968.105   -69082.086      15.2149      13.1765      28.7324    5760.2466 
  138500      138.487    238.42535     9.954503   -454.70685   -444.75235   -10852.328    11900.105    23685.801    -68142.89      15.2149      13.1765      28.7324    5760.2466 
  139000      138.987    258.37675    10.787495    -455.5246   -444.73711   -11364.602    13530.158    21831.763   -69455.728      15.2149      13.1765      28.7324    5760.2466 
  139500      139.487    238.19958    9.9450772   -454.66648    -444.7214   -11673.506    13140.785    20990.458    -69151.76      15.2149      13.1765      28.7324    5760.2466 
  140000      139.987    254.28143    10.616511   -455.32151     -444.705    -12316.29    13107.189    21840.959   -71897.018      15.2149      13.1765      28.7324    5760.2466 
  140500      140.487    245.46292    10.248329   -454.93731   -444.68898   -11885.369    14174.043    24236.045   -74066.196      15.2149      13.1765      28.7324    5760.2466 
  141000      140.987    264.70725    11.051799   -455.72542   -444.67362   -12293.486    13694.105    21582.954   -72157.517      15.2149      13.1765      28.7324    5760.2466 
  141500      141.487    238.97792    9.9775734   -454.63499   -444.65742   -11920.697    13514.047    22913.897   -72190.035      15.2149      13.1765      28.7324    5760.2466 
  142000      141.987    240.89519    10.057622   -454.69891   -444.64129   -11897.927    13568.054     18907.36   -68169.194      15.2149      13.1765      28.7324    5760.2466 
  142500      142.487    249.84838    10.431427   -455.05641   -444.62498    -11972.34    14449.617    19697.292   -70063.929      15.2149      13.1765      28.7324    5760.2466 
  143000      142.987     247.6566    10.339917   -454.94977   -444.60985   -12231.195    14982.973    21192.627   -72869.185      15.2149      13.1765      28.7324    5760.2466 
  143500      143.487    250.42791    10.455623    -455.0494   -444.59378   -11577.486    14341.251    19487.047   -68560.757      15.2149      13.1765      28.7324    5760.2466 
  144000      143.987    241.47914    10.082002   -454.65935   -444.57735    -11990.44    14131.469    20792.187   -70894.975      15.2149      13.1765      28.7324    5760.2466 
  144500      144.487    238.13218    9.9422629     -454.503   -444.56074   -11707.246    14521.716    18743.024   -68386.478      15.2149      13.1765      28.7324    5760.2466 
  145000      144.987    253.37204    10.578543   -455.12375   -444.54521   -12114.183    12666.157    22960.659   -71969.366      15.2149      13.1765      28.7324    5760.2466 
  145500      145.487    244.83562    10.222139   -454.75108   -444.52894   -11758.267    12746.092    18719.987   -66740.879      15.2149      13.1765      28.7324    5760.2466 
  146000      145.987    252.28328    10.533086   -455.04629   -444.51321   -12395.572    12541.184    19298.263   -69026.164      15.2149      13.1765      28.7324    5760.2466 
  146500      146.487    248.37633    10.369967   -454.86744   -444.49748   -12477.373    12691.973    17970.129   -68094.222      15.2149      13.1765      28.7324    5760.2466 
  147000      146.987    248.70488    10.383684   -454.86528   -444.48159   -11578.495    13381.307    19744.586   -67861.378      15.2149      13.1765      28.7324    5760.2466 
  147500      147.487    244.73906    10.218107    -454.6837    -444.4656   -11874.675    13040.233    19185.914   -67850.171      15.2149      13.1765      28.7324    5760.2466 
  148000      147.987    251.27657    10.491055   -454.94098   -444.44992   -12244.477    11949.111    21916.402   -70598.944      15.2149      13.1765      28.7324    5760.2466 
  148500      148.487    246.37382     10.28636   -454.71968   -444.43332   -13469.502    14171.906    16853.761   -71434.173      15.2149      13.1765      28.7324    5760.2466 
  149000      148.987    261.02793    10.898184   -455.31533   -444.41715   -12126.877    13284.369    19863.451    -69528.45      15.2149      13.1765      28.7324    5760.2466 
  149500      149.487    255.93468    10.685536    -455.0865   -444.40096   -11129.536    13424.578    21595.335   -68408.522      15.2149      13.1765      28.7324    5760.2466 
  150000      149.987    254.69155    10.633634   -455.01908   -444.38545   -11024.394    12783.766    20888.608   -66745.554      15.2149      13.1765      28.7324    5760.2466 
  150500      150.487    254.45433     10.62373   -454.99239   -444.36866   -11683.437    14678.664     18914.63   -68643.606      15.2149      13.1765      28.7324    5760.2466 
  151000      150.987    258.16396     10.77861   -455.13145   -444.35284   -11427.657     14301.86    21957.472   -70542.302      15.2149      13.1765      28.7324    5760.2466 
  151500      151.487    257.32826    10.743719   -455.08053   -444.33681   -12272.698    14094.868     20414.77   -71327.734      15.2149      13.1765      28.7324    5760.2466 
  152000      151.987    261.37776     10.91279    -455.2334   -444.32061    -12357.32    12806.879    19077.212   -68956.051      15.2149      13.1765      28.7324    5760.2466 
  152500      152.487    248.47942    10.374271   -454.67817    -444.3039   -12665.876    12901.807    21149.733   -72049.169      15.2149      13.1765      28.7324    5760.2466 
  153000      152.987    243.03599    10.147002   -454.43492   -444.28792   -11526.708    14277.258    17206.277   -66063.661      15.2149      13.1765      28.7324    5760.2466 
  153500      153.487    242.21293    10.112638   -454.38383   -444.27119   -11459.127    12434.458    20124.544   -66936.382      15.2149      13.1765      28.7324    5760.2466 
  154000      153.987    263.58815    11.005076   -455.26004   -444.25497   -11528.691     14301.01    21898.905    -70785.99      15.2149      13.1765      28.7324    5760.2466 
  154500      154.487    250.40228    10.454552   -454.69299   -444.23844   -11379.475    14365.524    19188.755   -67692.705      15.2149      13.1765      28.7324    5760.2466 
  155000      154.987    244.37154    10.202763   -454.42459   -444.22182   -11337.406    14594.625    22951.267    -71558.11      15.2149      13.1765      28.7324    5760.2466 
  155500      155.487    255.19006    10.654447   -454.85996   -444.20552    -11945.41    12602.495    21277.435   -69716.159      15.2149      13.1765      28.7324    5760.2466 
  156000      155.987    238.63181    9.9631232   -454.15193    -444.1888   -10718.688    12518.872    20716.924   -65391.861      15.2149      13.1765      28.7324    5760.2466 
  156500      156.487    246.60949      10.2962   -454.46903   -444.17283   -12029.151    14672.783    20294.055    -71054.29      15.2149      13.1765      28.7324    5760.2466 
  157000      156.987    248.08685    10.357881    -454.5143   -444.15642     -11252.2    14755.528    21807.052   -70319.181      15.2149      13.1765      28.7324    5760.2466 
  157500      157.487    239.47088    9.9981552   -454.13814   -444.13999   -11447.428    13806.615    22142.498   -70291.396      15.2149      13.1765      28.7324    5760.2466 
  158000      157.987    262.91669    10.977042   -455.10101   -444.12397   -11233.522    13334.958    23414.324   -70449.849      15.2149      13.1765      28.7324    5760.2466 
  158500      158.487    260.42577    10.873043   -454.98034    -444.1073   -10762.941    15450.174     23259.01   -70998.008      15.2149      13.1765      28.7324    5760.2466 
  159000      158.987    266.96426    11.146032   -455.23726   -444.09123   -11646.131    16275.679    21050.617   -72264.689      15.2149      13.1765      28.7324    5760.2466 
  159500      159.487    259.96368    10.853751   -454.92823   -444.07448    -11827.28    12259.404    20935.945   -68677.187      15.2149      13.1765      28.7324    5760.2466 
  160000      159.987    257.53727    10.752445      -454.81   -444.05756   -12504.798    12837.253    18872.305   -69223.951      15.2149      13.1765      28.7324    5760.2466 
  160500      160.487    246.05255    10.272946   -454.31417   -444.04123   -11319.595    15492.133    19069.005   -68519.924      15.2149      13.1765      28.7324    5760.2466 
  161000      160.987    263.57232    11.004415   -455.02935   -444.02493   -12417.109    11851.847    21956.468   -71059.643      15.2149      13.1765      28.7324    5760.2466 
  161500      161.487    264.12164     11.02735   -455.03512   -444.00777   -12865.844    13843.697    20343.565   -72784.793      15.2149      13.1765      28.7324    5760.2466 
  162000      161.987    249.90483    10.433783   -454.42546   -443.99167   -11833.509    13386.572    21371.793   -70258.893      15.2149      13.1765      28.7324    5760.2466 
  162500      162.487    264.16911    11.029331   -455.00412   -443.97479   -12402.343    12521.802    21986.971   -71715.802      15.2149      13.1765      28.7324    5760.2466 
  163000      162.987    255.26979    10.657776   -454.61595   -443.95818   -10735.592    13904.897    21730.227   -67841.899      15.2149      13.1765      28.7324    5760.2466 
  163500      163.487    261.66151    10.924637   -454.86596   -443.94133   -11339.705    14759.909     20851.03   -69630.054      15.2149      13.1765      28.7324    5760.2466 
  164000      163.987    251.92186    10.517996   -454.44311   -443.92511   -11428.083    13993.598    20415.023   -68692.871      15.2149      13.1765      28.7324    5760.2466 
  164500      164.487    264.18059    11.029811   -454.93836   -443.90855   -11546.096    12524.978    24415.333   -71578.598      15.2149      13.1765      28.7324    5760.2466 
  165000      164.987    265.43007    11.081978   -454.97364   -443.89166   -11009.785    13712.177    19395.757    -66137.29      15.2149      13.1765      28.7324    5760.2466 
  165500      165.487    236.11357     9.857984   -453.73318    -443.8752   -11646.685    11385.949    23673.818   -69999.822      15.2149      13.1765      28.7324    5760.2466 
  166000      165.987     259.8488    10.848954    -454.7074   -443.85845   -12143.383    13850.748    22640.791   -72921.687      15.2149      13.1765      28.7324    5760.2466 
  166500      166.487    256.34678    10.702741   -454.54422   -443.84148   -10713.459    14188.524    22728.037   -69056.938      15.2149      13.1765      28.7324    5760.2466 
  167000      166.987    266.99125    11.147159   -454.97228   -443.82512   -11270.135    13120.812     21134.91   -68066.128      15.2149      13.1765      28.7324    5760.2466 
  167500      167.487    256.91959    10.726657   -454.53463   -443.80798   -11803.163    12760.957    21665.653   -69836.099      15.2149      13.1765      28.7324    5760.2466 
  168000      167.987    261.03971    10.898676   -454.69039   -443.79171   -12901.803    12325.607    19581.284   -70612.301      15.2149      13.1765      28.7324    5760.2466 
  168500      168.487     267.1941    11.155628   -454.93033    -443.7747   -11770.127    14032.456    21768.734   -71111.571      15.2149      13.1765      28.7324    5760.2466 
  169000      168.987    260.77734    10.887722   -454.64517   -443.75745   -10531.532    15015.003    21485.875   -68095.475      15.2149      13.1765      28.7324    5760.2466 
  169500      169.487     263.3986    10.997162   -454.73802   -443.74086   -11476.168    13369.959    18979.767   -66778.229      15.2149      13.1765      28.7324    5760.2466 
  170000      169.987    259.44633    10.832151     -454.556   -443.72385   -11239.895     13107.21    21200.576   -68027.471      15.2149      13.1765      28.7324    5760.2466 
  170500      170.487     269.0328    11.232396    -454.9403   -443.70791   -11238.483    12854.825    21246.576   -67816.851      15.2149      13.1765      28.7324    5760.2466 
  171000      170.987    258.17205    10.778948   -454.46934    -443.6904   -11423.961    11230.545    22763.659   -68266.086      15.2149      13.1765      28.7324    5760.2466 
  171500      171.487    263.16921    10.987585   -454.66112   -443.67354   -11260.031    14133.751    21448.419   -69362.265      15.2149      13.1765      28.7324    5760.2466 
  172000      171.987    255.43866    10.664826   -454.32138   -443.65656   -11055.443    11515.833     22528.87   -67211.031      15.2149      13.1765      28.7324    5760.2466 
  172500      172.487    259.71852    10.843515   -454.48224   -443.63872    -10713.02    11834.778    21436.411   -65410.248      15.2149      13.1765      28.7324    5760.2466 
  173000      172.987    266.78643    11.138607   -454.76108   -443.62248   -10336.168    14983.055    21114.355   -67105.914      15.2149      13.1765      28.7324    5760.2466 
  173500      173.487    270.90686    11.310639   -454.91614    -443.6055    -10857.57    14992.652    21526.823   -69092.186      15.2149      13.1765      28.7324    5760.2466 
  174000      173.987    247.78939    10.345461   -453.93364   -443.58818   -11279.764    13910.323    22118.183   -69867.799      15.2149      13.1765      28.7324    5760.2466 
  174500      174.487    259.35146     10.82819   -454.39967   -443.57148   -11576.906    13063.081    22166.636   -69960.434      15.2149      13.1765      28.7324    5760.2466 
  175000      174.987     266.0948    11.109731   -454.66445   -443.55472   -11520.157    11637.965    21907.445   -68105.881      15.2149      13.1765      28.7324    5760.2466 
  175500      175.487    256.57221    10.712153   -454.24991   -443.53776    -11240.19    12780.502    24478.101   -70979.173      15.2149      13.1765      28.7324    5760.2466 
  176000      175.987     262.7985    10.972107   -454.49259   -443.52048   -10896.561    14615.786    20799.848   -68105.317      15.2149      13.1765      28.7324    5760.2466 
  176500      176.487    275.11246    11.486228   -454.99044   -443.50421   -10979.923    13868.136    23609.203   -70417.107      15.2149      13.1765      28.7324    5760.2466 
  177000      176.987    258.03991    10.773431   -454.25972   -443.48629   -10289.416    13346.947    22856.964   -67072.159      15.2149      13.1765      28.7324    5760.2466 
  177500      177.487    263.03945    10.982167   -454.45091   -443.46874   -12136.125    11276.778    21338.665   -69023.818      15.2149      13.1765      28.7324    5760.2466 
  178000      177.987    246.79382    10.303895   -453.75547   -443.45157   -11944.402    13497.247    19890.069   -69220.521      15.2149      13.1765      28.7324    5760.2466 
  178500      178.487    264.28419    11.034136   -454.46895   -443.43481   -11938.205    13575.704    18245.368   -67635.686      15.2149      13.1765      28.7324    5760.2466 
  179000      178.987    271.09473    11.318483   -454.73681   -443.41833    -12578.45    11979.273    19316.363   -69030.985      15.2149      13.1765      28.7324    5760.2466 
  179500      179.487    262.61918     10.96462   -454.36528   -443.40066   -12122.788    13585.413     19979.71   -69933.487      15.2149      13.1765      28.7324    5760.2466 
  180000      179.987     263.5085    11.001751   -454.38524   -443.38349   -11888.697    12364.157    22808.903    -70839.15      15.2149      13.1765      28.7324    5760.2466 
  180500      180.487     247.6957     10.34155   -453.70768   -443.36613   -11771.721    13054.881    19762.076   -68132.122      15.2149      13.1765      28.7324    5760.2466 
  181000      180.987    277.72702    11.595388   -454.94493   -443.34954    -11044.48    11607.834    20043.034   -64784.307      15.2149      13.1765      28.7324    5760.2466 
  181500      181.487    255.93006    10.685343   -454.01784   -443.33249   -10985.089    13600.838    22240.766   -68796.872      15.2149      13.1765      28.7324    5760.2466 
  182000      181.987    266.02987     11.10702   -454.42194   -443.31492   -10883.918    11739.347     22212.75   -66603.852      15.2149      13.1765      28.7324    5760.2466 
  182500      182.487    237.29383    9.9072611   -453.20421   -443.29695   -11712.939    13924.833    19600.021   -68663.671      15.2149      13.1765      28.7324    5760.2466 
  183000      182.987    265.69438    11.093013   -454.37348   -443.28047   -11530.778     13571.28    21912.519   -70076.131      15.2149      13.1765      28.7324    5760.2466 
  183500      183.487    266.79889    11.139128   -454.40211   -443.26298   -11402.277      15630.8    18922.179   -68759.809      15.2149      13.1765      28.7324    5760.2466 
  184000      183.987    264.54583     11.04506   -454.29077   -443.24571   -11439.821    11309.114    20538.657   -66167.235      15.2149      13.1765      28.7324    5760.2466 
  184500      184.487    266.36216    11.120894   -454.34944   -443.22855   -10552.885    17222.506    21769.248   -70650.408      15.2149      13.1765      28.7324    5760.2466 
  185000      184.987    278.91339    11.644921   -454.85591   -443.21099   -10396.887    14461.562    21879.207   -67531.431      15.2149      13.1765      28.7324    5760.2466 
  185500      185.487    263.04536    10.982414   -454.17552    -443.1931     -11021.2    13451.244    23225.319   -69740.164      15.2149      13.1765      28.7324    5760.2466 
  186000      185.987    271.70005    11.343756   -454.52003   -443.17627   -11926.165    14370.765    19809.502   -69958.763      15.2149      13.1765      28.7324    5760.2466 
  186500      186.487    260.46481    10.874673   -454.03355   -443.15887   -11075.706    16364.678    19650.931   -69242.725      15.2149      13.1765      28.7324    5760.2466 
  187000      186.987    248.98295    10.395294   -453.53671   -443.14142   -10887.983    15798.511    21584.751   -70047.211      15.2149      13.1765      28.7324    5760.2466 
  187500      187.487    258.69758     10.80089   -453.92459    -443.1237   -11323.351    13531.583    21596.685   -69098.319      15.2149      13.1765      28.7324    5760.2466 
  188000      187.987    269.81128    11.264898   -454.37119   -443.10629   -11968.252    11076.365    22871.087   -69852.207      15.2149      13.1765      28.7324    5760.2466 
  188500      188.487    281.69892    11.761219   -454.85074   -443.08952   -12193.319    13650.018    19581.105    -69811.08      15.2149      13.1765      28.7324    5760.2466 
  189000      188.987    256.04626    10.690194   -453.76247   -443.07228   -11201.976    11616.757    23075.645    -68298.33      15.2149      13.1765      28.7324    5760.2466 
  189500      189.487    276.85431    11.558952   -454.61333   -443.05438   -10268.969    13385.561    23593.809   -67786.276      15.2149      13.1765      28.7324    5760.2466 
  190000      189.987    274.37409      11.4554   -454.49265   -443.03725    -11562.33    12100.435    21684.062   -68471.486      15.2149      13.1765      28.7324    5760.2466 
  190500      190.487    265.65209    11.091248   -454.11152   -443.02027    -10647.54    13184.938    23098.594   -68226.151      15.2149      13.1765      28.7324    5760.2466 
  191000      190.987    270.22478    11.282162   -454.28435   -443.00219   -11683.322    14079.368    18056.111   -67185.444      15.2149      13.1765      28.7324    5760.2466 
  191500      191.487    271.90066    11.352132   -454.33694   -442.98481   -11236.981    14418.625    17222.775   -65352.342      15.2149      13.1765      28.7324    5760.2466 
  192000      191.987    272.03649    11.357803   -454.32506   -442.96725   -11149.757    12888.794    21369.469   -67707.534      15.2149      13.1765      28.7324    5760.2466 
  192500      192.487     262.9159    10.977009   -453.92628   -442.94928   -10853.178    12892.015     17571.95     -63023.5      15.2149      13.1765      28.7324    5760.2466 
  193000      192.987    281.15355     11.73845   -454.67055    -442.9321   -10672.603    14666.154    18999.611   -65683.573      15.2149      13.1765      28.7324    5760.2466 
  193500      193.487    259.08589    10.817102   -453.73099   -442.91388   -8883.5716     17386.06    21189.101   -65225.876      15.2149      13.1765      28.7324    5760.2466 
  194000      193.987    268.43892    11.207601   -454.10441   -442.89681   -10739.305    14082.447    21582.242   -67882.606      15.2149      13.1765      28.7324    5760.2466 
  194500      194.487    268.12414    11.194458   -454.07329   -442.87883   -11116.102    13718.597    22253.897   -69320.799      15.2149      13.1765      28.7324    5760.2466 
  195000      194.987    267.93271    11.186466   -454.04803   -442.86156   -10798.586    13900.174    20067.655   -66363.587      15.2149      13.1765      28.7324    5760.2466 
  195500      195.487    262.06629    10.941537   -453.78563   -442.84409   -11984.734     14134.36    18640.813   -68729.375      15.2149      13.1765      28.7324    5760.2466 
  196000      195.987    264.53301    11.044525   -453.87082    -442.8263   -11558.468    13257.023     21284.02   -69216.447      15.2149      13.1765      28.7324    5760.2466 
  196500      196.487    255.59078    10.671177   -453.48003   -442.80885    -9926.376    15410.939    24599.179   -69789.246      15.2149      13.1765      28.7324    5760.2466 
  197000      196.987    288.40635    12.041261   -454.83299   -442.79172   -10971.877    14017.708    21269.367   -68202.706      15.2149      13.1765      28.7324    5760.2466 
  197500      197.487    273.62584     11.42416   -454.19819   -442.77403   -11166.187    10870.747    18250.481    -62619.79      15.2149      13.1765      28.7324    5760.2466 
  198000      197.987    259.81365    10.847487   -453.60364   -442.75615   -9814.3493    13701.575    21287.359   -64431.981      15.2149      13.1765      28.7324    5760.2466 
  198500      198.487    260.44121    10.873688   -453.61212   -442.73843   -11332.937    12490.177    21279.118   -67768.105      15.2149      13.1765      28.7324    5760.2466 
  199000      198.987    267.98028    11.188452   -453.90897   -442.72052   -9904.7869    15295.449    21131.568   -66141.378      15.2149      13.1765      28.7324    5760.2466 
  199500      199.487    268.18947    11.197186   -453.89986   -442.70267    -11081.14    12446.745     22212.87   -67903.034      15.2149      13.1765      28.7324    5760.2466 
  200000      199.987    267.23943    11.157521    -453.8425   -442.68498   -10400.741    13172.861     21913.24   -66288.324      15.2149      13.1765      28.7324    5760.2466 
  200500      200.487    263.49127    11.001031   -453.66864    -442.6676   -10432.277    13384.961    20978.513   -65660.304      15.2149      13.1765      28.7324    5760.2466 
  201000      200.987    272.37593    11.371975   -454.02187   -442.64989   -10505.377     16336.79    20325.653   -68178.573      15.2149      13.1765      28.7324    5760.2466 
  201500      201.487    265.41307    11.081268   -453.71279   -442.63152   -10125.804    13172.141    22284.242   -65833.793      15.2149      13.1765      28.7324    5760.2466 
  202000      201.987    264.00044    11.022289   -453.63616   -442.61387   -10246.618    14970.172    22249.459   -67959.486      15.2149      13.1765      28.7324    5760.2466 
  202500      202.487    280.05983    11.692786   -454.28891   -442.59612   -10695.961    14488.464    21530.631   -68106.978      15.2149      13.1765      28.7324    5760.2466 
  203000      202.987    259.61081    10.839018   -453.41714   -442.57812   -9765.1565     12919.28    22075.262   -64290.012      15.2149      13.1765      28.7324    5760.2466 
  203500      203.487    267.41901    11.165018   -453.72521    -442.5602   -10485.555    13150.015    20386.533   -64993.212      15.2149      13.1765      28.7324    5760.2466 
  204000      203.987    264.51444    11.043749   -453.58609   -442.54234   -10925.497     15233.48    20754.007   -68763.977      15.2149      13.1765      28.7324    5760.2466 
  204500      204.487    274.23692    11.449673   -453.97425   -442.52457   -11125.317      14446.1    18855.876   -66677.927      15.2149      13.1765      28.7324    5760.2466 
  205000      204.987    284.66208    11.884934   -454.39222   -442.50729   -10905.064    13905.167    20050.732   -66671.091      15.2149      13.1765      28.7324    5760.2466 
  205500      205.487    256.49982    10.709131   -453.19758   -442.48845   -9260.7451    17021.925     23801.43    -68605.59      15.2149      13.1765      28.7324    5760.2466 
  206000      205.987    272.30928    11.369192    -453.8403   -442.47111    -10943.29    14133.293    22576.462   -69539.624      15.2149      13.1765      28.7324    5760.2466 
  206500      206.487    268.18466    11.196985    -453.6501   -442.45311   -10705.222    11990.588    22270.335   -66376.589      15.2149      13.1765      28.7324    5760.2466 
  207000      206.987    263.16405    10.987369   -453.42267    -442.4353   -10391.724    15568.643    21250.384   -67994.199      15.2149      13.1765      28.7324    5760.2466 
  207500      207.487    272.60542    11.381556    -453.7989   -442.41735   -10331.234    16822.662    22897.654   -70714.018      15.2149      13.1765      28.7324    5760.2466 
  208000      207.987    283.94517    11.855002   -454.25499   -442.39999   -11543.769     13248.41    21174.865   -69054.583      15.2149      13.1765      28.7324    5760.2466 
  208500      208.487    288.13144    12.029784   -454.41199    -442.3822   -11182.677    12840.935    22662.856   -69051.821      15.2149      13.1765      28.7324    5760.2466 
  209000      208.987    276.75369    11.554751   -453.91839   -442.36363   -11606.909    12236.974    21100.453   -68158.155      15.2149      13.1765      28.7324    5760.2466 
  209500      209.487    280.07654    11.693483   -454.03943   -442.34595   -11318.206    14163.582    19723.644   -67841.843      15.2149      13.1765      28.7324    5760.2466 
  210000      209.987     284.2741    11.868736   -454.19599   -442.32726   -10606.332    12306.383    21793.704   -65919.084      15.2149      13.1765      28.7324    5760.2466 
  210500      210.487    275.95023    11.521205   -453.83059   -442.30939   -10943.493    11937.474    22363.311   -67131.264      15.2149      13.1765      28.7324    5760.2466 
  211000      210.987    287.04853    11.984571   -454.27606   -442.29149   -10960.068    12524.563    21610.641   -67015.407      15.2149      13.1765      28.7324    5760.2466 
  211500      211.487    287.40155     11.99931   -454.27268   -442.27337   -11646.401    14247.085    21642.126   -70828.414      15.2149      13.1765      28.7324    5760.2466 
  212000      211.987    270.70734    11.302309   -453.55752   -442.25521   -10174.037    14441.418    22670.262   -67633.793      15.2149      13.1765      28.7324    5760.2466 
[...]
  948500      948.487    364.63337    15.223818   -449.75864   -434.53482    -6301.505     17464.89    29381.479   -65750.885      15.2149      13.1765      28.7324    5760.2466 
  949000      948.987    366.04236    15.282644   -449.81607   -434.53343   -6555.1053    18038.235    24211.235   -61914.786      15.2149      13.1765      28.7324    5760.2466 
  949500      949.487    367.32441    15.336171   -449.86784   -434.53167   -7292.7961    18735.263    27699.047   -68312.698      15.2149      13.1765      28.7324    5760.2466 
  950000      949.987    395.79291    16.524761   -451.05527   -434.53051   -8500.0042    16805.112    26183.598   -68488.722      15.2149      13.1765      28.7324    5760.2466 
  950500      950.487    380.90241    15.903067   -450.43171   -434.52864   -8119.1771    15843.944    26002.487   -66203.962      15.2149      13.1765      28.7324    5760.2466 
  951000      950.987    358.04944    14.948932   -449.47463    -434.5257   -6213.3653    17914.021    24141.115   -60695.233      15.2149      13.1765      28.7324    5760.2466 
  951500      951.487    392.38854    16.382624   -450.90585   -434.52323   -9467.2052    14501.132    20800.493   -63703.241      15.2149      13.1765      28.7324    5760.2466 
  952000      951.987     382.6924    15.977801   -450.50025   -434.52245   -8383.3829     14456.09    24097.922   -63704.162      15.2149      13.1765      28.7324    5760.2466 
  952500      952.487    356.94098    14.902652   -449.42263   -434.51998   -6220.3427    24077.095    22855.953   -65594.077      15.2149      13.1765      28.7324    5760.2466 
  953000      952.987    378.80358    15.815439   -450.33418   -434.51874   -7993.4752    18734.106    20702.298    -63416.83      15.2149      13.1765      28.7324    5760.2466 
  953500      953.487    361.69756    15.101244     -449.617   -434.51576   -7541.3178    15112.565     28988.84   -66725.359      15.2149      13.1765      28.7324    5760.2466 
  954000      953.987    385.57299    16.098068   -450.61317    -434.5151   -8001.8816    18424.816    24192.558   -66623.018      15.2149      13.1765      28.7324    5760.2466 
  954500      954.487    371.26139    15.500544   -450.01285    -434.5123   -7784.2894     16101.92    23641.843   -63096.631      15.2149      13.1765      28.7324    5760.2466 
  955000      954.987    350.16525    14.619759   -449.13034   -434.51058   -7398.3262    19244.631    25714.018   -67153.628      15.2149      13.1765      28.7324    5760.2466 
  955500      955.487    387.51713    16.179238   -450.68819   -434.50895   -7960.0547    17304.366    26528.394   -67712.924      15.2149      13.1765      28.7324    5760.2466 
  956000      955.987    372.13328    15.536947   -450.04342   -434.50647   -7436.9189    16391.183    27694.014   -66395.954      15.2149      13.1765      28.7324    5760.2466 
  956500      956.487    361.82319     15.10649   -449.60999    -434.5035   -8166.7703    17349.087    26548.725   -68398.122      15.2149      13.1765      28.7324    5760.2466 
  957000      956.987    362.14519    15.119934    -449.6213   -434.50137   -7879.8634    18543.432    27926.275   -70109.297      15.2149      13.1765      28.7324    5760.2466 
  957500      957.487    400.18939    16.708318    -451.2078   -434.49948   -7042.2799    19250.135    27263.613   -67640.588      15.2149      13.1765      28.7324    5760.2466 
  958000      957.987    383.92456    16.029245   -450.52641   -434.49717   -8176.6094    17929.592    29289.367   -71748.787      15.2149      13.1765      28.7324    5760.2466 
  958500      958.487    351.22244    14.663898   -449.15797   -434.49408   -6563.1189     22367.34    25675.145   -67731.842      15.2149      13.1765      28.7324    5760.2466 
  959000      958.987     347.4308    14.505593   -448.99701   -434.49142   -7313.9769    16245.064    29454.349   -67641.343      15.2149      13.1765      28.7324    5760.2466 
  959500      959.487    360.59465    15.055197   -449.54451   -434.48931   -6811.3236     21893.58    21535.557   -63863.108      15.2149      13.1765      28.7324    5760.2466 
  960000      959.987    359.36873    15.004014     -449.491   -434.48699   -9273.7238    17124.608     25977.65    -70923.43      15.2149      13.1765      28.7324    5760.2466 
  960500      960.487    360.52133    15.052136   -449.53586   -434.48373   -8350.3009    18136.651    22440.583   -65628.137      15.2149      13.1765      28.7324    5760.2466 
  961000      960.987    369.19083    15.414096   -449.89592   -434.48183   -7641.9022    16763.308    26717.154   -66406.169      15.2149      13.1765      28.7324    5760.2466 
  961500      961.487    384.53674    16.054804   -450.53376   -434.47896   -8340.0288    15232.437    25326.082   -65578.606      15.2149      13.1765      28.7324    5760.2466 
  962000      961.987    372.31456    15.544515   -450.02068   -434.47616   -9154.8388    16618.086     22501.73   -66584.333      15.2149      13.1765      28.7324    5760.2466 
  962500      962.487    366.83837    15.315879   -449.78839   -434.47251   -8320.6848    17329.814    24444.448   -66736.316      15.2149      13.1765      28.7324    5760.2466 
  963000      962.987      363.165    15.162512   -449.63381    -434.4713   -8898.0388    16406.977    24358.095   -67459.189      15.2149      13.1765      28.7324    5760.2466 
  963500      963.487     356.4737    14.883143    -449.3508   -434.46766   -7171.0277    17095.877    28054.115   -66663.075      15.2149      13.1765      28.7324    5760.2466 
  964000      963.987    373.91738    15.611434   -450.07621   -434.46477   -7884.4329    20570.978    24837.183   -69061.459      15.2149      13.1765      28.7324    5760.2466 
  964500      964.487    369.99315    15.447594   -449.90923   -434.46164   -6536.2823     17812.47    26444.793    -63866.11      15.2149      13.1765      28.7324    5760.2466 
  965000      964.987     388.7618    16.231204   -450.69078   -434.45958   -9156.1506    13364.214    21754.075    -62586.74      15.2149      13.1765      28.7324    5760.2466 
  965500      965.487    367.25238    15.333164   -449.78891   -434.45574   -8736.1526    17266.501    23105.701    -66580.66      15.2149      13.1765      28.7324    5760.2466 
  966000      965.987    351.63699    14.681205   -449.13355   -434.45234   -7830.0034    20957.972    26439.443   -70887.425      15.2149      13.1765      28.7324    5760.2466 
  966500      966.487    390.21115    16.291716    -450.7414   -434.44968   -7773.4771    19522.698    25817.683   -68660.813      15.2149      13.1765      28.7324    5760.2466 
  967000      966.987    379.13923    15.829452   -450.27617   -434.44672   -7142.7364    19524.543    25943.342   -66896.094      15.2149      13.1765      28.7324    5760.2466 
  967500      967.487     360.3974    15.046961   -449.49088   -434.44392   -8517.2788    19070.191    23805.863    -68427.89      15.2149      13.1765      28.7324    5760.2466 
  968000      967.987    374.74611    15.646035   -450.08644   -434.44041   -8053.8818    16698.297    25530.273   -66390.216      15.2149      13.1765      28.7324    5760.2466 
  968500      968.487    357.79436    14.938282   -449.37455   -434.43627   -7516.6726    18986.435    24968.418    -66504.87      15.2149      13.1765      28.7324    5760.2466 
  969000      968.987    368.54647    15.387194    -449.8206    -434.4334   -7527.9123    16897.249    24920.941   -64401.926      15.2149      13.1765      28.7324    5760.2466 
  969500      969.487    370.72994    15.478356   -449.90765    -434.4293   -7128.7707    17286.793    27868.861   -66541.966      15.2149      13.1765      28.7324    5760.2466 
  970000      969.987    361.82336    15.106497   -449.53208   -434.42558   -7045.0778    20505.521    27079.923   -68720.677      15.2149      13.1765      28.7324    5760.2466 
  970500      970.487    378.98709      15.8231   -450.24599   -434.42289   -8768.9181    15875.213    23799.265   -65981.233      15.2149      13.1765      28.7324    5760.2466 
  971000      970.987    373.19825     15.58141   -450.00089   -434.41948   -6951.2645    17534.866    24544.873   -62933.532      15.2149      13.1765      28.7324    5760.2466 
  971500      971.487    381.54664    15.929964   -450.34617   -434.41621   -9078.0484     14746.81    26329.584   -68310.539      15.2149      13.1765      28.7324    5760.2466 
  972000      971.987    384.51661    16.053963   -450.46573   -434.41176   -8337.4798    16052.329    24569.018   -65633.786      15.2149      13.1765      28.7324    5760.2466 
  972500      972.487    359.33721    15.002697    -449.4101    -434.4074   -6633.4903    18386.349    24925.997   -63212.817      15.2149      13.1765      28.7324    5760.2466 
  973000      972.987    376.27227    15.709754   -450.11363   -434.40388   -7919.2991    14143.675    25371.836   -63273.408      15.2149      13.1765      28.7324    5760.2466 
  973500      973.487    371.23723    15.499536   -449.89987   -434.40034   -7845.2871    16414.705    27092.291   -67042.858      15.2149      13.1765      28.7324    5760.2466 
  974000      973.987    378.02411    15.782895   -450.17994   -434.39705   -7914.8301    17634.736    25794.653   -67173.879      15.2149      13.1765      28.7324    5760.2466 
  974500      974.487      380.983    15.906432   -450.29933    -434.3929   -8505.2361    18108.917    22214.281   -65838.906      15.2149      13.1765      28.7324    5760.2466 
  975000      974.987    374.29939    15.627384   -450.01654   -434.38916   -6729.3671    14601.651    25230.312   -60020.064      15.2149      13.1765      28.7324    5760.2466 
  975500      975.487    390.56826    16.306626   -450.69163   -434.38501   -7021.9467    14262.046    25531.823   -60859.708      15.2149      13.1765      28.7324    5760.2466 
  976000      975.987    364.61404    15.223011   -449.60352   -434.38051   -7303.6228    19192.428    25075.203   -66178.499      15.2149      13.1765      28.7324    5760.2466 
  976500      976.487    371.26858    15.500844   -449.87806   -434.37722   -6939.9424    14879.141    28884.654   -64583.622      15.2149      13.1765      28.7324    5760.2466 
  977000      976.987    363.41074    15.172772   -449.54487    -434.3721   -6789.8045    16293.751    25054.093   -61717.257      15.2149      13.1765      28.7324    5760.2466 
  977500      977.487    364.65587    15.224757    -449.5935   -434.36875   -6691.9355    17445.083    27732.216   -65253.105      15.2149      13.1765      28.7324    5760.2466 
  978000      977.987    385.64824     16.10121   -450.46793   -434.36672   -8150.3809    14333.609    24202.901   -62987.653      15.2149      13.1765      28.7324    5760.2466 
  978500      978.487    363.64267    15.182455   -449.54455    -434.3621   -6830.9789    19301.466    24736.066   -64530.468      15.2149      13.1765      28.7324    5760.2466 
  979000      978.987     360.0942    15.034303   -449.39152   -434.35722   -5500.8972    19255.322    26827.379   -62585.392      15.2149      13.1765      28.7324    5760.2466 
  979500      979.487    375.79138    15.689676   -450.04254   -434.35286   -6892.3274    17963.844    26439.896   -65080.722      15.2149      13.1765      28.7324    5760.2466 
  980000      979.987    369.73144    15.436667   -449.78501   -434.34834   -6351.0685    18127.483    23258.307   -60438.996      15.2149      13.1765      28.7324    5760.2466 
  980500      980.487    390.83391    16.317717   -450.66187   -434.34415   -7723.7102    16635.097    21075.249   -60881.477      15.2149      13.1765      28.7324    5760.2466 
  981000      980.987    376.01553    15.699035    -450.0396   -434.34056   -8315.5951    14213.656    21686.088   -60846.529      15.2149      13.1765      28.7324    5760.2466 
  981500      981.487    380.36034    15.880435   -450.21603   -434.33559   -7554.5482    16284.993    25780.785   -64729.423      15.2149      13.1765      28.7324    5760.2466 
  982000      981.987    378.18105    15.789447   -450.12165   -434.33221   -8783.4278    15237.492    26136.759   -67724.535      15.2149      13.1765      28.7324    5760.2466 
  982500      982.487    374.65481    15.642223   -449.97022     -434.328   -6804.8128    15764.101    26201.186   -62379.725      15.2149      13.1765      28.7324    5760.2466 
  983000      982.987    368.21236    15.373244   -449.69682   -434.32358   -8531.6788    13896.037    26345.568   -65836.641      15.2149      13.1765      28.7324    5760.2466 
  983500      983.487    370.45801    15.467002   -449.78612   -434.31912    -7092.125    17063.015    26134.539   -64473.929      15.2149      13.1765      28.7324    5760.2466 
  984000      983.987    354.24314    14.790015   -449.10419   -434.31417   -7457.4206    13551.975    27923.669   -63847.906      15.2149      13.1765      28.7324    5760.2466 
  984500      984.487    376.99834    15.740068   -450.05029   -434.31023   -7929.6113    16090.141    25489.882   -65368.857      15.2149      13.1765      28.7324    5760.2466 
  985000      984.987    393.51829    16.429793   -450.73577   -434.30598   -8777.8325    14057.675     24883.17   -65274.343      15.2149      13.1765      28.7324    5760.2466 
  985500      985.487    363.93235    15.194549   -449.49549   -434.30094   -8045.2846     17070.79    24195.134   -65401.778      15.2149      13.1765      28.7324    5760.2466 
  986000      985.987    367.94826    15.362218   -449.65863   -434.29641   -6998.9482    16931.677    25171.623   -63100.145      15.2149      13.1765      28.7324    5760.2466 
  986500      986.487    380.52324    15.887236   -450.17889   -434.29165   -9315.6991    16690.858    24388.512   -69026.468      15.2149      13.1765      28.7324    5760.2466 
  987000      986.987    368.67217    15.392442   -449.68015   -434.28771   -8713.5125    19496.069    24990.024    -70626.63      15.2149      13.1765      28.7324    5760.2466 
  987500      987.487    359.78017    15.021192   -449.30327   -434.28208   -8266.1628    14587.979    27833.352    -67219.82      15.2149      13.1765      28.7324    5760.2466 
  988000      987.987    379.75061    15.854978   -450.13248    -434.2775    -8083.056    14732.894    25554.421   -64536.483      15.2149      13.1765      28.7324    5760.2466 
  988500      988.487    377.37957    15.755985   -450.02878   -434.27279   -7527.8788    16072.391    24454.741   -63110.768      15.2149      13.1765      28.7324    5760.2466 
  989000      988.987    372.08576    15.534963   -449.80244   -434.26748   -7790.0325    16185.799     22774.93   -62330.826      15.2149      13.1765      28.7324    5760.2466 
  989500      989.487    378.93686    15.821003   -450.08343   -434.26242   -8529.9582     13885.09    26257.027   -65731.991      15.2149      13.1765      28.7324    5760.2466 
  990000      989.987    370.26896    15.459109   -449.71559   -434.25648   -9183.2172    12807.068    25720.297   -66077.017      15.2149      13.1765      28.7324    5760.2466 
  990500      990.487    367.69616    15.351692   -449.60403   -434.25234   -8754.8912    15581.859    24773.705   -66620.237      15.2149      13.1765      28.7324    5760.2466 
  991000      990.987    375.34542    15.671057   -449.91766    -434.2466   -8671.5511    15751.909    23834.558    -65601.12      15.2149      13.1765      28.7324    5760.2466 
  991500      991.487    355.87499    14.858146   -449.09923   -434.24108   -8144.0394    18058.544    26609.055   -69099.717      15.2149      13.1765      28.7324    5760.2466 
  992000      991.987     379.4807    15.843709   -450.08019   -434.23648   -8760.1661    14145.869    22981.223    -63407.59      15.2149      13.1765      28.7324    5760.2466 
  992500      992.487    351.32614    14.668227   -448.89909   -434.23087   -7779.6875    20658.657    27088.719   -71086.439      15.2149      13.1765      28.7324    5760.2466 
  993000      992.987    362.30249    15.126501   -449.35194   -434.22544   -8295.7061    16598.581     26257.55   -67743.249      15.2149      13.1765      28.7324    5760.2466 
  993500      993.487    373.33424    15.587088   -449.80822   -434.22114    -7295.568    18064.717    30047.943   -69999.364      15.2149      13.1765      28.7324    5760.2466 
  994000      993.987    386.65358    16.143184   -450.35872   -434.21553   -7581.8033    17391.339    24648.301   -64785.049      15.2149      13.1765      28.7324    5760.2466 
  994500      994.487    360.11836    15.035312   -449.24505   -434.20974   -7507.5792    15160.394    24029.439   -61712.571      15.2149      13.1765      28.7324    5760.2466 
  995000      994.987     365.5965    15.264029   -449.46786   -434.20383   -7234.3558    17175.627    26488.608   -65367.302      15.2149      13.1765      28.7324    5760.2466 
  995500      995.487    359.68673     15.01729   -449.21595   -434.19866   -7746.8473    15228.263    23295.622   -61764.427      15.2149      13.1765      28.7324    5760.2466 
  996000      995.987    359.78379    15.021343   -449.21422   -434.19288   -8131.2231    17726.113    23931.393   -66051.175      15.2149      13.1765      28.7324    5760.2466 
  996500      996.487    396.43836    16.551709   -450.73967   -434.18797   -8965.1037    14906.485    21976.202   -63777.999      15.2149      13.1765      28.7324    5760.2466 
  997000      996.987    373.58733    15.597655   -449.77909   -434.18143   -7560.4333    19444.459    23921.137   -66046.896      15.2149      13.1765      28.7324    5760.2466 
  997500      997.487    366.44571    15.299485   -449.47639   -434.17691   -8308.1582    15735.013     25946.49   -66605.978      15.2149      13.1765      28.7324    5760.2466 
  998000      997.987    358.88739    14.983917   -449.15428   -434.17036   -7537.7163    17484.875    28405.535   -68503.559      15.2149      13.1765      28.7324    5760.2466 
  998500      998.487    398.76218     16.64873   -450.81484   -434.16611   -8643.2072    13861.565    25376.565   -65167.752      15.2149      13.1765      28.7324    5760.2466 
  999000      998.987    390.99552    16.324464   -450.48435   -434.15988   -7780.4521    18740.601    25715.553    -67797.51      15.2149      13.1765      28.7324    5760.2466 
  999500      999.487     373.2956    15.585475   -449.73993   -434.15446   -8082.3342    17536.563    23180.534     -64964.1      15.2149      13.1765      28.7324    5760.2466 
 1000000      999.987    365.91916    15.277501   -449.42672   -434.14922   -8087.4989    15958.063    26379.952   -66600.511      15.2149      13.1765      28.7324    5760.2466 
 1000013         1000    361.84641    15.107459   -449.25572   -434.14826   -8239.1771    17480.401    29093.086   -71291.018      15.2149      13.1765      28.7324    5760.2466 
Loop time of 902.38 on 28 procs for 1000000 steps with 324 atoms

Performance: 95.747 ns/day, 0.251 hours/ns, 1108.181 timesteps/s
87.7% CPU use with 28 MPI tasks x no OpenMP threads

MPI task timing breakdown:
Section |  min time  |  avg time  |  max time  |%varavg| %total
---------------------------------------------------------------
Pair    | 745.62     | 783.98     | 828.39     |  78.3 | 86.88
Neigh   | 0.002403   | 0.0032505  | 0.0042031  |   0.8 |  0.00
Comm    | 56.218     | 105.13     | 143.67     | 215.8 | 11.65
Output  | 0.10175    | 0.10428    | 0.128      |   1.5 |  0.01
Modify  | 5.0368     | 7.9542     | 12.711     |  92.9 |  0.88
Other   |            | 5.203      |            |       |  0.58

Nlocal:    11.5714 ave 15 max 7 min
Histogram: 1 0 4 3 0 6 5 5 0 4
Nghost:    659.464 ave 698 max 624 min
Histogram: 5 3 3 1 3 3 2 1 1 6
Neighs:    716.143 ave 928 max 410 min
Histogram: 1 0 4 0 5 4 4 6 0 4
FullNghs:  1432.29 ave 1862 max 868 min
Histogram: 1 0 4 3 4 2 5 5 0 4

Total # of neighbors = 40104
Ave neighs/atom = 123.778
Neighbor list builds = 44
Dangerous builds = 0

write_restart   POSCAR_1x1x1.rest

#unfix    1
#undump   1
Total wall time: 0:15:02
