LAMMPS (7 Dec 2015)
#----------- Initialize Simulation ------------ restart01
#processors	2 2 2
units		metal
boundary	p p p     ## periodic boundary condition  on x y z axis ##
atom_style atomic
#atom_modify map array sort 0 0.0

read_data	POSCAR_1x1x1.lammps
  triclinic box = (0 0 0) to (15.2149 13.1765 28.7324) with tilt (-7.60743 0 0)
  2 by 2 by 7 MPI processor grid
  reading atoms ...
  324 atoms

#----------- Define Potential -----------------
pair_style meam
pair_coeff * * MgAlZn.library.meam Mg Al Zn MgAlZn.parameter.meam Mg Al Zn 	#1=Mg 2=Al 3=Zn	#atoms/mass

#----------- Neighbor List --------------------
neighbor 2.0 bin
neigh_modify delay 10 check yes

#--------------  Run a simulation (minimization) ---------------------------------------
minimize       1.0e-4   1.0e-6   100   1000          #結構優化的條件
WARNING: Resetting reneighboring criteria during minimization (../min.cpp:168)
Neighbor list info ...
  2 neighbor list requests
  update every 1 steps, delay 0 steps, check yes
  max neighbors/atom: 2000, page size: 100000
  master list distance cutoff = 8
  ghost atom cutoff = 8
  binsize = 4 -> bins = 6 4 8
Memory usage per processor = 8.65063 Mbytes
Step Temp E_pair E_mol TotEng Press 
       0            0   -657.51429            0   -657.51429    19758.622 
      14            0   -672.73914            0   -672.73914     18262.29 
Loop time of 0.026779 on 28 procs for 14 steps with 324 atoms

85.6% CPU use with 28 MPI tasks x no OpenMP threads

Minimization stats:
  Stopping criterion = energy tolerance
  Energy initial, next-to-last, final = 
        -657.514286635     -672.677102265     -672.739139309
  Force two-norm initial, final = 23.1939 1.46159
  Force max component initial, final = 4.14537 0.611682
  Final line search alpha, max atom move = 0.154827 0.0947046
  Iterations, force evaluations = 14 27

MPI task timing breakdown:
Section |  min time  |  avg time  |  max time  |%varavg| %total
---------------------------------------------------------------
Pair    | 0.020954   | 0.022437   | 0.024399   |   0.6 | 83.79
Neigh   | 0          | 0          | 0          |   0.0 |  0.00
Comm    | 0.001365   | 0.0033578  | 0.0048586  |   1.6 | 12.54
Output  | 0          | 0          | 0          |   0.0 |  0.00
Modify  | 0          | 0          | 0          |   0.0 |  0.00
Other   |            | 0.0009843  |            |       |  3.68

Nlocal:    11.5714 ave 16 max 7 min
Histogram: 1 3 4 3 1 5 4 2 4 1
Nghost:    647.929 ave 694 max 608 min
Histogram: 3 4 4 2 2 3 2 1 4 3
Neighs:    722.536 ave 1066 max 447 min
Histogram: 3 2 6 1 4 4 4 0 3 1
FullNghs:  1445.07 ave 2007 max 885 min
Histogram: 1 3 4 3 1 5 4 2 4 1

Total # of neighbors = 40462
Ave neighs/atom = 124.883
Neighbor list builds = 0
Dangerous builds = 0
velocity all  create 393.0 4928459 #rot yes dist gaussian

#--------------  Run a simulation (Relaxation)  ----------------------------------------
fix  1  all  nvt   temp  393.0  393.0  100				#damping constant
#fix  2  all  npt   temp  393.0  393.0  50 iso 0.0 0.0 1000.0
#fix  2  all deform 1 x final 0 15.6906 y final 0 13.5884 z final 0 25.2339 xy final -7.8452 units lattice
#fix  3  all  npt   temp  393.0  393.0  50 z 0.0 0.0 1000.0

#variable b equal 1
#fix 2 all efield  0.0  0.0  v_b
#compute pot all pe/atom


#----------- Output --------------------------
thermo	 500
timestep  0.001		#1.0 fs
thermo_style	custom step time temp ke pe etotal press pxx pyy pzz lx ly lz vol

dump 1 all custom 10000 dump.eq id type x y z
dump_modify 1 sort  id

run        1000000	#10000	 ps
Neighbor list info ...
  2 neighbor list requests
  update every 1 steps, delay 10 steps, check yes
  max neighbors/atom: 2000, page size: 100000
  master list distance cutoff = 8
  ghost atom cutoff = 8
  binsize = 4 -> bins = 6 4 8
Memory usage per processor = 7.54111 Mbytes
Step Time Temp KinEng PotEng TotEng Press Pxx Pyy Pzz Lx Ly Lz Volume 
      14            0          393    16.408154   -672.73914   -656.33099    21304.841    41707.789    41677.294   -19470.562      15.2149      13.1765      28.7324    5760.2466 
     500        0.486    208.72532    8.7144964   -665.03951   -656.32502     20880.31    42980.901    43572.575   -23912.546      15.2149      13.1765      28.7324    5760.2466 
    1000        0.986    215.61039     9.001955   -665.32711   -656.32516    20804.395    42800.971    45814.431   -26202.218      15.2149      13.1765      28.7324    5760.2466 
    1500        1.486    216.20676    9.0268544   -665.35216    -656.3253    21703.613    44501.951    45450.634   -24841.747      15.2149      13.1765      28.7324    5760.2466 
    2000        1.986    224.45046    9.3710374   -665.69501   -656.32397    22123.498    44626.158     47956.26   -26211.925      15.2149      13.1765      28.7324    5760.2466 
    2500        2.486    217.81874    9.0941561   -665.41715   -656.32299      22687.9    43535.045    49691.325    -25162.67      15.2149      13.1765      28.7324    5760.2466 
    3000        2.986    204.22694    8.5266843    -664.8481   -656.32141    20834.808    42370.409    46125.304   -25991.288      15.2149      13.1765      28.7324    5760.2466 
    3500        3.486    203.53487    8.4977898     -664.818   -656.32021    21719.784    43156.851    51469.541   -29467.039      15.2149      13.1765      28.7324    5760.2466 
    4000        3.986    212.57477     8.875215   -665.19413   -656.31892    23822.486    42597.344    53073.949   -24203.833      15.2149      13.1765      28.7324    5760.2466 
    4500        4.486    219.34358    9.1578199   -665.47564   -656.31782    23147.774    43124.968    48909.147   -22590.792      15.2149      13.1765      28.7324    5760.2466 
    5000        4.986    219.08956    9.1472142   -665.46308   -656.31587     19410.54    41614.603    44715.629   -28098.613      15.2149      13.1765      28.7324    5760.2466 
    5500        5.486    226.80587    9.4693782   -665.78301   -656.31363    22244.473    42185.527     48368.69   -23820.798      15.2149      13.1765      28.7324    5760.2466 
    6000        5.986    217.59435    9.0847877   -665.39532   -656.31053     23150.69      45603.2    47031.275   -23182.404      15.2149      13.1765      28.7324    5760.2466 
    6500        6.486    219.07521    9.1466151   -665.45515   -656.30854    23071.067    43424.306    48842.637   -23053.741      15.2149      13.1765      28.7324    5760.2466 
    7000        6.986    218.94481    9.1411706   -665.44674   -656.30557    23489.601    43291.577     49872.41   -22695.185      15.2149      13.1765      28.7324    5760.2466 
    7500        7.486    223.27382    9.3219114   -665.62492   -656.30301    21532.957     46378.46    45781.091   -27560.681      15.2149      13.1765      28.7324    5760.2466 
    8000        7.986    223.71088    9.3401588   -665.64024   -656.30008    22773.981    44919.349    51867.985   -28465.389      15.2149      13.1765      28.7324    5760.2466 
    8500        8.486    221.22823     9.236506   -665.53337   -656.29687    23423.177    43643.222    47080.453   -20454.145      15.2149      13.1765      28.7324    5760.2466 
    9000        8.986    216.79798    9.0515384   -665.34352   -656.29198    23645.367     44288.94    49280.858   -22633.697      15.2149      13.1765      28.7324    5760.2466 
    9500        9.486    213.18625     8.900745     -665.189   -656.28825    21205.883    42993.678    47587.521    -26963.55      15.2149      13.1765      28.7324    5760.2466 
   10000        9.986    221.86739    9.2631912   -665.54814   -656.28495    23041.817    41389.213    49892.526   -22156.288      15.2149      13.1765      28.7324    5760.2466 
   10500       10.486    215.54116    8.9990649   -665.27909   -656.28002    22893.055    42483.594    51923.387   -25727.816      15.2149      13.1765      28.7324    5760.2466 
   11000       10.986    209.13427    8.7315704   -665.00688   -656.27531    21337.593    40734.393    45030.012   -21751.627      15.2149      13.1765      28.7324    5760.2466 
   11500       11.486    215.69773    9.0056017   -665.27642   -656.27082    23860.189    43178.509    49000.375   -20598.318      15.2149      13.1765      28.7324    5760.2466 
   12000       11.986    221.21389     9.235907   -665.50227   -656.26637    21209.052    43778.903     47854.19   -28005.936      15.2149      13.1765      28.7324    5760.2466 
   12500       12.486     221.4906    9.2474601   -665.50912   -656.26166    20432.811    41273.408    48394.768   -28369.743      15.2149      13.1765      28.7324    5760.2466 
   13000       12.986    218.20516    9.1102893   -665.36661   -656.25632    21087.641    38502.096    49812.591   -25051.765      15.2149      13.1765      28.7324    5760.2466 
   13500       13.486    226.92303    9.4742693   -665.72511   -656.25084    24220.378     44004.55    50229.898   -21573.313      15.2149      13.1765      28.7324    5760.2466 
   14000       13.986    221.94739    9.2665313   -665.51192   -656.24539    22861.589    41248.224    48236.538   -20899.995      15.2149      13.1765      28.7324    5760.2466 
   14500       14.486    216.94744    9.0577785   -665.29728    -656.2395    21319.923    45677.129    44790.743   -26508.102      15.2149      13.1765      28.7324    5760.2466 
   15000       14.986    217.36067    9.0750313   -665.30796   -656.23293     22211.75    41297.006    50362.189   -25023.944      15.2149      13.1765      28.7324    5760.2466 
   15500       15.486    221.18157    9.2345576   -665.46106   -656.22651    22178.937    42677.812    46045.803   -22186.804      15.2149      13.1765      28.7324    5760.2466 
   16000       15.986    228.79092     9.552256   -665.77281   -656.22056    22806.255     41263.05    46128.362   -18972.647      15.2149      13.1765      28.7324    5760.2466 
   16500       16.486     218.1236    9.1068842   -665.32042   -656.21353    20779.962    44828.566    47023.015   -29511.693      15.2149      13.1765      28.7324    5760.2466 
   17000       16.986    212.30453    8.8639323     -665.071   -656.20707    21808.413    41785.003    49382.174   -25741.937      15.2149      13.1765      28.7324    5760.2466 
   17500       17.486    221.33635      9.24102   -665.44069   -656.19967    21003.384     43012.92    49857.027   -29859.794      15.2149      13.1765      28.7324    5760.2466 
   18000       17.986    225.89052     9.431161   -665.62383   -656.19267    22957.585    43806.315    50263.218   -25196.777      15.2149      13.1765      28.7324    5760.2466 
   18500       18.486    225.65435    9.4213007   -665.60646   -656.18515    22086.612    37377.147    48598.386   -19715.697      15.2149      13.1765      28.7324    5760.2466 
   19000       18.986    225.75223    9.4253876   -665.60323   -656.17784    21714.098    41746.091    47062.982   -23666.781      15.2149      13.1765      28.7324    5760.2466 
   19500       19.486    228.41587    9.5365969   -665.70657   -656.16997    22599.671    40388.285    49119.705   -21708.978      15.2149      13.1765      28.7324    5760.2466 
   20000       19.986     211.8239    8.8438652   -665.00565   -656.16178     20813.96    44203.537    47334.829   -29096.485      15.2149      13.1765      28.7324    5760.2466 
   20500       20.486    212.12622    8.8564877   -665.00971   -656.15322    21132.217    43648.727    45933.349   -26185.425      15.2149      13.1765      28.7324    5760.2466 
   21000       20.986    217.95915    9.1000182   -665.24496   -656.14494    22614.311    42290.772    50365.177   -24813.015      15.2149      13.1765      28.7324    5760.2466 
   21500       21.486    213.16009    8.8996527   -665.03556   -656.13591    21117.823     40645.81    48819.638    -26111.98      15.2149      13.1765      28.7324    5760.2466 
   22000       21.986    218.47503    9.1215568   -665.24949   -656.12794    22415.846    39053.726    50568.127   -22374.316      15.2149      13.1765      28.7324    5760.2466 
   22500       22.486    218.02653    9.1028315   -665.22157   -656.11874    22192.462    40157.599     49516.88   -23097.092      15.2149      13.1765      28.7324    5760.2466 
   23000       22.986    206.18448    8.6084136   -664.71728   -656.10887    21314.164    41649.781    47690.771    -25398.06      15.2149      13.1765      28.7324    5760.2466 
   23500       23.486    219.65834    9.1709613   -665.27147   -656.10051    23653.237    44469.814     48058.73   -21568.835      15.2149      13.1765      28.7324    5760.2466 
   24000       23.986    219.46412    9.1628523   -665.25331   -656.09046    22847.243    40971.519     51599.88   -24029.672      15.2149      13.1765      28.7324    5760.2466 
   24500       24.486    213.80411    8.9265412   -665.00768   -656.08114    21671.822    42516.675    49961.025   -27462.233      15.2149      13.1765      28.7324    5760.2466 
   25000       24.986    227.94424    9.5169062   -665.58918   -656.07227    23604.907    45137.567    48153.392   -22476.237      15.2149      13.1765      28.7324    5760.2466 
   25500       25.486    209.34989    8.7405727   -664.80089   -656.06031    20397.855    41617.674    46057.839   -26481.947      15.2149      13.1765      28.7324    5760.2466 
   26000       25.986    223.23075     9.320113   -665.37116   -656.05105    20881.129    43040.965    45193.002   -25590.581      15.2149      13.1765      28.7324    5760.2466 
   26500       26.486    226.80628     9.469395    -665.5101   -656.04071    20768.889    40521.847    44581.665   -22796.845      15.2149      13.1765      28.7324    5760.2466 
   27000       26.986    219.35632    9.1583514   -665.18847   -656.03012    21695.367    41702.601    48585.244   -25201.742      15.2149      13.1765      28.7324    5760.2466 
   27500       27.486    233.89897     9.765522   -665.78548   -656.01996    22509.147     42262.57    48097.568   -22832.698      15.2149      13.1765      28.7324    5760.2466 
   28000       27.986    228.61276    9.5448176   -665.55405   -656.00923    22439.914    44781.998     51084.74   -28546.994      15.2149      13.1765      28.7324    5760.2466 
   28500       28.486    214.30457    8.9474358   -664.94528   -655.99784    23939.389    44698.615     50039.87   -22920.318      15.2149      13.1765      28.7324    5760.2466 
   29000       28.986      213.781    8.9255762   -664.91163   -655.98605    22456.943    43801.419    47410.931   -23841.523      15.2149      13.1765      28.7324    5760.2466 
   29500       29.486    219.80482    9.1770768   -665.15198   -655.97491     22528.21     41097.47      53107.5   -26620.341      15.2149      13.1765      28.7324    5760.2466 
   30000       29.986    224.62109    9.3781611   -665.34205   -655.96389    23500.515    42632.578    50980.577   -23111.611      15.2149      13.1765      28.7324    5760.2466 
   30500       30.486    230.81161    9.6366218   -665.58941   -655.95279    23332.737    43722.928    48059.959   -21784.675      15.2149      13.1765      28.7324    5760.2466 
   31000       30.986    230.43427    9.6208673   -665.56167    -655.9408    23442.522    43119.939     51218.72   -24011.092      15.2149      13.1765      28.7324    5760.2466 
   31500       31.486    228.48797    9.5396072   -665.46797   -655.92837    22621.478    43004.336    47271.667    -22411.57      15.2149      13.1765      28.7324    5760.2466 
   32000       31.986    230.06028     9.605253    -665.5223   -655.91705    21032.821    43803.124    45446.004   -26150.666      15.2149      13.1765      28.7324    5760.2466 
   32500       32.486    221.13696    9.2326953   -665.13797   -655.90528    22792.268    43555.939    50152.511   -25331.646      15.2149      13.1765      28.7324    5760.2466 
   33000       32.986    227.45992    9.4966851   -665.38982   -655.89314    22816.485    41186.599    48101.193   -20838.337      15.2149      13.1765      28.7324    5760.2466 
   33500       33.486    227.33545    9.4914883   -665.37239    -655.8809    22888.734     43262.53    49072.626   -23668.954      15.2149      13.1765      28.7324    5760.2466 
   34000       33.986    226.34272     9.450041   -665.31834    -655.8683    21827.428    42503.838    48622.248   -25643.801      15.2149      13.1765      28.7324    5760.2466 
   34500       34.486    224.54851    9.3751307   -665.23085   -655.85572    22378.827    44143.332    49423.752   -26430.602      15.2149      13.1765      28.7324    5760.2466 
   35000       34.986    235.66288    9.8391674   -665.68325   -655.84408    24411.099    43045.469    50438.954   -20251.126      15.2149      13.1765      28.7324    5760.2466 
   35500       35.486    210.13277    8.7732591   -664.60326      -655.83    21540.491    42757.098    50860.938   -28996.562      15.2149      13.1765      28.7324    5760.2466 
   36000       35.986    224.76316    9.3840929   -665.20182   -655.81773     22721.29    43325.516    49961.773   -25123.419      15.2149      13.1765      28.7324    5760.2466 
   36500       36.486    209.57144     8.749823   -664.55518   -655.80536    22434.803    46772.662    48887.663   -28355.915      15.2149      13.1765      28.7324    5760.2466 
   37000       36.986    215.77596    9.0088681   -664.80098   -655.79212     22771.82    43559.024    50668.313   -25911.876      15.2149      13.1765      28.7324    5760.2466 
   37500       37.486    205.48002    8.5790017   -664.35791   -655.77891     21266.37    40317.322    49512.587   -26030.798      15.2149      13.1765      28.7324    5760.2466 
   38000       37.986    233.42821    9.7458674   -665.51297    -655.7671    22255.693    41233.502    48553.221   -23019.643      15.2149      13.1765      28.7324    5760.2466 
   38500       38.486    228.40039    9.5359508   -665.29023   -655.75428    22490.013    42713.948    48183.624   -23427.532      15.2149      13.1765      28.7324    5760.2466 
   39000       38.986    222.74668    9.2999025   -665.04098   -655.74108    24236.743    42574.698    50573.773   -20438.243      15.2149      13.1765      28.7324    5760.2466 
   39500       39.486    210.48419    8.7879312    -664.5153   -655.72737    22164.598    42639.662    47194.976   -23340.843      15.2149      13.1765      28.7324    5760.2466 
   40000       39.986    222.43646    9.2869506    -665.0025   -655.71555    21973.783    43216.113    49483.689   -26778.454      15.2149      13.1765      28.7324    5760.2466 
   40500       40.486    217.50549    9.0810773   -664.78336   -655.70228     22975.13    45612.865    48444.888   -25132.363      15.2149      13.1765      28.7324    5760.2466 
   41000       40.986    230.16265     9.609527    -665.2993   -655.68977    21106.151     40540.77    47685.023   -24907.341      15.2149      13.1765      28.7324    5760.2466 
   41500       41.486     226.1829    9.4433685   -665.11999   -655.67662    21833.465    41619.576    49365.774   -25484.954      15.2149      13.1765      28.7324    5760.2466 
   42000       41.986    211.87546    8.8460182    -664.5094   -655.66338    22978.465    43478.916    50684.696   -25228.217      15.2149      13.1765      28.7324    5760.2466 
   42500       42.486    225.44217     9.412442   -665.06309   -655.65065    20970.901    44581.201     47934.06   -29602.556      15.2149      13.1765      28.7324    5760.2466 
   43000       42.986    210.82641    8.8022192   -664.43972    -655.6375    22509.685    42448.509    48749.348   -23668.802      15.2149      13.1765      28.7324    5760.2466 
   43500       43.486    222.76581    9.3007011   -664.92606   -655.62536    20746.882    42443.842    47063.457   -27266.653      15.2149      13.1765      28.7324    5760.2466 
   44000       43.986    212.51946    8.8729056   -664.48441   -655.61151    21585.298    40218.493    50979.392    -26441.99      15.2149      13.1765      28.7324    5760.2466 
   44500       44.486    221.27313    9.2383805   -664.83767   -655.59929    20366.111    43208.015    47434.968   -29544.648      15.2149      13.1765      28.7324    5760.2466 
   45000       44.986     217.3367    9.0740305   -664.66036   -655.58633    21698.065    48410.851    47466.406   -30783.062      15.2149      13.1765      28.7324    5760.2466 
   45500       45.486     230.5586    9.6260584       -665.2   -655.57394    21069.608    42671.787    45604.735   -25067.699      15.2149      13.1765      28.7324    5760.2466 
   46000       45.986     232.9926    9.7276803    -665.2892   -655.56152    22551.075    43495.703    47509.942   -23352.419      15.2149      13.1765      28.7324    5760.2466 
   46500       46.486    231.76739    9.6765266   -665.22534   -655.54882    23696.811    44831.531    47897.654   -21638.752      15.2149      13.1765      28.7324    5760.2466 
   47000       46.986    215.83573    9.0113633   -664.54627   -655.53491    19375.758    41992.508    46480.035   -30345.269      15.2149      13.1765      28.7324    5760.2466 
   47500       47.486    223.24077    9.3205313   -664.84372   -655.52319    22375.392    44676.706    47467.219   -25017.749      15.2149      13.1765      28.7324    5760.2466 
   48000       47.986    216.50636    9.0393629   -664.54955   -655.51019    19875.209    41078.067    48134.505   -29586.945      15.2149      13.1765      28.7324    5760.2466 
   48500       48.486    239.81862    10.012674   -665.51142   -655.49874    23568.982    42306.553    47758.046   -19357.653      15.2149      13.1765      28.7324    5760.2466 
   49000       48.986    233.41403    9.7452756   -665.23086   -655.48559    21738.278      41088.6    47493.355   -23367.121      15.2149      13.1765      28.7324    5760.2466 
   49500       49.486    225.77307    9.4262574   -664.89974   -655.47348    21918.992    40457.886     46383.35   -21084.261      15.2149      13.1765      28.7324    5760.2466 
   50000       49.986    227.48912    9.4979044   -664.95885   -655.46095    22804.939    43651.657    48778.534   -24015.374      15.2149      13.1765      28.7324    5760.2466 
   50500       50.486    227.54567    9.5002655   -664.94884   -655.44857     22436.85    43782.616    50948.433   -27420.498      15.2149      13.1765      28.7324    5760.2466 
   51000       50.986    220.49419    9.2058587   -664.64178   -655.43592    23794.094    45301.269    47485.407   -21404.394      15.2149      13.1765      28.7324    5760.2466 
   51500       51.486     228.7225    9.5493994   -664.97355   -655.42415    20430.439    42739.222    47078.509   -28526.412      15.2149      13.1765      28.7324    5760.2466 
   52000       51.986    223.40625    9.3274404   -664.73929   -655.41185      21753.1    44346.446    45718.309   -24805.456      15.2149      13.1765      28.7324    5760.2466 
   52500       52.486    238.44943    9.9555084   -665.35574   -655.40023    23562.057    43652.446    49654.247   -22620.521      15.2149      13.1765      28.7324    5760.2466 
   53000       52.986     239.4875    9.9988488   -665.38735    -655.3885     21841.31    43584.288    50531.356   -28591.714      15.2149      13.1765      28.7324    5760.2466 
   53500       53.486    217.97315    9.1006027   -664.47632   -655.37572    20575.514     41360.24    48601.778   -28235.476      15.2149      13.1765      28.7324    5760.2466 
   54000       53.986    223.60873     9.335894    -664.7002   -655.36431    21461.338    41628.955    48042.594   -25287.535      15.2149      13.1765      28.7324    5760.2466 
   54500       54.486    241.41458    10.079307   -665.43256   -655.35325    21956.038    45453.472    50517.425   -30102.782      15.2149      13.1765      28.7324    5760.2466 
   55000       54.986    229.16387    9.5678269   -664.90925   -655.34143    23159.582    41701.643    49217.102   -21439.999      15.2149      13.1765      28.7324    5760.2466 
   55500       55.486    239.85602    10.014235   -665.34451   -655.33028    21595.325    45333.366    45060.893   -25608.284      15.2149      13.1765      28.7324    5760.2466 
   56000       55.986    231.33113    9.6583123   -664.97659   -655.31827    20402.289    42635.254    47688.482   -29116.867      15.2149      13.1765      28.7324    5760.2466 
   56500       56.486    231.08762    9.6481454   -664.95499   -655.30684     23000.37    42344.307    50332.055   -23675.253      15.2149      13.1765      28.7324    5760.2466 
   57000       56.986     219.6505    9.1706338    -664.4653   -655.29467    22170.262    46701.144    48030.695   -28221.052      15.2149      13.1765      28.7324    5760.2466 
   57500       57.486    231.28926     9.656564   -664.93981   -655.28324    23143.269    42613.699    49374.936   -22558.827      15.2149      13.1765      28.7324    5760.2466 
   58000       57.986    227.61832    9.5032986   -664.77519   -655.27189    20736.086    43986.082    47934.722   -29712.547      15.2149      13.1765      28.7324    5760.2466 
   58500       58.486     241.9778    10.102821   -665.36472    -655.2619    23068.022    44006.455    47525.281   -22327.671      15.2149      13.1765      28.7324    5760.2466 
   59000       58.986    239.30928     9.991408   -665.24183   -655.25042    22743.204    43297.073    48782.227   -23849.689      15.2149      13.1765      28.7324    5760.2466 
   59500       59.486    227.56022    9.5008728    -664.7401   -655.23923    22094.164    43896.165    47826.435   -25440.109      15.2149      13.1765      28.7324    5760.2466 
   60000       59.986    239.05686    9.9808693   -665.20826   -655.22739    21033.564    41280.029     49675.47   -27854.806      15.2149      13.1765      28.7324    5760.2466 
   60500       60.486    236.38379    9.8692661   -665.08612   -655.21685    21933.431    46378.353    49102.581   -29680.641      15.2149      13.1765      28.7324    5760.2466 
   61000       60.986    234.77368    9.8020424   -665.00765    -655.2056    22659.334    43961.977    47653.473   -23637.448      15.2149      13.1765      28.7324    5760.2466 
   61500       61.486    231.54375    9.6671893   -664.86137   -655.19418    21237.813    41319.473    48239.476   -25845.509      15.2149      13.1765      28.7324    5760.2466 
   62000       61.986    235.40555    9.8284236   -665.01202    -655.1836     22221.49    43450.989    43520.369   -20306.888      15.2149      13.1765      28.7324    5760.2466 
   62500       62.486    225.49904    9.4148163   -664.58712    -655.1723    21450.437     42838.83    47779.567   -26267.087      15.2149      13.1765      28.7324    5760.2466 
   63000       62.986    231.96695    9.6848585   -664.84598   -655.16112    23660.897    45094.965     48624.71   -22736.984      15.2149      13.1765      28.7324    5760.2466 
   63500       63.486    239.37384    9.9941035   -665.14534   -655.15124     23006.66    40351.538    46365.073   -17696.631      15.2149      13.1765      28.7324    5760.2466 
   64000       63.986    237.13549    9.9006503   -665.04091   -655.14026    21256.198     41068.37    51338.141   -28637.917      15.2149      13.1765      28.7324    5760.2466 
   64500       64.486    229.16409    9.5678362   -664.69661   -655.12878    22338.192    44461.573    48860.207   -26307.203      15.2149      13.1765      28.7324    5760.2466 
   65000       64.986    229.33218    9.5748542   -664.69383   -655.11897    23716.006    43684.869    48770.198   -21307.048      15.2149      13.1765      28.7324    5760.2466 
   65500       65.486    220.83217    9.2199697   -664.32726   -655.10729    21513.671    45504.225     49209.29   -30172.502      15.2149      13.1765      28.7324    5760.2466 
   66000       65.986    224.75396    9.3837087   -664.48053   -655.09682    21775.561    44443.749    47060.622   -26177.688      15.2149      13.1765      28.7324    5760.2466 
   66500       66.486    233.20829    9.7366856   -664.82392   -655.08723    21066.823    39557.381    50953.769   -27310.681      15.2149      13.1765      28.7324    5760.2466 
   67000       66.986    216.70508    9.0476598   -664.12272   -655.07506    20578.402    41362.113    47117.302    -26744.21      15.2149      13.1765      28.7324    5760.2466 
   67500       67.486    237.36831    9.9103705   -664.97538   -655.06501    23289.167    39483.344    51911.099   -21526.942      15.2149      13.1765      28.7324    5760.2466 
   68000       67.986    230.81009    9.6365582   -664.69118   -655.05462    23430.799    44305.311    50933.218   -24946.132      15.2149      13.1765      28.7324    5760.2466 
   68500       68.486    233.07195    9.7309933   -664.77444   -655.04345    22329.666    43164.486    46245.637   -22421.126      15.2149      13.1765      28.7324    5760.2466 
   69000       68.986    234.61696    9.7954991   -664.82868   -655.03318    22601.348    44994.484    49768.279    -26958.72      15.2149      13.1765      28.7324    5760.2466 
   69500       69.486    235.45162     9.830347   -664.85225    -655.0219     22173.81    44648.761    47745.376   -25872.707      15.2149      13.1765      28.7324    5760.2466 
   70000       69.986    232.60684    9.7115744   -664.72319   -655.01162    22063.949    43058.665    49106.138   -25972.955      15.2149      13.1765      28.7324    5760.2466 
   70500       70.486    232.20343    9.6947318   -664.69574   -655.00101    22183.556    42501.584    47277.937   -23228.851      15.2149      13.1765      28.7324    5760.2466 
   71000       70.986    234.79039    9.8027397   -664.79302   -654.99028    21405.684    42636.896    47109.929   -25529.772      15.2149      13.1765      28.7324    5760.2466 
   71500       71.486    234.02758    9.7708916   -664.75043   -654.97953    21599.045    41306.465    45574.741   -22084.073      15.2149      13.1765      28.7324    5760.2466 
   72000       71.986    236.93861    9.8924302   -664.86202   -654.96959    21670.447    45007.189    46698.688   -26694.537      15.2149      13.1765      28.7324    5760.2466 
   72500       72.486     245.6912     10.25786   -665.21727   -654.95941    22660.453    41044.385    48366.911   -21429.936      15.2149      13.1765      28.7324    5760.2466 
   73000       72.986    234.01492     9.770363   -664.71765   -654.94729    22863.232    40422.922    48040.767   -19873.992      15.2149      13.1765      28.7324    5760.2466 
   73500       73.486    230.07172    9.6057306   -664.54203    -654.9363    21789.656    40258.733    49541.714   -24431.481      15.2149      13.1765      28.7324    5760.2466 
   74000       73.986    249.06329    10.398648    -665.3258   -654.92715    21985.269    47250.533    49237.115    -30531.84      15.2149      13.1765      28.7324    5760.2466 
   74500       74.486    235.17725    9.8188918   -664.73498   -654.91608    22337.595     44056.19     48360.95   -25404.357      15.2149      13.1765      28.7324    5760.2466 
   75000       74.986     234.0242    9.7707506   -664.67624   -654.90549    22064.082    43354.476    46608.429   -23770.659      15.2149      13.1765      28.7324    5760.2466 
   75500       75.486    231.28304    9.6563045   -664.55085   -654.89454    23508.593    45062.792    48047.738   -22584.752      15.2149      13.1765      28.7324    5760.2466 
   76000       75.986    235.24174     9.821584   -664.70543   -654.88385    21712.593    42053.535    47886.111   -24801.868      15.2149      13.1765      28.7324    5760.2466 
   76500       76.486    223.75775     9.342116   -664.21427   -654.87216    22234.917     44285.98    48629.063   -26210.293      15.2149      13.1765      28.7324    5760.2466 
   77000       76.986     237.8278    9.9295547   -664.79138   -654.86182    21969.919    42598.703    47292.275   -23981.219      15.2149      13.1765      28.7324    5760.2466 
   77500       77.486    227.23923    9.4874714   -664.33865   -654.85118    22938.422    42350.125    49055.347   -22590.208      15.2149      13.1765      28.7324    5760.2466 
   78000       77.986    230.91993    9.6411441   -664.48126   -654.84011    22001.167    44901.319    47803.744   -26701.561      15.2149      13.1765      28.7324    5760.2466 
   78500       78.486     242.6819    10.132218   -664.96169   -654.82948    22440.962    40790.164    48367.234   -21834.513      15.2149      13.1765      28.7324    5760.2466 
   79000       78.986     229.0629    9.5636114   -664.38195   -654.81834    22067.985     42156.42    48773.146    -24725.61      15.2149      13.1765      28.7324    5760.2466 
   79500       79.486    221.25976    9.2378224   -664.04431   -654.80649    21963.317    44168.811    44975.884   -23254.744      15.2149      13.1765      28.7324    5760.2466 
   80000       79.986     224.0659    9.3549814   -664.15048   -654.79549    21959.808    43543.587    48604.233   -26268.397      15.2149      13.1765      28.7324    5760.2466 
   80500       80.486    240.80828    10.053993   -664.83909    -654.7851    21567.167    42646.434     50079.81   -28024.743      15.2149      13.1765      28.7324    5760.2466 
   81000       80.986    245.19723    10.237236   -665.01128   -654.77405    20124.115    39226.556    45982.121   -24836.331      15.2149      13.1765      28.7324    5760.2466 
   81500       81.486     242.1697    10.110834   -664.87378   -654.76294     21735.93    44764.819    48076.675   -27633.705      15.2149      13.1765      28.7324    5760.2466 
   82000       81.986    232.26809    9.6974314   -664.44928   -654.75185    22922.607    42887.552     50007.73    -24127.46      15.2149      13.1765      28.7324    5760.2466 
   82500       82.486     226.1431    9.4417068   -664.18182   -654.74011    22403.841    44934.675    46507.442   -24230.593      15.2149      13.1765      28.7324    5760.2466 
   83000       82.986      228.252    9.5297553   -664.25845   -654.72869    20830.745    42874.002    49646.816   -30028.583      15.2149      13.1765      28.7324    5760.2466 
   83500       83.486    231.52191    9.6662774   -664.38438    -654.7181    21911.137    44328.726    46538.343   -25133.656      15.2149      13.1765      28.7324    5760.2466 
   84000       83.986    232.88026    9.7229898   -664.42994   -654.70695     23270.63    41053.072    48464.211   -19705.393      15.2149      13.1765      28.7324    5760.2466 
   84500       84.486    235.21271    9.8203721   -664.51636   -654.69599    21793.885    46815.734    46287.527   -27721.605      15.2149      13.1765      28.7324    5760.2466 
   85000       84.986      227.546    9.5002792   -664.18353   -654.68325    22565.592    41317.664    49238.654   -22859.543      15.2149      13.1765      28.7324    5760.2466 
   85500       85.486    251.50054    10.500406   -665.17345   -654.67304    22179.072    43727.471    45166.435    -22356.69      15.2149      13.1765      28.7324    5760.2466 
   86000       85.986    229.57194    9.5848643   -664.24508   -654.66021    22685.373    44057.376    46643.751   -22645.008      15.2149      13.1765      28.7324    5760.2466 
   86500       86.486    248.82709    10.388787   -665.03904   -654.65025    24618.994    42928.874    46820.893   -15892.785      15.2149      13.1765      28.7324    5760.2466 
   87000       86.986    233.19808    9.7362593   -664.37436    -654.6381    23134.556    44440.969    49126.601   -24163.901      15.2149      13.1765      28.7324    5760.2466 
   87500       87.486    246.63756    10.297371   -664.92395   -654.62658    23143.946    44501.107    45621.433   -20690.704      15.2149      13.1765      28.7324    5760.2466 
   88000       87.986    237.33219    9.9088628   -664.52239   -654.61353    22226.869    42477.643    48844.703   -24641.741      15.2149      13.1765      28.7324    5760.2466 
   88500       88.486    234.55511    9.7929169   -664.39503   -654.60212    20831.927    47293.416    43900.473   -28698.107      15.2149      13.1765      28.7324    5760.2466 
   89000       88.986    241.31173    10.075013   -664.66539   -654.59037    20107.625    40752.142    47477.871   -27907.138      15.2149      13.1765      28.7324    5760.2466 
   89500       89.486    255.49043    10.666988   -665.24575   -654.57876     21736.91    41747.131    48742.584   -25278.985      15.2149      13.1765      28.7324    5760.2466 
   90000       89.986    250.56059    10.461162   -665.02756    -654.5664    22567.069    44311.602    46987.115    -23597.51      15.2149      13.1765      28.7324    5760.2466 
   90500       90.486    231.66805    9.6723788   -664.22607   -654.55369    21202.133    40167.301    45073.397   -21634.298      15.2149      13.1765      28.7324    5760.2466 
   91000       90.986     237.9189    9.9333582   -664.47512   -654.54176    21842.314    42107.561    48056.915   -24637.535      15.2149      13.1765      28.7324    5760.2466 
   91500       91.486    234.91623     9.807994   -664.33763   -654.52964    21023.823    44019.209    46206.713   -27154.451      15.2149      13.1765      28.7324    5760.2466 
   92000       91.986    243.15516    10.151978    -664.6694   -654.51743     24172.97    46736.462    47730.714   -21948.267      15.2149      13.1765      28.7324    5760.2466 
   92500       92.486    245.51957    10.250694   -664.75618   -654.50549    21485.945    40748.877    47235.554   -23526.598      15.2149      13.1765      28.7324    5760.2466 
   93000       92.986     239.4384    9.9967992   -664.48934   -654.49254     21446.65    43352.383    48215.219   -27227.651      15.2149      13.1765      28.7324    5760.2466 
   93500       93.486    230.70363    9.6321136   -664.11257   -654.48045    23376.729    44845.451    46209.211   -20924.476      15.2149      13.1765      28.7324    5760.2466 
   94000       93.986     230.3187    9.6160423   -664.08358   -654.46754    21633.042    43743.519    43640.438    -22484.83      15.2149      13.1765      28.7324    5760.2466 
   94500       94.486     244.9517    10.226985    -664.6827   -654.45571    21190.611    42508.413    47430.894   -26367.475      15.2149      13.1765      28.7324    5760.2466 
   95000       94.986    237.71404    9.9248052   -664.36742   -654.44261    22542.871    43268.626    46908.524   -22548.537      15.2149      13.1765      28.7324    5760.2466 
   95500       95.486    244.11606    10.192096   -664.62248   -654.43038    22631.235    44744.602    48508.276   -25359.172      15.2149      13.1765      28.7324    5760.2466 
   96000       95.986    249.90268    10.433694   -664.85153   -654.41784    22834.353    42940.455    50068.546   -24505.942      15.2149      13.1765      28.7324    5760.2466 
   96500       96.486    238.69063    9.9655787   -664.36958     -654.404    22510.092    46705.771    44231.553   -23407.049      15.2149      13.1765      28.7324    5760.2466 
   97000       96.986    239.66298    10.006175   -664.39803   -654.39186    22466.472    45560.295    48313.909   -26474.789      15.2149      13.1765      28.7324    5760.2466 
   97500       97.486    241.51795    10.083622   -664.46224   -654.37861    22435.054    44130.647    50890.276   -27715.762      15.2149      13.1765      28.7324    5760.2466 
   98000       97.986    250.19518    10.445906   -664.81102   -654.36512    21826.492    46661.739    44812.918   -25995.181      15.2149      13.1765      28.7324    5760.2466 
   98500       98.486    239.87699    10.015111   -664.36738   -654.35227    22625.439    49576.808     44198.56   -25899.051      15.2149      13.1765      28.7324    5760.2466 
   99000       98.986    247.13136    10.317988   -664.65758   -654.33959    22306.393    46573.254    45405.479   -25059.553      15.2149      13.1765      28.7324    5760.2466 
   99500       99.486    242.64786    10.130798   -664.45701   -654.32621    20636.791      43950.3    47614.338   -29654.265      15.2149      13.1765      28.7324    5760.2466 
  100000       99.986    231.93095    9.6833555    -663.9969   -654.31354    21690.327    42653.795    45876.526   -23459.339      15.2149      13.1765      28.7324    5760.2466 
  100500      100.486     244.6642    10.214981    -664.5149   -654.29991    21751.689    43490.933    48257.212   -26493.077      15.2149      13.1765      28.7324    5760.2466 
  101000      100.986    238.11928    9.9417247   -664.22844   -654.28672    20779.936    42790.555    47023.015   -27473.763      15.2149      13.1765      28.7324    5760.2466 
  101500      101.486    244.83184    10.221981   -664.49575   -654.27377    21968.446    44651.115    48239.985   -26985.762      15.2149      13.1765      28.7324    5760.2466 
  102000      101.986    240.28661    10.032213   -664.29216   -654.25995    21548.328    46102.623    45508.503   -26966.143      15.2149      13.1765      28.7324    5760.2466 
  102500      102.486    236.57771    9.8773624   -664.12406    -654.2467        23222    46904.775    46021.553   -23260.327      15.2149      13.1765      28.7324    5760.2466 
  103000      102.986    239.76055    10.010249   -664.24329   -654.23304    23226.062     47016.61     46425.44   -23763.865      15.2149      13.1765      28.7324    5760.2466 
  103500      103.486    240.24156    10.030332   -664.24991   -654.21958     23191.02    46372.686    46674.377   -23474.003      15.2149      13.1765      28.7324    5760.2466 
  104000      103.986    238.34622    9.9511994   -664.15623   -654.20503    22820.908    45652.245    45920.296   -23109.818      15.2149      13.1765      28.7324    5760.2466 
  104500      104.486    239.73564    10.009209   -664.20145   -654.19224    24349.341    48979.861     45051.36     -20983.2      15.2149      13.1765      28.7324    5760.2466 
  105000      104.986    239.22407    9.9878505   -664.16646   -654.17861    20018.319    43486.723    46565.066   -29996.831      15.2149      13.1765      28.7324    5760.2466 
  105500      105.486    244.31609    10.200448   -664.36479   -654.16434     19921.51    47191.224    45460.915   -32887.609      15.2149      13.1765      28.7324    5760.2466 
  106000      105.986    243.78763    10.178384   -664.32942   -654.15104    20033.946    44165.009     45266.14   -29329.311      15.2149      13.1765      28.7324    5760.2466 
  106500      106.486    243.48475    10.165738   -664.30257   -654.13683    21240.426    47265.485    46299.983   -29844.189      15.2149      13.1765      28.7324    5760.2466 
  107000      106.986    245.07042    10.231942   -664.35524    -654.1233    21026.232    43381.246    46851.784   -27154.334      15.2149      13.1765      28.7324    5760.2466 
  107500      107.486    245.14632    10.235111   -664.34404   -654.10893    22448.264    46282.983    46320.593   -25258.783      15.2149      13.1765      28.7324    5760.2466 
  108000      107.986     239.4113    9.9956674   -664.09037   -654.09471    22259.812    44090.193    47719.111   -25029.867      15.2149      13.1765      28.7324    5760.2466 
  108500      108.486    239.08077    9.9818675   -664.06231   -654.08045    20830.368    47450.292    45666.992    -30626.18      15.2149      13.1765      28.7324    5760.2466 
  109000      108.986    240.67195    10.048301   -664.11516   -654.06686    23013.151    42546.867    47304.738   -20812.152      15.2149      13.1765      28.7324    5760.2466 
  109500      109.486    250.73945    10.468629   -664.52092   -654.05229     24325.08    49689.766    47239.964    -23954.49      15.2149      13.1765      28.7324    5760.2466 
  110000      109.986    251.91707    10.517796   -664.55595   -654.03815    22226.754    44699.058    44255.548   -22274.344      15.2149      13.1765      28.7324    5760.2466 
  110500      110.486      230.765    9.6346756   -663.65846   -654.02378      22431.4    44885.556    46628.464    -24219.82      15.2149      13.1765      28.7324    5760.2466 
  111000      110.986    245.78885    10.261937    -664.2722   -654.01026    21809.594    45645.013    46278.019   -26494.249      15.2149      13.1765      28.7324    5760.2466 
  111500      111.486    227.76821    9.5095568    -663.5046   -653.99504    22581.184    46499.606    50067.419   -28823.474      15.2149      13.1765      28.7324    5760.2466 
  112000      111.986    256.16314    10.695074   -664.67656   -653.98149    23604.862    42738.396    48867.856   -20791.667      15.2149      13.1765      28.7324    5760.2466 
  112500      112.486    253.93875    10.602204   -664.56896   -653.96676    23609.615    43894.944    48334.332   -21400.431      15.2149      13.1765      28.7324    5760.2466 
  113000      112.986    241.60221     10.08714   -664.03891   -653.95177    22054.477    45570.309    48291.854   -27698.733      15.2149      13.1765      28.7324    5760.2466 
  113500      113.486    248.17349    10.361498   -664.29912   -653.93762    23793.734    46788.181    47174.213   -22581.192      15.2149      13.1765      28.7324    5760.2466 
  114000      113.986     236.2109    9.8620478    -663.7845   -653.92245    20818.641    40320.655    47387.314   -25252.045      15.2149      13.1765      28.7324    5760.2466 
  114500      114.486    250.49568    10.458452   -664.36682   -653.90837    22279.614    43262.369    49569.741   -25993.267      15.2149      13.1765      28.7324    5760.2466 
  115000      114.986    243.36305    10.160657   -664.05445   -653.89379    22622.065    44678.634    47622.898   -24435.337      15.2149      13.1765      28.7324    5760.2466 
  115500      115.486    233.10907     9.732543   -663.61096   -653.87842    19575.293    41630.688    46572.506   -29477.314      15.2149      13.1765      28.7324    5760.2466 
  116000      115.986    252.82187    10.555573   -664.42034   -653.86477     22450.59    44185.636    46215.309   -23049.174      15.2149      13.1765      28.7324    5760.2466 
  116500      116.486    254.96962    10.645244   -664.49528   -653.85003    21964.293    43121.866    47754.865   -24983.851      15.2149      13.1765      28.7324    5760.2466 
  117000      116.986    253.86041    10.598933   -664.43398   -653.83505    21812.589     46752.59    47613.106   -28927.929      15.2149      13.1765      28.7324    5760.2466 
  117500      117.486    258.23552    10.781598   -664.60169   -653.82009     22181.71    44250.135    47600.808   -25305.813      15.2149      13.1765      28.7324    5760.2466 
  118000      117.986    240.68297    10.048761    -663.8532   -653.80444     21583.83     43492.54    46307.452   -25048.501      15.2149      13.1765      28.7324    5760.2466 
  118500      118.486    239.43858    9.9968067   -663.78643   -653.78962    22751.874    43969.378    49747.942   -25461.698      15.2149      13.1765      28.7324    5760.2466 
  119000      118.986    235.07462    9.8146069   -663.58928   -653.77468    22508.036    40911.198    48998.089    -22385.18      15.2149      13.1765      28.7324    5760.2466 
  119500      119.486    250.29203    10.449949   -664.21016   -653.76021     22221.64    45286.449    42759.956   -21381.485      15.2149      13.1765      28.7324    5760.2466 
  120000      119.986    247.62562    10.338624   -664.08383   -653.74521    22767.036    40999.086    52899.372   -25597.351      15.2149      13.1765      28.7324    5760.2466 
  120500      120.486    250.80939     10.47155    -664.2019   -653.73035    22851.191    45409.763    49853.198   -26709.388      15.2149      13.1765      28.7324    5760.2466 
  121000      120.986    237.39476    9.9114751     -663.626   -653.71452    22353.251    42957.616     47915.78   -23813.643      15.2149      13.1765      28.7324    5760.2466 
  121500      121.486    241.06186     10.06458   -663.76374   -653.69916    22179.939    44647.216    45013.282   -23120.682      15.2149      13.1765      28.7324    5760.2466 
  122000      121.986    238.65999    9.9642996   -663.64947   -653.68517    22034.916    44340.846    48096.318   -26332.415      15.2149      13.1765      28.7324    5760.2466 
  122500      122.486    238.72745    9.9671163   -663.63607   -653.66896    21060.206    45939.681    48435.152   -31194.216      15.2149      13.1765      28.7324    5760.2466 
  123000      122.986    255.68779    10.675228   -664.33033    -653.6551    23292.764    43789.873     48260.87   -22172.451      15.2149      13.1765      28.7324    5760.2466 
  123500      123.486    242.87125    10.140124    -663.7799   -653.63978     22927.38     44027.41    48340.595   -23585.865      15.2149      13.1765      28.7324    5760.2466 
  124000      123.986    251.15458    10.485962   -664.11072   -653.62476     22240.18    44134.098    49263.994   -26677.551      15.2149      13.1765      28.7324    5760.2466 
  124500      124.486    239.52599    10.000456   -663.60929   -653.60883    20815.123    40627.106     47367.61   -25549.346      15.2149      13.1765      28.7324    5760.2466 
  125000      124.986    235.97261    9.8520989   -663.44505   -653.59295    22040.715     42381.06    49513.455   -25772.369      15.2149      13.1765      28.7324    5760.2466 
  125500      125.486    252.68087    10.549686   -664.12789    -653.5782    22238.264     43003.35    49435.278   -25723.836      15.2149      13.1765      28.7324    5760.2466 
  126000      125.986    239.43914    9.9968298   -663.55995   -653.56312    22923.726    42707.525    48335.614   -22271.962      15.2149      13.1765      28.7324    5760.2466 
  126500      126.486    239.85103    10.014027   -663.56178   -653.54775    22451.912     44630.18    47433.102   -24707.547      15.2149      13.1765      28.7324    5760.2466 
  127000      126.986     265.7177    11.093987   -664.62747   -653.53348    23259.451    44304.441    47062.418   -21588.507      15.2149      13.1765      28.7324    5760.2466 
  127500      127.486    244.97177    10.227823   -663.74481   -653.51699    22253.126    43619.471    48357.291   -25217.382      15.2149      13.1765      28.7324    5760.2466 
  128000      127.986    242.81822     10.13791   -663.63992   -653.50201    21138.329    46491.254    46732.962   -29809.229      15.2149      13.1765      28.7324    5760.2466 
  128500      128.486    244.90485    10.225029   -663.71129   -653.48626    23782.521    44147.955    50101.782   -22902.175      15.2149      13.1765      28.7324    5760.2466 
  129000      128.986    258.98382     10.81284   -664.28413   -653.47129    23213.793    44061.716    50508.257   -24928.595      15.2149      13.1765      28.7324    5760.2466 
  129500      129.486    251.73579    10.510228   -663.96633   -653.45611    24134.687    44185.632    52098.211   -23879.781      15.2149      13.1765      28.7324    5760.2466 
  130000      129.986    256.99502    10.729806   -664.17073   -653.44093    21993.047    43379.216    47311.108   -24711.183      15.2149      13.1765      28.7324    5760.2466 
  130500      130.486    237.01518    9.8956273   -663.31995   -653.42432    22107.512    41131.711    47360.866   -22170.041      15.2149      13.1765      28.7324    5760.2466 
  131000      130.986    251.30612    10.492289   -663.90221   -653.40992      22080.4      43646.2    50359.891   -27764.892      15.2149      13.1765      28.7324    5760.2466 
  131500      131.486    248.91062    10.392274   -663.78617   -653.39389     22372.91    42552.965    48245.879   -23680.114      15.2149      13.1765      28.7324    5760.2466 
  132000      131.986    251.50301    10.500509   -663.87942   -653.37891     20380.09    42430.725    46738.496    -28028.95      15.2149      13.1765      28.7324    5760.2466 
  132500      132.486    253.01097    10.563468   -663.92723   -653.36377    22924.993      45271.2    47783.817   -24280.038      15.2149      13.1765      28.7324    5760.2466 
  133000      132.986    247.79829    10.345833   -663.69385   -653.34802    21043.709      42627.2    46123.299   -25619.372      15.2149      13.1765      28.7324    5760.2466 
  133500      133.486    257.58594    10.754477   -664.08741   -653.33293     22841.99    44461.034    45851.733   -21786.796      15.2149      13.1765      28.7324    5760.2466 
  134000      133.986    242.49125    10.124259   -663.44052   -653.31627    22166.355    43047.342    47813.609   -24361.887      15.2149      13.1765      28.7324    5760.2466 
  134500      134.486    261.57942    10.921209   -664.22231    -653.3011    21559.634    41878.537    47333.286    -24532.92      15.2149      13.1765      28.7324    5760.2466 
  135000      134.986    248.27999    10.365945   -663.65092   -653.28498    23408.511    40913.536    51826.478    -22514.48      15.2149      13.1765      28.7324    5760.2466 
  135500      135.486    266.89493    11.143137   -664.41287   -653.26973    19892.139    42526.002    46778.571   -29628.154      15.2149      13.1765      28.7324    5760.2466 
  136000      135.986    242.31146    10.116752   -663.36966   -653.25291    22395.891    40930.713     50596.23    -24339.27      15.2149      13.1765      28.7324    5760.2466 
  136500      136.486     247.6986    10.341671   -663.57952   -653.23784    21353.713    41207.059    48065.672   -25211.591      15.2149      13.1765      28.7324    5760.2466 
  137000      136.986    246.28275    10.282558   -663.50403   -653.22147    22831.847    43100.612    48415.478    -23020.55      15.2149      13.1765      28.7324    5760.2466 
  137500      137.486     259.7513    10.844884   -664.05211   -653.20722    22115.361    45402.985    45593.798   -24650.702      15.2149      13.1765      28.7324    5760.2466 
  138000      137.986    259.23766    10.823439   -664.01446   -653.19103     22528.66    41764.174    45800.689   -19978.885      15.2149      13.1765      28.7324    5760.2466 
  138500      138.486    267.77989    11.180086    -664.3554   -653.17531    22663.732    41646.091    50434.942   -24089.838      15.2149      13.1765      28.7324    5760.2466 
  139000      138.986    259.73473    10.844192   -664.00308   -653.15889    21163.411    44195.861    44896.571     -25602.2      15.2149      13.1765      28.7324    5760.2466 
  139500      139.486    235.28936    9.8235725    -662.9659   -653.14233    20114.271    45331.195    47998.849   -32987.232      15.2149      13.1765      28.7324    5760.2466 
  140000      139.986    258.64901    10.798862   -663.92659   -653.12773    21607.971     43064.27    52384.248   -30624.606      15.2149      13.1765      28.7324    5760.2466 
  140500      140.486    252.93589    10.560333   -663.67139   -653.11106    22522.059     44006.97    49813.414   -26254.206      15.2149      13.1765      28.7324    5760.2466 
  141000      140.986    245.41059    10.246144   -663.34151   -653.09537    22142.597    42170.607     50821.47   -26564.287      15.2149      13.1765      28.7324    5760.2466 
  141500      141.486    254.71529    10.634625   -663.71438   -653.07976    21776.814    44492.397    49007.652   -28169.607      15.2149      13.1765      28.7324    5760.2466 
  142000      141.986    254.33427    10.618717   -663.68255   -653.06383    22764.312    41206.095    51666.534   -24579.693      15.2149      13.1765      28.7324    5760.2466 
  142500      142.486    261.81672    10.931117   -663.97993   -653.04882    22763.917    46099.957    49126.608   -26934.815      15.2149      13.1765      28.7324    5760.2466 
  143000      142.986    254.60957    10.630211   -663.66203   -653.03182    21989.328    42916.285    48883.081    -25831.38      15.2149      13.1765      28.7324    5760.2466 
  143500      143.486    268.78589    11.222087   -664.23833   -653.01624    22817.559    41993.098    51062.413   -24602.834      15.2149      13.1765      28.7324    5760.2466 
  144000      143.986    272.05013    11.358372   -664.35841   -653.00004    22712.669    45813.912    46983.824   -24659.729      15.2149      13.1765      28.7324    5760.2466 
  144500      144.486    261.10619    10.901452   -663.88496   -652.98351    21368.941    41803.426    47289.157   -24985.762      15.2149      13.1765      28.7324    5760.2466 
  145000      144.986    260.53151    10.877458   -663.84521   -652.96775    23182.537    39895.393    49874.804   -20222.585      15.2149      13.1765      28.7324    5760.2466 
  145500      145.486    255.19499    10.654653   -663.60585    -652.9512     21866.16    43333.275    49854.342   -27589.135      15.2149      13.1765      28.7324    5760.2466 
  146000      145.986    268.55586    11.212483   -664.14879   -652.93631    21619.044    42137.695      46950.1   -24230.662      15.2149      13.1765      28.7324    5760.2466 
  146500      146.486    261.07749    10.900253   -663.81967   -652.91941    22848.682     44794.24    48199.431   -24447.624      15.2149      13.1765      28.7324    5760.2466 
  147000      146.986    269.05439    11.233297   -664.13766   -652.90437    23059.977    47337.138    48146.451   -26303.659      15.2149      13.1765      28.7324    5760.2466 
  147500      147.486     256.0142    10.688856   -663.57672   -652.88786    21928.432     42827.21    49707.923   -26749.838      15.2149      13.1765      28.7324    5760.2466 
  148000      147.986    269.93554    11.270086   -664.14189   -652.87181    20923.874    40809.526    49451.119   -27489.023      15.2149      13.1765      28.7324    5760.2466 
  148500      148.486    251.73957    10.510386   -663.36546   -652.85507    23018.764    43540.472    47720.524   -22204.703      15.2149      13.1765      28.7324    5760.2466 
  149000      148.986    253.95692    10.602962   -663.44185   -652.83888     21516.91    43630.531    48507.355   -27587.157      15.2149      13.1765      28.7324    5760.2466 
  149500      149.486    246.74986     10.30206   -663.12516    -652.8231    19931.346    40783.412    51931.882   -32921.256      15.2149      13.1765      28.7324    5760.2466 
  150000      149.986    272.01789    11.357026   -664.16487   -652.80784     24718.39    46242.946    51216.433   -23304.209      15.2149      13.1765      28.7324    5760.2466 
  150500      150.486    256.76008    10.719997   -663.51059   -652.79059    23080.085    44479.488    49242.959   -24482.193      15.2149      13.1765      28.7324    5760.2466 
  151000      150.986     258.1033    10.776078   -663.55094   -652.77486    22088.646    46388.202    45377.084   -25499.347      15.2149      13.1765      28.7324    5760.2466 
  151500      151.486    266.99038    11.147122   -663.90581   -652.75869    21906.613    43648.938    47449.224   -25378.324      15.2149      13.1765      28.7324    5760.2466 
  152000      151.986     251.7921    10.512579   -663.25522   -652.74264    22256.444    46870.694    46947.801   -27049.164      15.2149      13.1765      28.7324    5760.2466 
  152500      152.486     253.7346     10.59368   -663.31981   -652.72613    22752.743    43999.804    48169.771   -23911.344      15.2149      13.1765      28.7324    5760.2466 
  153000      152.986    268.28143    11.201025   -663.91142    -652.7104    21364.899    45510.431    44952.091   -26367.824      15.2149      13.1765      28.7324    5760.2466 
  153500      153.486     249.0148    10.396624   -663.09032    -652.6937    19390.721    44602.115    42980.189   -29410.142      15.2149      13.1765      28.7324    5760.2466 
  154000      153.986    255.10325    10.650823   -663.32809   -652.67726    23556.436    44390.913    52370.599   -26092.203      15.2149      13.1765      28.7324    5760.2466 
  154500      154.486    264.38576    11.038377   -663.69971   -652.66134    22182.966    41313.165    48243.674    -23007.94      15.2149      13.1765      28.7324    5760.2466 
  155000      154.986    251.56342    10.503031   -663.14765   -652.64462    20988.099    43478.831    49925.076    -30439.61      15.2149      13.1765      28.7324    5760.2466 
  155500      155.486    265.99712    11.105653    -663.7344   -652.62874    23432.471    46652.551    50146.098   -26501.234      15.2149      13.1765      28.7324    5760.2466 
  156000      155.986    258.72758    10.802142   -663.41437   -652.61223     24032.53    43455.739    47145.664   -18503.811      15.2149      13.1765      28.7324    5760.2466 
  156500      156.486    258.27544    10.783265   -663.38002   -652.59676    22550.432    46367.375     48797.12   -27513.199      15.2149      13.1765      28.7324    5760.2466 
  157000      156.986    256.47655    10.708159   -663.28816      -652.58    22492.731    43584.829    48263.304    -24369.94      15.2149      13.1765      28.7324    5760.2466 
  157500      157.486    253.99616      10.6046   -663.16854   -652.56394    22547.695    44171.215    46608.743   -23136.873      15.2149      13.1765      28.7324    5760.2466 
  158000      157.986    242.32666    10.117387   -662.66445   -652.54707    21125.491    43775.549    50454.683   -30853.759      15.2149      13.1765      28.7324    5760.2466 
  158500      158.486    256.50139    10.709196   -663.24033   -652.53113    23875.589    43358.023    47629.382   -19360.639      15.2149      13.1765      28.7324    5760.2466 
  159000      158.986    247.18421    10.320195   -662.83439    -652.5142     22065.49    41462.697    46995.992   -22262.218      15.2149      13.1765      28.7324    5760.2466 
  159500      159.486    258.23742    10.781678    -663.2805   -652.49882    22726.775    45750.881    45200.407   -22770.965      15.2149      13.1765      28.7324    5760.2466 
  160000      159.986    278.87296    11.643232   -664.12597   -652.48274    24265.916    43683.789    47750.046   -18636.086      15.2149      13.1765      28.7324    5760.2466 
  160500      160.486    268.77773    11.221746   -663.68698   -652.46523    23254.937     47211.23    48313.562   -25759.982      15.2149      13.1765      28.7324    5760.2466 
  161000      160.986    258.88404    10.808675   -663.25703   -652.44835    22038.885    46998.834    50281.898   -31164.077      15.2149      13.1765      28.7324    5760.2466 
  161500      161.486    251.32049    10.492888   -662.92472   -652.43183    20785.648    44044.911    46131.735   -27819.703      15.2149      13.1765      28.7324    5760.2466 
  162000      161.986    258.65999     10.79932   -663.21544   -652.41612    21966.744    44626.456    46627.216   -25353.441      15.2149      13.1765      28.7324    5760.2466 
  162500      162.486    262.55427     10.96191   -663.36177   -652.39986    18950.907    39565.964    47830.869   -30544.112      15.2149      13.1765      28.7324    5760.2466 
  163000      162.986    255.86594    10.682666    -663.0658   -652.38313    21982.638    41682.735     46991.34   -22726.163      15.2149      13.1765      28.7324    5760.2466 
  163500      163.486    256.87669    10.724865   -663.09132   -652.36645    23168.363    43476.615    46974.168   -20945.694      15.2149      13.1765      28.7324    5760.2466 
  164000      163.986    286.46216    11.960089   -664.31135   -652.35126    21118.625    46334.167    44712.264   -27690.555      15.2149      13.1765      28.7324    5760.2466 
  164500      164.486    283.63569    11.842081   -664.17634   -652.33426    23439.499    41832.763    50792.846   -22307.113      15.2149      13.1765      28.7324    5760.2466 
  165000      164.986    283.68717    11.844231   -664.16225   -652.31802    21606.182    45071.602    47007.348   -27260.403      15.2149      13.1765      28.7324    5760.2466 
  165500      165.486    264.19998    11.030621   -663.33132    -652.3007    21357.658    42308.175     49776.12    -28011.32      15.2149      13.1765      28.7324    5760.2466 
  166000      165.986    251.16167    10.486258   -662.77024   -652.28399    21779.429    45661.725    48742.822   -29066.259      15.2149      13.1765      28.7324    5760.2466 
  166500      166.486    261.54171    10.919635   -663.18741   -652.26777    23153.331    47806.035    45614.527    -23960.57      15.2149      13.1765      28.7324    5760.2466 
  167000      166.986    263.29142    10.992687   -663.24307   -652.25038     21066.59    43787.377     48709.91   -29297.517      15.2149      13.1765      28.7324    5760.2466 
  167500      167.486    270.32776    11.286462   -663.52111   -652.23465    23282.582    46231.905    46130.847   -22515.005      15.2149      13.1765      28.7324    5760.2466 
  168000      167.986    277.81128    11.598906   -663.81697   -652.21807    22696.655    41277.545    44001.729   -17189.308      15.2149      13.1765      28.7324    5760.2466 
  168500      168.486    262.59884    10.963771   -663.16505   -652.20128    22539.602    44932.066    48851.847   -26165.107      15.2149      13.1765      28.7324    5760.2466 
  169000      168.986     263.2719    10.991872   -663.17554   -652.18367    22130.321    43087.241    47372.654   -24068.932      15.2149      13.1765      28.7324    5760.2466 
  169500      169.486    279.84177    11.683681   -663.85152   -652.16783    22514.998    41425.255    48257.233   -22137.494      15.2149      13.1765      28.7324    5760.2466 
  170000      169.986    273.11401     11.40279   -663.55325   -652.15046    22082.046    43233.717    49321.131   -26308.712      15.2149      13.1765      28.7324    5760.2466 
  170500      170.486    261.06846    10.899876   -663.03302   -652.13315    23346.614    44461.696    48475.889   -22897.742      15.2149      13.1765      28.7324    5760.2466 
  171000      170.986    277.53061    11.587188   -663.70395   -652.11676     21650.15    42589.044    49891.586    -27530.18      15.2149      13.1765      28.7324    5760.2466 
  171500      171.486    263.54332    11.003204   -663.10265   -652.09945    22635.554    41837.018    48119.756   -22050.112      15.2149      13.1765      28.7324    5760.2466 
  172000      171.986    269.20272     11.23949   -663.32231   -652.08282    22331.703    42861.521     49203.34   -25069.753      15.2149      13.1765      28.7324    5760.2466 
  172500      172.486    271.47597      11.3344    -663.4006    -652.0662    24146.989    42364.432     50820.47   -20743.934      15.2149      13.1765      28.7324    5760.2466 
  173000      172.986    290.42108    12.125378   -664.17502   -652.04964    20935.279    39449.381    47655.644   -24299.188      15.2149      13.1765      28.7324    5760.2466 
  173500      173.486     278.8903    11.643956   -663.67632   -652.03236    22717.275    46334.564    47570.212   -25752.951      15.2149      13.1765      28.7324    5760.2466 
  174000      173.986    255.31658    10.659729   -662.67465   -652.01492    21540.223    42020.805    48423.112   -25823.249      15.2149      13.1765      28.7324    5760.2466 
  174500      174.486    262.69795    10.967909   -662.96639   -651.99848    24405.913    43658.752    53260.042   -23701.055      15.2149      13.1765      28.7324    5760.2466 
  175000      174.986    264.07869    11.025556   -663.00694   -651.98138     21843.32    39286.471    48171.073   -21927.584      15.2149      13.1765      28.7324    5760.2466 
  175500      175.486    275.02119    11.482417   -663.44664   -651.96422    22507.069    44178.596    49563.274   -26220.663      15.2149      13.1765      28.7324    5760.2466 
  176000      175.986    268.68473    11.217864   -663.16518   -651.94731    22269.425    42308.761    49483.546   -24984.033      15.2149      13.1765      28.7324    5760.2466 
  176500      176.486    267.05135    11.149668   -663.08009   -651.93042    21665.994     46337.69    48769.288   -30108.995      15.2149      13.1765      28.7324    5760.2466 
  177000      176.986    257.63352    10.756464   -662.66965   -651.91318     23153.01    42240.468    50386.293    -23167.73      15.2149      13.1765      28.7324    5760.2466 
  177500      177.486    264.36134    11.037357    -662.9338   -651.89645    21908.424    39673.144    50821.638    -24769.51      15.2149      13.1765      28.7324    5760.2466 
  178000      177.986    267.08294    11.150987   -663.03063   -651.87964    21386.056    43058.625    49619.314   -28519.772      15.2149      13.1765      28.7324    5760.2466 
  178500      178.486    261.83896    10.932045   -662.79415    -651.8621    22701.132    46580.218    50746.359   -29223.181      15.2149      13.1765      28.7324    5760.2466 
  179000      178.986    274.85281    11.475387   -663.32016   -651.84477    23769.046    46309.561    50334.362   -25336.786      15.2149      13.1765      28.7324    5760.2466 
  179500      179.486    276.33503    11.537271    -663.3662   -651.82893    23611.597    44262.573    45445.665   -18873.448      15.2149      13.1765      28.7324    5760.2466 
  180000      179.986    281.29187    11.744224   -663.55597   -651.81174    20790.209    44624.461    46735.929   -28989.762      15.2149      13.1765      28.7324    5760.2466 
  180500      180.486    276.83664    11.558214   -663.35354   -651.79533    22757.811    46222.918    48155.887   -26105.372      15.2149      13.1765      28.7324    5760.2466 
  181000      180.986    258.11274    10.776472    -662.5533   -651.77683    23248.494    46673.416    50724.833   -27652.766      15.2149      13.1765      28.7324    5760.2466 
  181500      181.486    268.87635    11.225864   -662.98646    -651.7606      21616.6    41894.005    45797.375   -22841.581      15.2149      13.1765      28.7324    5760.2466 
  182000      181.986    274.06586    11.442531   -663.18515   -651.74262    20669.216    44457.393    45485.813   -27935.557      15.2149      13.1765      28.7324    5760.2466 
  182500      182.486    277.05523     11.56734   -663.29416   -651.72682    23388.522    44127.177    46492.955   -20454.565      15.2149      13.1765      28.7324    5760.2466 
  183000      182.986    271.11222    11.319213   -663.02842   -651.70921    20906.703    42165.716    47512.379   -26957.984      15.2149      13.1765      28.7324    5760.2466 
  183500      183.486    279.51001     11.66983   -663.36238   -651.69255    22893.779    45648.603    46790.589   -23757.854      15.2149      13.1765      28.7324    5760.2466 
  184000      183.986    265.81133    11.097896   -662.77252   -651.67462    21261.764    43228.727    44065.787   -23509.221      15.2149      13.1765      28.7324    5760.2466 
  184500      184.486    275.06379    11.484196   -663.14236   -651.65816     23781.84    45903.497    49969.012   -24526.988      15.2149      13.1765      28.7324    5760.2466 
  185000      184.986    275.97862    11.522391   -663.16336   -651.64097    21446.137    44659.644    49298.254   -29619.487      15.2149      13.1765      28.7324    5760.2466 
  185500      185.486    280.29048    11.702416   -663.32651    -651.6241    22731.289    41024.355    51970.216   -24800.705      15.2149      13.1765      28.7324    5760.2466 
  186000      185.986    265.01904    11.064817   -662.67069   -651.60587    21073.714    43566.753    45432.612   -25778.221      15.2149      13.1765      28.7324    5760.2466 
  186500      186.486    280.25099    11.700766    -663.2899   -651.58913     21378.42     41200.88    50421.603   -27487.223      15.2149      13.1765      28.7324    5760.2466 
  187000      186.986    282.79594    11.807021   -663.37902   -651.57199    22112.171    42172.974    49957.922   -25794.384      15.2149      13.1765      28.7324    5760.2466 
  187500      187.486    279.78343    11.681245   -663.23648   -651.55523    21182.567    41911.097    45858.232   -24221.627      15.2149      13.1765      28.7324    5760.2466 
  188000      187.986    269.80951    11.264824   -662.80201   -651.53719    22447.002     37291.86    51905.345   -21856.199      15.2149      13.1765      28.7324    5760.2466 
  188500      188.486    267.18977    11.155447   -662.67537   -651.51992    22095.989    40814.934     48802.26   -23329.228      15.2149      13.1765      28.7324    5760.2466 
  189000      188.986    276.21241    11.532152   -663.03441   -651.50226    21651.071    41324.087    48950.583   -25321.457      15.2149      13.1765      28.7324    5760.2466 
  189500      189.486    275.08729    11.485177   -662.97017   -651.48499    21715.572    42100.218    48131.239   -25084.742      15.2149      13.1765      28.7324    5760.2466 
  190000      189.986     267.8389    11.182549   -662.65089   -651.46834    20732.882    40285.883     47071.69   -25158.926      15.2149      13.1765      28.7324    5760.2466 
  190500      190.486    260.13454    10.860884   -662.31207   -651.45119     21897.41    47776.936    48082.242   -30166.947      15.2149      13.1765      28.7324    5760.2466 
  191000      190.986    261.58253    10.921339   -662.35531   -651.43397    21617.867    43281.774    46672.608   -25100.782      15.2149      13.1765      28.7324    5760.2466 
  191500      191.486    286.18167    11.948379   -663.36545   -651.41707    24195.639    43964.015     49491.56   -20868.657      15.2149      13.1765      28.7324    5760.2466 
  192000      191.986    278.85472    11.642471    -663.0418   -651.39933    21945.652    43538.028    47488.104   -25189.177      15.2149      13.1765      28.7324    5760.2466 
  192500      192.486    279.82816    11.683113   -663.06534   -651.38222    23974.023    41619.933    49132.796    -18830.66      15.2149      13.1765      28.7324    5760.2466 
  193000      192.986    282.85411     11.80945   -663.17445     -651.365    23438.257    44972.693    49886.712   -24544.632      15.2149      13.1765      28.7324    5760.2466 
  193500      193.486    281.31209    11.745069    -663.0921   -651.34703    22225.849    44638.763    49291.478   -27252.694      15.2149      13.1765      28.7324    5760.2466 
  194000      193.986    277.46428    11.584419   -662.91401   -651.32959    24553.399    46123.013    50363.678   -22826.495      15.2149      13.1765      28.7324    5760.2466 
  194500      194.486    265.91878    11.102382   -662.41443   -651.31205    22523.065    45836.541    45667.041   -23934.386      15.2149      13.1765      28.7324    5760.2466 
  195000      194.986    292.55736     12.21457   -663.51089   -651.29632     23175.35    45179.106    48471.993   -24125.048      15.2149      13.1765      28.7324    5760.2466 
  195500      195.486    273.53093    11.420197   -662.69745   -651.27726    22016.732    44249.765     45872.13   -24071.698      15.2149      13.1765      28.7324    5760.2466 
  196000      195.986    280.12776    11.695622   -662.95561   -651.25999    23755.835    44555.049    49033.983   -22321.527      15.2149      13.1765      28.7324    5760.2466 
  196500      196.486    275.12012    11.486548   -662.72881   -651.24226    21542.784    44114.063    47741.191   -27226.901      15.2149      13.1765      28.7324    5760.2466 
  197000      196.986    271.68642    11.343187   -662.56809    -651.2249    23071.241    47598.766    48022.226   -26407.269      15.2149      13.1765      28.7324    5760.2466 
  197500      197.486    287.69603    12.011605   -663.22009   -651.20848    21973.809    44431.784    47397.646   -25908.004      15.2149      13.1765      28.7324    5760.2466 
  198000      197.986    270.19817    11.281051   -662.47153   -651.19048    23054.854    44227.278    46782.562   -21845.278      15.2149      13.1765      28.7324    5760.2466 
  198500      198.486    278.35979    11.621807   -662.79459   -651.17278    22222.894    45253.399    47811.493    -26396.21      15.2149      13.1765      28.7324    5760.2466 
  199000      198.986    283.30526    11.828286   -662.98393   -651.15565    23784.021    43968.329    51754.783   -24371.048      15.2149      13.1765      28.7324    5760.2466 
  199500      199.486    281.77332    11.764326   -662.90096   -651.13663    22955.835    45166.074      50436.6   -26735.168      15.2149      13.1765      28.7324    5760.2466 
  200000      199.986    266.41767    11.123211   -662.24196   -651.11875    21689.482    46104.729    47093.452   -28129.736      15.2149      13.1765      28.7324    5760.2466 
  200500      200.486    285.72991    11.929517   -663.03169   -651.10217    20942.672    41889.654    45555.913   -24617.549      15.2149      13.1765      28.7324    5760.2466 
  201000      200.986    276.48819    11.543666   -662.62711   -651.08344     22750.76    45589.363    48318.194   -25655.277      15.2149      13.1765      28.7324    5760.2466 
  201500      201.486    274.76482    11.471714   -662.53843   -651.06671    21374.103    42694.769    49686.449   -28258.909      15.2149      13.1765      28.7324    5760.2466 
  202000      201.986     279.2009    11.656924   -662.70601   -651.04909    22285.303    42368.253     50219.69   -25732.035      15.2149      13.1765      28.7324    5760.2466 
  202500      202.486    286.50962    11.962071    -662.9939   -651.03182    21889.659     45463.18    48220.754   -28014.958      15.2149      13.1765      28.7324    5760.2466 
  203000      202.986    277.73736     11.59582   -662.61039   -651.01457    20131.698    40872.183    47123.857   -27600.945      15.2149      13.1765      28.7324    5760.2466 
  203500      203.486    275.94084    11.520814    -662.5175   -650.99669    21872.416    43834.944    46064.711   -24282.406      15.2149      13.1765      28.7324    5760.2466 
  204000      203.986    281.82337    11.766415   -662.74596   -650.97954    20344.716    41845.537    46637.424   -27448.812      15.2149      13.1765      28.7324    5760.2466 
  204500      204.486    278.97731    11.647589   -662.60912   -650.96153    23365.884    46995.955    49582.559   -26480.863      15.2149      13.1765      28.7324    5760.2466 
  205000      204.986    276.89862    11.560802   -662.50463   -650.94383    22784.423    46039.302    47843.062   -25529.096      15.2149      13.1765      28.7324    5760.2466 
  205500      205.486    278.41372    11.624059   -662.54977   -650.92571    20662.118    45088.705    48695.493   -31797.843      15.2149      13.1765      28.7324    5760.2466 
  206000      205.986     292.8109    12.225156   -663.13331   -650.90815    22206.698    47388.706    47825.295   -28593.906      15.2149      13.1765      28.7324    5760.2466 
  206500      206.486      267.446    11.166145   -662.05618   -650.89004    22231.214     44199.42    48950.303    -26456.08      15.2149      13.1765      28.7324    5760.2466 
  207000      206.986    279.72852    11.678953   -662.55192   -650.87297    21625.265    43823.552    48431.129   -27378.887      15.2149      13.1765      28.7324    5760.2466 
  207500      207.486    290.45074    12.126617   -662.98245   -650.85584    21975.459    41948.167    47408.434   -23430.222      15.2149      13.1765      28.7324    5760.2466 
  208000      207.986    264.44363    11.040793   -661.87777   -650.83698    22180.573    48296.634    47398.216   -29153.132      15.2149      13.1765      28.7324    5760.2466 
  208500      208.486    300.98894    12.566597   -663.38754   -650.82094    22437.826    43509.179    48267.951   -24463.653      15.2149      13.1765      28.7324    5760.2466 
  209000      208.986    271.82326      11.3489   -662.15066   -650.80176    22109.736     43700.58    46376.563   -23747.935      15.2149      13.1765      28.7324    5760.2466 
  209500      209.486    277.74776    11.596254   -662.38074   -650.78449    24498.564    47459.149    49765.916   -23729.373      15.2149      13.1765      28.7324    5760.2466 
  210000      209.986    279.28791    11.660557    -662.4268   -650.76625    21446.473    45109.708    45566.929   -26337.219      15.2149      13.1765      28.7324    5760.2466 
  210500      210.486    286.37123    11.956293   -662.70561   -650.74932    22583.718    44980.829    48318.957   -25548.632      15.2149      13.1765      28.7324    5760.2466 
  211000      210.986    278.55113    11.629796    -662.3595    -650.7297    20889.265    45650.086    46646.018   -29628.309      15.2149      13.1765      28.7324    5760.2466 
  211500      211.486    302.09693    12.612857   -663.32768   -650.71483     23940.21    44859.942    53528.395   -26567.707      15.2149      13.1765      28.7324    5760.2466 
  212000      211.986    289.91378    12.104198    -662.7994    -650.6952    22426.175    47262.026    47245.607   -27229.108      15.2149      13.1765      28.7324    5760.2466 
[...]
  948500      948.486    392.69865    16.395572    -659.7448   -643.34922    19640.905    43988.228    46246.626   -31312.139      15.2149      13.1765      28.7324    5760.2466 
  949000      948.986    383.55438    16.013789   -659.35994   -643.34615    21731.487    46145.729    47047.276   -27998.545      15.2149      13.1765      28.7324    5760.2466 
  949500      949.486    365.72995    15.269601   -658.61415   -643.34455    22778.576    49752.739    48122.707   -29539.719      15.2149      13.1765      28.7324    5760.2466 
  950000      949.986    363.23442     15.16541   -658.50805   -643.34264    22944.042    46385.067    54167.565   -31720.505      15.2149      13.1765      28.7324    5760.2466 
  950500      950.486    392.88168    16.403214    -659.7447   -643.34148    23233.079    48206.728    46840.785   -25348.276      15.2149      13.1765      28.7324    5760.2466 
  951000      950.986    361.95717    15.112083   -658.44956   -643.33748     22812.62    46010.075    48862.658   -26434.872      15.2149      13.1765      28.7324    5760.2466 
  951500      951.486    375.65241    15.683874   -659.01963   -643.33576    23986.485    49264.146    50946.221   -28250.911      15.2149      13.1765      28.7324    5760.2466 
  952000      951.986    370.38378    15.463903   -658.79734   -643.33343    23734.053    44801.668    49958.969   -23558.477      15.2149      13.1765      28.7324    5760.2466 
  952500      952.486     383.8182    16.024804    -659.3564   -643.33159    22552.617    47131.714    51784.111   -31257.974      15.2149      13.1765      28.7324    5760.2466 
  953000      952.986    373.60214    15.598273    -658.9282   -643.32993    21515.988    49519.469    46430.899   -31402.404      15.2149      13.1765      28.7324    5760.2466 
  953500      953.486    389.09228    16.245002   -659.57326   -643.32826    21469.564    45165.276    47104.945    -27861.53      15.2149      13.1765      28.7324    5760.2466 
  954000      953.986    390.30711    16.295722   -659.62218   -643.32645    22357.544      50541.2    48261.751   -31730.319      15.2149      13.1765      28.7324    5760.2466 
  954500      954.486    368.61104     15.38989   -658.71185   -643.32196    22957.271    49006.263    53419.887   -33554.336      15.2149      13.1765      28.7324    5760.2466 
  955000      954.986    375.43589    15.674834   -658.99506   -643.32023    22976.426    47078.828    47885.208   -26034.757      15.2149      13.1765      28.7324    5760.2466 
  955500      955.486    384.82124    16.066682   -659.38397   -643.31728    23353.866    43622.472    51985.641   -25546.515      15.2149      13.1765      28.7324    5760.2466 
  956000      955.986    379.59271    15.848385   -659.16342   -643.31503    21396.737    43116.467    48500.836   -27427.092      15.2149      13.1765      28.7324    5760.2466 
  956500      956.486    373.13652    15.578833   -658.89207   -643.31324    24284.064    45068.284    52647.384   -24863.476      15.2149      13.1765      28.7324    5760.2466 
  957000      956.986    360.02417    15.031379   -658.34039   -643.30901    22400.824    44705.986    51081.444    -28584.96      15.2149      13.1765      28.7324    5760.2466 
  957500      957.486    377.50379    15.761171   -659.06782   -643.30665    22697.534    45545.097    46481.081   -23933.575      15.2149      13.1765      28.7324    5760.2466 
  958000      957.986    379.91469    15.861828   -659.16578   -643.30395    22909.367    44733.273    52353.145   -28358.316      15.2149      13.1765      28.7324    5760.2466 
  958500      958.486    401.70165    16.771457   -660.07386    -643.3024    21745.716    43713.245    47210.511   -25686.608      15.2149      13.1765      28.7324    5760.2466 
  959000      958.986    364.22269    15.206671   -658.50465   -643.29798    22281.302    45305.916    46503.151    -24965.16      15.2149      13.1765      28.7324    5760.2466 
  959500      959.486    366.75029    15.312201   -658.60702   -643.29482    21510.296    47413.402    47728.657   -30611.172      15.2149      13.1765      28.7324    5760.2466 
  960000      959.986    372.00153    15.531446   -658.82431   -643.29287    20472.734    45032.796    50166.734   -33781.327      15.2149      13.1765      28.7324    5760.2466 
  960500      960.486    379.40724    15.840642   -659.13013   -643.28949    23950.826    46466.147    49195.336   -23809.005      15.2149      13.1765      28.7324    5760.2466 
  961000      960.986    377.29343    15.752388   -659.03967   -643.28728    21068.678    44574.926    49103.115   -30472.007      15.2149      13.1765      28.7324    5760.2466 
  961500      961.486    380.69837    15.894548   -659.17844   -643.28389    23804.823    45128.271    50401.317   -24115.118      15.2149      13.1765      28.7324    5760.2466 
  962000      961.986    372.10057    15.535581   -658.81675   -643.28117    21843.603    44116.546    47077.589   -25663.325      15.2149      13.1765      28.7324    5760.2466 
  962500      962.486    389.12182    16.246235   -659.52539   -643.27916    22509.585    46593.445     48920.96    -27985.65      15.2149      13.1765      28.7324    5760.2466 
  963000      962.986    373.90651    15.610981   -658.88669   -643.27571     23132.27      44458.6    49265.365   -24327.155      15.2149      13.1765      28.7324    5760.2466 
  963500      963.486     364.5756    15.221406   -658.49358   -643.27217    23398.817    43166.155    49287.836   -22257.539      15.2149      13.1765      28.7324    5760.2466 
  964000      963.986    365.11819    15.244059   -658.51406      -643.27    24670.135    43641.679    51776.681   -21407.954      15.2149      13.1765      28.7324    5760.2466 
  964500      964.486    381.10641    15.911584   -659.17865   -643.26707    22953.976    44006.699    49351.461   -24496.233      15.2149      13.1765      28.7324    5760.2466 
  965000      964.986    363.26624    15.166738   -658.42943   -643.26269    23124.686    45466.238    49399.022   -25491.201      15.2149      13.1765      28.7324    5760.2466 
  965500      965.486    385.93573    16.113213   -659.37394   -643.26073     21508.19    46552.185     48156.65   -30184.265      15.2149      13.1765      28.7324    5760.2466 
  966000      965.986    391.82629     16.35915   -659.61718   -643.25803    21883.599    50784.241    46875.961   -32009.406      15.2149      13.1765      28.7324    5760.2466 
  966500      966.486    351.47045    14.674252   -657.92594   -643.25169    24275.463    44014.464     50077.22   -21265.295      15.2149      13.1765      28.7324    5760.2466 
  967000      966.986    368.11216    15.369061   -658.61774   -643.24868    21358.357    47088.842    48299.971   -31313.742      15.2149      13.1765      28.7324    5760.2466 
  967500      967.486    379.99497     15.86518   -659.11238    -643.2472     23786.24    45076.832    52770.076   -26488.187      15.2149      13.1765      28.7324    5760.2466 
  968000      967.986    352.41293    14.713601   -657.95552   -643.24191    25328.339    47424.838    52841.835   -24281.656      15.2149      13.1765      28.7324    5760.2466 
  968500      968.486    386.49973    16.136761   -659.37705   -643.24029    22307.943    44621.985    51902.324    -29600.48      15.2149      13.1765      28.7324    5760.2466 
  969000      968.986    361.80868    15.105884   -658.33972   -643.23384    20434.541     44307.98    46597.163   -29601.519      15.2149      13.1765      28.7324    5760.2466 
  969500      969.486    347.28506    14.499508   -657.73135   -643.23184    22790.958    47371.492    48119.134   -27117.752      15.2149      13.1765      28.7324    5760.2466 
  970000      969.986    355.74935    14.852901   -658.08165   -643.22875    22466.234    44336.628     49410.77   -26348.695      15.2149      13.1765      28.7324    5760.2466 
  970500      970.486    366.07298    15.283923   -658.50964   -643.22571    22024.438    48251.801    47246.592   -29425.078      15.2149      13.1765      28.7324    5760.2466 
  971000      970.986     385.8923      16.1114   -659.33391   -643.22251    23923.527    45839.134    51328.322   -25396.876      15.2149      13.1765      28.7324    5760.2466 
  971500      971.486    377.81649    15.774226   -658.99245   -643.21822    21805.628    46089.874    47354.384   -28027.373      15.2149      13.1765      28.7324    5760.2466 
  972000      971.986     378.2633    15.792881   -659.00847   -643.21559    22768.724    46485.697    47752.945   -25932.469      15.2149      13.1765      28.7324    5760.2466 
  972500      972.486    386.24405    16.126086   -659.33807   -643.21199    21005.668    44272.795    47605.925   -28861.717      15.2149      13.1765      28.7324    5760.2466 
  973000      972.986    388.16712    16.206376   -659.41408   -643.20771    21355.583    45031.688    46507.277   -27472.215      15.2149      13.1765      28.7324    5760.2466 
  973500      973.486    391.57547    16.348678   -659.55249   -643.20381    24020.892    48581.071    49009.676   -25528.071      15.2149      13.1765      28.7324    5760.2466 
  974000      973.986    371.00698    15.489922   -658.68838   -643.19846    23258.542    44735.136    43111.086   -18070.597      15.2149      13.1765      28.7324    5760.2466 
  974500      974.486     376.8201    15.732626   -658.92675   -643.19412    26485.152    52477.677    52620.385   -25642.605      15.2149      13.1765      28.7324    5760.2466 
  975000      974.986    374.48307    15.635053   -658.82613   -643.19107    22449.785    44762.929    49579.392   -26992.966      15.2149      13.1765      28.7324    5760.2466 
  975500      975.486    365.22446    15.248496   -658.43612   -643.18763    21545.195    45747.424    49472.976   -30584.816      15.2149      13.1765      28.7324    5760.2466 
  976000      975.986     376.2793    15.710047   -658.89411   -643.18406    21470.557    45771.795    47182.515   -28542.639      15.2149      13.1765      28.7324    5760.2466 
  976500      976.486    367.09277      15.3265   -658.50567   -643.17917    22753.585    47946.522    52318.002   -32003.769      15.2149      13.1765      28.7324    5760.2466 
  977000      976.986    384.66627    16.060212    -659.2368   -643.17659    21648.716    43478.867    50745.046   -29277.765      15.2149      13.1765      28.7324    5760.2466 
  977500      977.486    380.46047    15.884615   -659.05425   -643.16964    22529.829    46535.236    47065.835   -26011.585      15.2149      13.1765      28.7324    5760.2466 
  978000      977.986    382.69075    15.977732    -659.1445   -643.16676    24323.087    47342.391    50023.757   -24396.888      15.2149      13.1765      28.7324    5760.2466 
  978500      978.486    367.50421    15.343678   -658.50654   -643.16286    24402.939     49367.12    49469.476   -25627.778      15.2149      13.1765      28.7324    5760.2466 
  979000      978.986    370.48444    15.468106   -658.62671   -643.15861    22190.512    43600.461    46516.765   -23545.691      15.2149      13.1765      28.7324    5760.2466 
  979500      979.486    386.92235    16.154406   -659.30919   -643.15478    22808.814    44860.275    47534.724   -23968.555      15.2149      13.1765      28.7324    5760.2466 
  980000      979.986    375.25197    15.667155    -658.8178   -643.15065    23185.231    49826.251    50839.068   -31109.627      15.2149      13.1765      28.7324    5760.2466 
  980500      980.486    365.55578    15.262329   -658.40773    -643.1454    23136.161    49986.599     44553.55   -25131.665      15.2149      13.1765      28.7324    5760.2466 
  981000      980.986    397.22185     16.58442   -659.72649   -643.14207    23420.033    44859.297     49036.08   -23635.277      15.2149      13.1765      28.7324    5760.2466 
  981500      981.486    365.47122    15.258799   -658.39506   -643.13626    25323.059    48006.519     49047.59    -21084.93      15.2149      13.1765      28.7324    5760.2466 
  982000      981.986    379.29621    15.836006   -658.97008   -643.13408    25354.586    50821.261    49489.214   -24246.718      15.2149      13.1765      28.7324    5760.2466 
  982500      982.486    369.84204    15.441285   -658.56974   -643.12845    22503.288    44488.117    52734.899   -29713.152      15.2149      13.1765      28.7324    5760.2466 
  983000      982.986    376.63807    15.725026   -658.84988   -643.12486    23719.342    47655.413    50727.339   -27224.726      15.2149      13.1765      28.7324    5760.2466 
  983500      983.486    372.96094    15.571502   -658.69103   -643.11953    23730.261     45441.49    49446.161   -23696.868      15.2149      13.1765      28.7324    5760.2466 
  984000      983.986    352.05963    14.698851   -657.81274   -643.11389    24748.259    45827.818    50447.518   -22030.558      15.2149      13.1765      28.7324    5760.2466 
  984500      984.486    379.72022    15.853709   -658.96453   -643.11082    21210.975    45632.058    45061.652   -27060.786      15.2149      13.1765      28.7324    5760.2466 
  985000      984.986    369.38977    15.422402   -658.52697   -643.10456    22309.436    42537.358    47595.098   -23204.149      15.2149      13.1765      28.7324    5760.2466 
  985500      985.486    357.07673     14.90832   -658.00846   -643.10013    22891.441    53490.052    48843.675   -33659.402      15.2149      13.1765      28.7324    5760.2466 
  986000      985.986    370.10042    15.452073   -658.54775   -643.09568     23682.64    47736.742    50430.482   -27119.304      15.2149      13.1765      28.7324    5760.2466 
  986500      986.486    371.98287    15.530667   -658.62149   -643.09082    23135.948    47840.929    51902.204    -30335.29      15.2149      13.1765      28.7324    5760.2466 
  987000      986.986    370.01283    15.448416   -658.53544   -643.08703    22568.916    45821.476    49731.557   -27846.285      15.2149      13.1765      28.7324    5760.2466 
  987500      987.486    369.14492    15.412179   -658.49262   -643.08044    24368.616    47907.617    50721.598   -25523.368      15.2149      13.1765      28.7324    5760.2466 
  988000      987.986    368.58261    15.388702   -658.46554   -643.07683    21161.886    43585.355    51348.445   -31448.142      15.2149      13.1765      28.7324    5760.2466 
  988500      988.486    368.77452    15.396715   -658.46968   -643.07296    24533.815     48387.14     50497.62   -25283.314      15.2149      13.1765      28.7324    5760.2466 
  989000      988.986    374.59083    15.639552   -658.70551   -643.06595    24686.275    39902.421    50201.433   -16045.027      15.2149      13.1765      28.7324    5760.2466 
  989500      989.486    372.14802    15.537562   -658.59955   -643.06199    23465.415      45720.7    47672.367   -22996.822      15.2149      13.1765      28.7324    5760.2466 
  990000      989.986     402.1453    16.789979   -659.84706   -643.05709    21949.259    45339.608    48215.364   -27707.195      15.2149      13.1765      28.7324    5760.2466 
  990500      990.486     376.3684    15.713767   -658.76461   -643.05084    23253.495    48390.351    51975.585    -30605.45      15.2149      13.1765      28.7324    5760.2466 
  991000      990.986    360.09023    15.034137   -658.07887   -643.04473    22299.443    49700.839    48374.456   -31176.966      15.2149      13.1765      28.7324    5760.2466 
  991500      991.486    367.80717    15.356327   -658.39797   -643.04165    22906.987    46290.798    45729.034   -23298.871      15.2149      13.1765      28.7324    5760.2466 
  992000      991.986    367.32024    15.335997   -658.37112   -643.03512    23197.608    44436.169    48268.118   -23111.462      15.2149      13.1765      28.7324    5760.2466 
  992500      992.486    372.94046    15.570647   -658.60011   -643.02946    22512.182    47063.718    51678.587   -31205.758      15.2149      13.1765      28.7324    5760.2466 
  993000      992.986    396.93162    16.572303   -659.59771    -643.0254    25297.982    46226.209    53337.466   -23669.728      15.2149      13.1765      28.7324    5760.2466 
  993500      993.486    381.95364    15.946956   -658.96618   -643.01923    22236.292    44452.975    51486.054   -29230.155      15.2149      13.1765      28.7324    5760.2466 
  994000      993.986    392.25292    16.376962   -659.39201   -643.01504    23215.512     43743.64    49904.239   -24001.343      15.2149      13.1765      28.7324    5760.2466 
  994500      994.486    364.70826    15.226945   -658.23515   -643.00821    21694.809    48275.673    47773.806   -30965.054      15.2149      13.1765      28.7324    5760.2466 
  995000      994.986    349.48675    14.591431   -657.59239   -643.00096    20578.509    43321.897    47735.541   -29321.909      15.2149      13.1765      28.7324    5760.2466 
  995500      995.486    384.63609    16.058952   -659.05739   -642.99844    21034.429    48165.078    47776.771   -32838.563      15.2149      13.1765      28.7324    5760.2466 
  996000      995.986    365.38997    15.255407   -658.24624   -642.99084    22586.517    49968.195    50425.697    -32634.34      15.2149      13.1765      28.7324    5760.2466 
  996500      996.486     405.4126    16.926392   -659.91416   -642.98777    21721.945    45310.151    47506.945   -27651.262      15.2149      13.1765      28.7324    5760.2466 
  997000      996.986    374.31382    15.627987    -658.6078   -642.97981    23072.033    48147.305    48648.099   -27579.304      15.2149      13.1765      28.7324    5760.2466 
  997500      997.486    382.24186     15.95899   -658.93462   -642.97563    22167.792    48586.788    47829.795   -29913.208      15.2149      13.1765      28.7324    5760.2466 
  998000      997.986    355.77306    14.853891   -657.82248   -642.96859    23433.309     50901.77    46986.616   -27588.458      15.2149      13.1765      28.7324    5760.2466 
  998500      998.486    386.84681    16.151251   -659.11609   -642.96483    22730.398    47094.095    48038.542   -26941.444      15.2149      13.1765      28.7324    5760.2466 
  999000      998.986    372.41922    15.548885   -658.50656   -642.95767     22994.07    50341.195    47079.711   -28438.697      15.2149      13.1765      28.7324    5760.2466 
  999500      999.486    405.38166      16.9251   -659.87927   -642.95417    21494.863    41792.951    49377.727   -26686.089      15.2149      13.1765      28.7324    5760.2466 
 1000000      999.986    385.99846    16.115832   -659.06305   -642.94722    22153.019    43801.309    49827.754   -27170.004      15.2149      13.1765      28.7324    5760.2466 
 1000014         1000    383.21148    15.999473   -658.94668   -642.94721    21637.184    41705.242    49699.229   -26492.919      15.2149      13.1765      28.7324    5760.2466 
Loop time of 950.047 on 28 procs for 1000000 steps with 324 atoms

Performance: 90.943 ns/day, 0.264 hours/ns, 1052.579 timesteps/s
89.2% CPU use with 28 MPI tasks x no OpenMP threads

MPI task timing breakdown:
Section |  min time  |  avg time  |  max time  |%varavg| %total
---------------------------------------------------------------
Pair    | 754.28     | 812.57     | 879.76     | 118.1 | 85.53
Neigh   | 0          | 0          | 0          |   0.0 |  0.00
Comm    | 58.082     | 123.78     | 181.8      | 306.5 | 13.03
Output  | 0.099064   | 0.1022     | 0.11969    |   1.2 |  0.01
Modify  | 4.3766     | 8.4136     | 15.224     | 110.7 |  0.89
Other   |            | 5.189      |            |       |  0.55

Nlocal:    11.5714 ave 15 max 7 min
Histogram: 1 6 1 1 0 3 3 6 2 5
Nghost:    643.143 ave 695 max 600 min
Histogram: 4 2 7 1 1 4 1 3 1 4
Neighs:    725.321 ave 1013 max 463 min
Histogram: 4 4 1 1 3 4 5 1 3 2
FullNghs:  1450.64 ave 1907 max 886 min
Histogram: 1 6 1 1 3 3 0 6 2 5

Total # of neighbors = 40618
Ave neighs/atom = 125.364
Neighbor list builds = 0
Dangerous builds = 0

write_restart   POSCAR_1x1x1.rest

#unfix    1
#undump   1
Total wall time: 0:15:50
