LAMMPS (7 Dec 2015)
#----------- Initialize Simulation ------------ restart01
#processors	2 2 2
units		metal
boundary	p p p     ## periodic boundary condition  on x y z axis ##
atom_style atomic
#atom_modify map array sort 0 0.0

read_data	POSCAR_1x1x1.lammps
  triclinic box = (0 0 0) to (15.2149 13.1765 28.7324) with tilt (-7.60743 0 0)
  2 by 2 by 7 MPI processor grid
  reading atoms ...
  324 atoms

#----------- Define Potential -----------------
pair_style meam
pair_coeff * * MgAlZn.library.meam Mg Al Zn MgAlZn.parameter.meam Mg Al Zn 	#1=Mg 2=Al 3=Zn	#atoms/mass

#----------- Neighbor List --------------------
neighbor 2.0 bin
neigh_modify delay 10 check yes

#--------------  Run a simulation (minimization) ---------------------------------------
minimize       1.0e-4   1.0e-6   100   1000          #結構優化的條件
WARNING: Resetting reneighboring criteria during minimization (../min.cpp:168)
Neighbor list info ...
  2 neighbor list requests
  update every 1 steps, delay 0 steps, check yes
  max neighbors/atom: 2000, page size: 100000
  master list distance cutoff = 8
  ghost atom cutoff = 8
  binsize = 4 -> bins = 6 4 8
Memory usage per processor = 8.6532 Mbytes
Step Temp E_pair E_mol TotEng Press 
       0            0   -559.04808            0   -559.04808     9602.789 
      13            0   -573.70834            0   -573.70834    5452.3503 
Loop time of 0.0235446 on 28 procs for 13 steps with 324 atoms

91.2% CPU use with 28 MPI tasks x no OpenMP threads

Minimization stats:
  Stopping criterion = energy tolerance
  Energy initial, next-to-last, final = 
        -559.048084853     -573.660151334     -573.708340677
  Force two-norm initial, final = 21.1267 1.22508
  Force max component initial, final = 3.73949 0.175015
  Final line search alpha, max atom move = 0.248177 0.0434347
  Iterations, force evaluations = 13 25

MPI task timing breakdown:
Section |  min time  |  avg time  |  max time  |%varavg| %total
---------------------------------------------------------------
Pair    | 0.019159   | 0.020021   | 0.021321   |   0.5 | 85.03
Neigh   | 0          | 0          | 0          |   0.0 |  0.00
Comm    | 0.0013506  | 0.0026345  | 0.0034985  |   1.3 | 11.19
Output  | 0          | 0          | 0          |   0.0 |  0.00
Modify  | 0          | 0          | 0          |   0.0 |  0.00
Other   |            | 0.0008893  |            |       |  3.78

Nlocal:    11.5714 ave 15 max 8 min
Histogram: 3 3 6 0 1 5 0 2 4 4
Nghost:    657.929 ave 713 max 621 min
Histogram: 12 0 0 0 7 1 0 3 2 3
Neighs:    720.893 ave 984 max 487 min
Histogram: 3 3 4 2 3 3 3 2 3 2
FullNghs:  1441.79 ave 1855 max 1002 min
Histogram: 3 3 5 1 1 5 0 2 3 5

Total # of neighbors = 40370
Ave neighs/atom = 124.599
Neighbor list builds = 0
Dangerous builds = 0
velocity all  create 393.0 4928459 #rot yes dist gaussian

#--------------  Run a simulation (Relaxation)  ----------------------------------------
fix  1  all  nvt   temp  393.0  393.0  100				#damping constant
#fix  2  all  npt   temp  393.0  393.0  50 iso 0.0 0.0 1000.0
#fix  2  all deform 1 x final 0 15.6906 y final 0 13.5884 z final 0 25.2339 xy final -7.8452 units lattice
#fix  3  all  npt   temp  393.0  393.0  50 z 0.0 0.0 1000.0

#variable b equal 1
#fix 2 all efield  0.0  0.0  v_b
#compute pot all pe/atom


#----------- Output --------------------------
thermo	 500
timestep  0.001		#1.0 fs
thermo_style	custom step time temp ke pe etotal press pxx pyy pzz lx ly lz vol

dump 1 all custom 10000 dump.eq id type x y z
dump_modify 1 sort  id

run        1000000	#10000	 ps
Neighbor list info ...
  2 neighbor list requests
  update every 1 steps, delay 10 steps, check yes
  max neighbors/atom: 2000, page size: 100000
  master list distance cutoff = 8
  ghost atom cutoff = 8
  binsize = 4 -> bins = 6 4 8
Memory usage per processor = 7.54367 Mbytes
Step Time Temp KinEng PotEng TotEng Press Pxx Pyy Pzz Lx Ly Lz Volume 
      13            0          393    16.408154   -573.70834   -557.30019    8494.9004    27806.773    38175.281   -40497.353      15.2149      13.1765      28.7324    5760.2466 
     500        0.487    222.71166    9.2984407   -566.59247   -557.29403    11384.634    33020.002    42801.347   -41667.445      15.2149      13.1765      28.7324    5760.2466 
    1000        0.987    215.72621    9.0067909   -566.30092   -557.29413    11096.215    33465.952    43744.618   -43921.924      15.2149      13.1765      28.7324    5760.2466 
    1500        1.487    208.41187    8.7014095   -565.99415   -557.29274    11257.031    33374.019    45143.423    -44746.35      15.2149      13.1765      28.7324    5760.2466 
    2000        1.987    226.51257    9.4571324   -566.74974   -557.29261    10213.016    33570.554    45864.314   -48795.819      15.2149      13.1765      28.7324    5760.2466 
    2500        2.487    234.22272     9.779039   -567.07062   -557.29159    9667.2421    32783.018    44253.142   -48034.434      15.2149      13.1765      28.7324    5760.2466 
    3000        2.987    212.53763    8.8736643   -566.16326    -557.2896    9862.8085    30237.933    42868.893   -43518.401      15.2149      13.1765      28.7324    5760.2466 
    3500        3.487    232.37886     9.702056   -566.99187   -557.28981    10360.711    34614.696     42974.68   -46507.243      15.2149      13.1765      28.7324    5760.2466 
    4000        3.987    227.38489    9.4935528   -566.78072   -557.28717    11222.027    30740.434    43354.181   -40428.534      15.2149      13.1765      28.7324    5760.2466 
    4500        4.487    226.06649    9.4385082   -566.72404   -557.28553    10781.692    31773.905    45912.771   -45341.601      15.2149      13.1765      28.7324    5760.2466 
    5000        4.987    210.03888     8.769339   -566.05191   -557.28257    11392.543    33700.804    45457.897   -44981.071      15.2149      13.1765      28.7324    5760.2466 
    5500        5.487    226.58971    9.4603529   -566.74209   -557.28173    11872.479    33404.211    49013.506    -46800.28      15.2149      13.1765      28.7324    5760.2466 
    6000        5.987    216.86624    9.0543883   -566.33321   -557.27882    11195.077    32828.605    50194.776   -49438.151      15.2149      13.1765      28.7324    5760.2466 
    6500        6.487    228.84729    9.5546095   -566.83202   -557.27741    11125.405    32324.525    46603.501   -45551.812      15.2149      13.1765      28.7324    5760.2466 
    7000        6.987    227.08416    9.4809968   -566.75499   -557.27399    11568.641    34276.596    46956.059   -46526.733      15.2149      13.1765      28.7324    5760.2466 
    7500        7.487    225.12496    9.3991983   -566.67036   -557.27116    10995.334    32328.333     46789.57   -46131.901      15.2149      13.1765      28.7324    5760.2466 
    8000        7.987    221.64515    9.2539126   -566.52153   -557.26762     11340.91    35277.332    47864.679   -49119.282      15.2149      13.1765      28.7324    5760.2466 
    8500        8.487    228.37343    9.5348252   -566.79993    -557.2651    12092.566    33686.924    46567.752   -43976.977      15.2149      13.1765      28.7324    5760.2466 
    9000        8.987    216.98944    9.0595318   -566.32051   -557.26097    11633.704    33721.009    46619.008   -45438.905      15.2149      13.1765      28.7324    5760.2466 
    9500        9.487    227.84386     9.512715   -566.76964   -557.25693    11447.066    32348.492    46628.088   -44635.383      15.2149      13.1765      28.7324    5760.2466 
   10000        9.987    212.79728    8.8845048   -566.13729   -557.25279    9341.4513    30677.671    46044.297   -48697.614      15.2149      13.1765      28.7324    5760.2466 
   10500       10.487    217.49636    9.0806966   -566.33025   -557.24955    10631.438    31328.744    46343.234   -45777.662      15.2149      13.1765      28.7324    5760.2466 
   11000       10.987    228.84889    9.5546759   -566.79912   -557.24444    11011.766     32293.61    44668.805   -43927.117      15.2149      13.1765      28.7324    5760.2466 
   11500       11.487    225.48171    9.4140931   -566.65462   -557.24053    10997.936    35184.265    49166.723   -51357.179      15.2149      13.1765      28.7324    5760.2466 
   12000       11.987    241.02942    10.063226   -567.29935   -557.23613    10673.874    34090.283    46774.511   -48843.172      15.2149      13.1765      28.7324    5760.2466 
   12500       12.487    231.18339     9.652144   -566.88312   -557.23098    10788.047    32152.046    46688.937    -46476.84      15.2149      13.1765      28.7324    5760.2466 
   13000       12.987     215.8081    9.0102097   -566.23534   -557.22513     11587.87      36281.4    44945.552   -46463.344      15.2149      13.1765      28.7324    5760.2466 
   13500       13.487      222.673    9.2968264   -566.51665   -557.21983    11221.476    35384.051    49221.226    -50940.85      15.2149      13.1765      28.7324    5760.2466 
   14000       13.987     224.0905    9.3560083   -566.57047   -557.21446    12122.175     33951.45    47290.458   -44875.382      15.2149      13.1765      28.7324    5760.2466 
   14500       14.487    216.89007     9.055383   -566.26375   -557.20836     10535.02    31209.525    49062.019   -48666.485      15.2149      13.1765      28.7324    5760.2466 
   15000       14.987    224.64123    9.3790021   -566.58129   -557.20229    11615.631    31842.141    46374.383   -43369.631      15.2149      13.1765      28.7324    5760.2466 
   15500       15.487    226.17655    9.4431032   -566.63954   -557.19644    11055.186     29030.19     47793.28   -43657.914      15.2149      13.1765      28.7324    5760.2466 
   16000       15.987    226.45904    9.4548973   -566.64428   -557.18938     10574.59    31661.717     48164.28   -48102.227      15.2149      13.1765      28.7324    5760.2466 
   16500       16.487    230.57645    9.6268037   -566.81019   -557.18338    9864.6777    28377.407    46375.313   -45158.687      15.2149      13.1765      28.7324    5760.2466 
   17000       16.987    241.75515    10.093526   -567.27123   -557.17771    9642.2099    29921.016    43115.358   -44109.744      15.2149      13.1765      28.7324    5760.2466 
   17500       17.487    230.56509    9.6263294   -566.79617   -557.16984    10551.729    36014.374    47374.462   -51733.648      15.2149      13.1765      28.7324    5760.2466 
   18000       17.987    212.60427    8.8764466   -566.03871   -557.16226    10096.814    31161.345    50154.173   -51025.078      15.2149      13.1765      28.7324    5760.2466 
   18500       18.487    227.75824    9.5091405   -566.66488   -557.15574    10908.552    30831.862    45810.639   -43916.846      15.2149      13.1765      28.7324    5760.2466 
   19000       18.987    230.09866    9.6068554   -566.75515   -557.14829    11813.295    33435.563    48035.637   -46031.315      15.2149      13.1765      28.7324    5760.2466 
   19500       19.487    238.58281    9.9610772   -567.10184   -557.14076    11393.424    31582.812    46472.842   -43875.383      15.2149      13.1765      28.7324    5760.2466 
   20000       19.987    221.41204    9.2441802   -566.37613   -557.13195    11407.703      31059.4    51185.885   -48022.177      15.2149      13.1765      28.7324    5760.2466 
   20500       20.487    240.49116    10.040753   -567.16536    -557.1246    11998.692     31902.02    43407.347   -39313.291      15.2149      13.1765      28.7324    5760.2466 
   21000       20.987    216.13817    9.0239904   -566.13998   -557.11599    11436.236    32857.497    46156.221    -44705.01      15.2149      13.1765      28.7324    5760.2466 
   21500       21.487    229.33787    9.5750917   -566.68236   -557.10727    11459.364    27441.618    46978.524    -40042.05      15.2149      13.1765      28.7324    5760.2466 
   22000       21.987    234.06231    9.7723419   -566.87187   -557.09953    11488.895    29750.194    48367.165   -43650.674      15.2149      13.1765      28.7324    5760.2466 
   22500       22.487    231.32267     9.657959   -566.74846    -557.0905    11886.648    33483.893    46180.678   -44004.626      15.2149      13.1765      28.7324    5760.2466 
   23000       22.987    220.34683    9.1997065   -566.27975   -557.08004    10065.736    30136.077    47291.758   -47230.626      15.2149      13.1765      28.7324    5760.2466 
   23500       23.487    228.86631    9.5554034   -566.62737   -557.07197    10351.312    30899.128    46620.785   -46465.978      15.2149      13.1765      28.7324    5760.2466 
   24000       23.987    239.18136    9.9860672   -567.04884   -557.06278    10215.627    33469.994    44397.517   -47220.629      15.2149      13.1765      28.7324    5760.2466 
   24500       24.487    254.09505    10.608729   -567.66228   -557.05355    10948.637    30705.435    45308.209   -43167.733      15.2149      13.1765      28.7324    5760.2466 
   25000       24.987    238.30852    9.9496256   -566.99267   -557.04304    11215.133    35286.777    45095.634   -46737.012      15.2149      13.1765      28.7324    5760.2466 
   25500       25.487    227.35812    9.4924349   -566.52514    -557.0327    11092.065     32884.63    44672.439   -44280.874      15.2149      13.1765      28.7324    5760.2466 
   26000       25.987    236.74917    9.8845208   -566.90707   -557.02255    10976.862    30443.635    46572.532   -44085.581      15.2149      13.1765      28.7324    5760.2466 
   26500       26.487     233.6988     9.757165   -566.76994   -557.01277     10556.18    30929.592    46401.808   -45662.862      15.2149      13.1765      28.7324    5760.2466 
   27000       26.987    235.88114    9.8482797   -566.85022   -557.00194    11305.094    31384.857    48997.969   -46467.545      15.2149      13.1765      28.7324    5760.2466 
   27500       27.487    231.13234    9.6500126   -566.64143   -556.99142    11634.464    33376.805    47367.728   -45841.142      15.2149      13.1765      28.7324    5760.2466 
   28000       27.987    223.09347    9.3143814   -566.29566   -556.98128    11888.941    35131.891    46832.482    -46297.55      15.2149      13.1765      28.7324    5760.2466 
   28500       28.487    240.73988    10.051137   -567.02105   -556.96991    11188.356    34019.669    43195.253   -43649.853      15.2149      13.1765      28.7324    5760.2466 
   29000       28.987    238.11942    9.9417304   -566.90062   -556.95889    10635.971    31845.989    41961.762   -41899.837      15.2149      13.1765      28.7324    5760.2466 
   29500       29.487    236.92709    9.8919491   -566.83887   -556.94692    10984.705    34323.795    45121.713   -46491.395      15.2149      13.1765      28.7324    5760.2466 
   30000       29.987    227.61162    9.5030189   -566.43874   -556.93572    12215.794    30357.891    46483.012   -40193.522      15.2149      13.1765      28.7324    5760.2466 
   30500       30.487    232.40818    9.7032803   -566.62833   -556.92505    10775.122    31183.734     47077.32   -45935.689      15.2149      13.1765      28.7324    5760.2466 
   31000       30.987    235.97448    9.8521767    -566.7655   -556.91332    12220.939    32441.323    46077.567   -41856.072      15.2149      13.1765      28.7324    5760.2466 
   31500       31.487    240.23535    10.030073   -566.93154   -556.90146    11601.899    31209.034    45648.157   -42051.493      15.2149      13.1765      28.7324    5760.2466 
   32000       31.987     232.1379    9.6919957     -566.581     -556.889    10648.697     29393.11    51451.123   -48898.143      15.2149      13.1765      28.7324    5760.2466 
   32500       32.487    231.34231     9.658779   -566.53543   -556.87665    10267.048    32415.712    45361.985   -46976.554      15.2149      13.1765      28.7324    5760.2466 
   33000       32.987    237.42224    9.9126225   -566.77906   -556.86644    11602.107    30630.673    45870.241   -41694.592      15.2149      13.1765      28.7324    5760.2466 
   33500       33.487    233.10384    9.7323248   -566.58597   -556.85364    10081.248    32248.828    43632.515   -45637.598      15.2149      13.1765      28.7324    5760.2466 
   34000       33.987    231.94514    9.6839478   -566.52436   -556.84041    10854.786    33402.967    46698.623   -47537.231      15.2149      13.1765      28.7324    5760.2466 
   34500       34.487     228.6457    9.5461928   -566.37435   -556.82816    10343.306     29638.48    48544.866   -47153.427      15.2149      13.1765      28.7324    5760.2466 
   35000       34.987    238.73766    9.9675424   -566.78365   -556.81611    11360.182    32324.295    45536.797   -43780.546      15.2149      13.1765      28.7324    5760.2466 
   35500       35.487    238.23608    9.9466009   -566.74987   -556.80327    10067.249    34798.326    48517.673   -53114.252      15.2149      13.1765      28.7324    5760.2466 
   36000       35.987    233.28536    9.7399035      -566.53    -556.7901    10116.163    32322.917    47058.901   -49033.328      15.2149      13.1765      28.7324    5760.2466 
   36500       36.487    225.46537    9.4134107   -566.19069   -556.77728    11178.053    32092.249    48196.962   -46755.052      15.2149      13.1765      28.7324    5760.2466 
   37000       36.987    244.30937    10.200167   -566.96606   -556.76589    10303.696    30075.877    46829.706   -45994.496      15.2149      13.1765      28.7324    5760.2466 
   37500       37.487    229.42956    9.5789198   -566.33123   -556.75231    10898.497     34499.82    45742.947   -47547.275      15.2149      13.1765      28.7324    5760.2466 
   38000       37.987     249.4328    10.414075   -567.15413   -556.74006    11152.958    30560.656    46965.709   -44067.491      15.2149      13.1765      28.7324    5760.2466 
   38500       38.487    223.95165    9.3502112   -566.07581    -556.7256    10845.875    31325.722    44994.234   -43782.332      15.2149      13.1765      28.7324    5760.2466 
   39000       38.987    233.53332     9.750256   -566.46362   -556.71336    10219.345    34193.101     45123.69   -48658.756      15.2149      13.1765      28.7324    5760.2466 
   39500       39.487    248.10587    10.358675   -567.05913   -556.70046    10044.189    32902.396     42556.25    -45326.08      15.2149      13.1765      28.7324    5760.2466 
   40000       39.987    229.85211    9.5965618   -566.28315   -556.68659    12196.276    33767.561    48008.755    -45187.49      15.2149      13.1765      28.7324    5760.2466 
   40500       40.487    246.61806    10.296557   -566.97085    -556.6743    10865.405    33515.983    43460.958   -44380.727      15.2149      13.1765      28.7324    5760.2466 
   41000       40.987     236.2935    9.8654964   -566.52686   -556.66137    12122.487    31193.753    49199.565   -44025.856      15.2149      13.1765      28.7324    5760.2466 
   41500       41.487    231.88307    9.6813564   -566.32895   -556.64759    11123.402    30284.412    47188.679   -44102.883      15.2149      13.1765      28.7324    5760.2466 
   42000       41.987     235.7576    9.8431218   -566.47793   -556.63481    10785.858    35093.288     47240.95   -49976.666      15.2149      13.1765      28.7324    5760.2466 
   42500       42.487    232.26789     9.697423   -566.31826   -556.62084    9667.4377    32083.764    44915.727   -47997.178      15.2149      13.1765      28.7324    5760.2466 
   43000       42.987    232.22117    9.6954721   -566.30385   -556.60838    12104.939    32654.808    50395.026   -46735.018      15.2149      13.1765      28.7324    5760.2466 
   43500       43.487    244.74636    10.218412    -566.8135   -556.59509    10892.916    32361.263    44905.569   -44588.085      15.2149      13.1765      28.7324    5760.2466 
   44000       43.987    227.06245    9.4800904   -566.06148   -556.58139    10977.143    32111.958    45547.151   -44727.679      15.2149      13.1765      28.7324    5760.2466 
   44500       44.487    240.10502    10.024631   -566.59362   -556.56899    9239.5193     30539.33    46197.825   -49018.597      15.2149      13.1765      28.7324    5760.2466 
   45000       44.987    234.78125    9.8023582   -566.35787   -556.55551    12379.697    30159.719     50259.56   -43280.188      15.2149      13.1765      28.7324    5760.2466 
   45500       45.487    243.57336    10.169438   -566.71245   -556.54301    12090.417    30112.304    48107.397   -41948.449      15.2149      13.1765      28.7324    5760.2466 
   46000       45.987    235.41238    9.8287087   -566.35825   -556.52955    11163.939    34176.205    43179.511     -43863.9      15.2149      13.1765      28.7324    5760.2466 
   46500       46.487    242.21769    10.112837   -566.63018   -556.51735    11316.505    33319.168    41439.849   -40809.502      15.2149      13.1765      28.7324    5760.2466 
   47000       46.987    235.37209    9.8270266   -566.32989   -556.50286    10823.753    30319.767    46402.248   -44250.757      15.2149      13.1765      28.7324    5760.2466 
   47500       47.487    230.68769    9.6314478   -566.12163   -556.49018    10957.931    32480.929    43718.724   -43325.861      15.2149      13.1765      28.7324    5760.2466 
   48000       47.987    229.52564    9.5829311   -566.05984   -556.47691    11189.123    28862.058    44964.874   -40259.564      15.2149      13.1765      28.7324    5760.2466 
   48500       48.487    239.27283    9.9898864   -566.45425   -556.46437    11215.869    32567.589    44871.178    -43791.16      15.2149      13.1765      28.7324    5760.2466 
   49000       48.987    232.15453      9.69269   -566.14438   -556.45169    11742.873    31861.645    45701.895    -42334.92      15.2149      13.1765      28.7324    5760.2466 
   49500       49.487    252.96756    10.561655   -567.00092   -556.43926    10547.393    32177.974    44146.099   -44681.894      15.2149      13.1765      28.7324    5760.2466 
   50000       49.987    237.97965    9.9358947   -566.36159   -556.42569      12426.2    31664.428    47506.287   -41892.115      15.2149      13.1765      28.7324    5760.2466 
   50500       50.487    241.71289    10.091761   -566.50563   -556.41387    11421.621     32602.31    47560.956   -45898.404      15.2149      13.1765      28.7324    5760.2466 
   51000       50.987    240.63909    10.046929   -566.44783    -556.4009    10660.765     29149.54    50708.897   -47876.142      15.2149      13.1765      28.7324    5760.2466 
   51500       51.487    235.62244    9.8374787    -566.2254   -556.38792     11190.93      30807.9     44672.08   -41907.189      15.2149      13.1765      28.7324    5760.2466 
   52000       51.987    234.43846    9.7880465   -566.16387   -556.37582    12227.786    31444.389     44260.02    -39021.05      15.2149      13.1765      28.7324    5760.2466 
   52500       52.487    243.27283     10.15689   -566.52102   -556.36413    10362.447     34011.83    45112.411   -48036.901      15.2149      13.1765      28.7324    5760.2466 
   53000       52.987    238.65521       9.9641   -566.31601   -556.35191    11041.294    33817.136    44576.702   -45269.955      15.2149      13.1765      28.7324    5760.2466 
   53500       53.487    229.26266    9.5719513   -565.91101   -556.33905    10719.656    35615.016     45835.14   -49291.188      15.2149      13.1765      28.7324    5760.2466 
   54000       53.987    247.62919    10.338773   -566.66624   -556.32747    9683.9417    32321.423    48346.106   -51615.704      15.2149      13.1765      28.7324    5760.2466 
   54500       54.487    228.14279    9.5251956   -565.84018   -556.31499    11376.971    36918.586    44903.936    -47691.61      15.2149      13.1765      28.7324    5760.2466 
   55000       54.987    234.33259    9.7836261   -566.08684   -556.30322     9399.329    31030.887    46920.681   -49753.581      15.2149      13.1765      28.7324    5760.2466 
   55500       55.487    255.40544    10.663439   -566.95537   -556.29193    12101.378    34407.536    47841.017   -45944.418      15.2149      13.1765      28.7324    5760.2466 
   56000       55.987     242.2615    10.114666   -566.39428   -556.27961     11146.08    32150.296    48180.623    -46892.68      15.2149      13.1765      28.7324    5760.2466 
   56500       56.487    239.76241    10.010327   -566.27658   -556.26625    12045.837     36545.59    47482.296   -47890.375      15.2149      13.1765      28.7324    5760.2466 
   57000       56.987    245.49812    10.249798   -566.50431   -556.25452    11337.908    33591.402    46254.424   -45832.101      15.2149      13.1765      28.7324    5760.2466 
   57500       57.487    242.67931     10.13211   -566.37489   -556.24278    11591.159    34484.653    46024.239   -45735.415      15.2149      13.1765      28.7324    5760.2466 
   58000       57.987    237.82676    9.9295113   -566.16016   -556.23065    12062.632    31302.434    46016.989   -41131.528      15.2149      13.1765      28.7324    5760.2466 
   58500       58.487    237.80878    9.9287606   -566.14698   -556.21822    11649.125    32322.519    48101.547   -45476.691      15.2149      13.1765      28.7324    5760.2466 
   59000       58.987    245.45371    10.247945   -566.45564   -556.20769    11985.326    32972.918    46478.022   -43494.961      15.2149      13.1765      28.7324    5760.2466 
   59500       59.487     241.2259    10.071429   -566.26769   -556.19626    10393.708    35707.469    42975.636   -47501.981      15.2149      13.1765      28.7324    5760.2466 
   60000       59.987    242.90924     10.14171   -566.32581    -556.1841    11189.005    31980.551    48134.248   -46547.784      15.2149      13.1765      28.7324    5760.2466 
   60500       60.487    242.76541    10.135705   -566.30964   -556.17393    10211.869    32588.133    44399.435    -46351.96      15.2149      13.1765      28.7324    5760.2466 
   61000       60.987     232.1808    9.6937868   -565.85606   -556.16228     11674.72    35933.873    43518.017   -44427.729      15.2149      13.1765      28.7324    5760.2466 
   61500       61.487    243.26063    10.156381   -566.30753   -556.15114    11071.367    31987.359    45914.826   -44688.085      15.2149      13.1765      28.7324    5760.2466 
   62000       61.987     236.6853    9.8818543   -566.02098   -556.13913     12021.73    33481.256    46962.013   -44378.078      15.2149      13.1765      28.7324    5760.2466 
   62500       62.487    245.04881     10.23104    -566.3602   -556.12916    11585.115    34129.734    45061.943   -44436.332      15.2149      13.1765      28.7324    5760.2466 
   63000       62.987     251.0197     10.48033    -566.5984   -556.11807    11220.709    33024.559    46815.469   -46177.901      15.2149      13.1765      28.7324    5760.2466 
   63500       63.487    222.98955    9.3100428   -565.41578   -556.10574    10515.204    33318.698    41115.028   -42888.114      15.2149      13.1765      28.7324    5760.2466 
   64000       63.987     250.1492    10.443986   -566.53912   -556.09513    11777.684    34728.935    47191.909   -46587.791      15.2149      13.1765      28.7324    5760.2466 
   64500       64.487    257.22651    10.739471   -566.82428   -556.08481    11415.409    34408.473    45568.746   -45730.993      15.2149      13.1765      28.7324    5760.2466 
   65000       64.987    239.72924    10.008942   -566.08091   -556.07197    11701.319    34241.033    45902.101   -45039.178      15.2149      13.1765      28.7324    5760.2466 
   65500       65.487    259.00716    10.813815    -566.8758   -556.06198    10593.792    33703.973    45768.365   -47690.964      15.2149      13.1765      28.7324    5760.2466 
   66000       65.987    234.35462     9.784546   -565.83478   -556.05023    12277.955    35772.876    45464.066   -44403.076      15.2149      13.1765      28.7324    5760.2466 
   66500       66.487    230.72908    9.6331759   -565.67158   -556.03841    11784.801    33731.317    47478.501   -45855.415      15.2149      13.1765      28.7324    5760.2466 
   67000       66.987    249.94854    10.435608   -566.46432   -556.02871    11254.072    32543.044    45927.353   -44708.181      15.2149      13.1765      28.7324    5760.2466 
   67500       67.487    243.77666    10.177926   -566.19555   -556.01762    11113.616    34036.311    45946.246   -46641.708      15.2149      13.1765      28.7324    5760.2466 
   68000       67.987    237.05714     9.897379   -565.90391   -556.00654    11129.135    31327.161    43733.712   -41673.469      15.2149      13.1765      28.7324    5760.2466 
   68500       68.487    236.34785    9.8677654   -565.86395   -555.99619     11893.17    29735.201    48538.783   -42594.473      15.2149      13.1765      28.7324    5760.2466 
   69000       68.987    244.01013    10.187674   -566.17325   -555.98558    12403.313    33497.178    46584.646   -42871.886      15.2149      13.1765      28.7324    5760.2466 
   69500       69.487    229.09315    9.5648745   -565.53826   -555.97338    10982.215    33167.401    46291.479   -46512.236      15.2149      13.1765      28.7324    5760.2466 
   70000       69.987    246.55731    10.294021   -566.25744   -555.96342    11782.912    33212.658    50192.558    -48056.48      15.2149      13.1765      28.7324    5760.2466 
   70500       70.487    255.40414    10.663385   -566.61619   -555.95281    12090.371    34069.753     45280.67   -43079.309      15.2149      13.1765      28.7324    5760.2466 
   71000       70.987    244.43509    10.205416    -566.1472   -555.94178    11770.886    34168.195    47648.427   -46503.965      15.2149      13.1765      28.7324    5760.2466 
   71500       71.487    247.12468    10.317709   -566.24836   -555.93065    10075.529    34045.109    48193.597   -52012.117      15.2149      13.1765      28.7324    5760.2466 
   72000       71.987    238.32953    9.9505027   -565.86989   -555.91938    11209.523    33105.427    48577.088   -48053.946      15.2149      13.1765      28.7324    5760.2466 
   72500       72.487    253.13402    10.568605   -566.47795   -555.90935    10612.466    33054.359    43805.306   -45022.268      15.2149      13.1765      28.7324    5760.2466 
   73000       72.987    247.74562    10.343634   -566.24202   -555.89839    10698.936    34848.918    41950.152   -44702.261      15.2149      13.1765      28.7324    5760.2466 
   73500       73.487     249.0282    10.397183   -566.28464   -555.88746    11654.101     30326.05    50906.803    -46270.55      15.2149      13.1765      28.7324    5760.2466 
   74000       73.987    249.03247    10.397361   -566.27499   -555.87763    9899.1303     32143.71     48131.97   -50578.289      15.2149      13.1765      28.7324    5760.2466 
   74500       74.487    238.24359    9.9469146   -565.81308   -555.86616    10389.884    36973.425    47301.864   -53105.637      15.2149      13.1765      28.7324    5760.2466 
   75000       74.987    250.12337    10.442907   -566.29818   -555.85527    11838.438    30440.318     48843.38   -43768.384      15.2149      13.1765      28.7324    5760.2466 
   75500       75.487    252.61709    10.547023   -566.39121   -555.84418    10830.644    31826.904    46592.145   -45927.117      15.2149      13.1765      28.7324    5760.2466 
   76000       75.987    252.44454    10.539819   -566.37429   -555.83447    11889.725    31904.992    45529.636   -41765.454      15.2149      13.1765      28.7324    5760.2466 
   76500       76.487    240.32936    10.033998   -565.85644   -555.82244    10736.542    29730.859    47382.116   -44903.348      15.2149      13.1765      28.7324    5760.2466 
   77000       76.987    237.02329    9.8959656   -565.70724   -555.81128    12731.485    35015.781    44917.921   -41739.245      15.2149      13.1765      28.7324    5760.2466 
   77500       77.487    233.41823    9.7454506   -565.54573   -555.80028    12428.873    31297.059      47959.7    -41970.14      15.2149      13.1765      28.7324    5760.2466 
   78000       77.987    244.93486    10.226282   -566.01626   -555.78998    11103.191     34815.24    47979.538   -49485.206      15.2149      13.1765      28.7324    5760.2466 
   78500       78.487    267.88878    11.184632    -566.9648   -555.78017     10663.21    32380.403    42902.839   -43293.611      15.2149      13.1765      28.7324    5760.2466 
   79000       78.987    246.65099    10.297932   -566.06564   -555.76771    11663.243    34711.333    46450.724   -46172.329      15.2149      13.1765      28.7324    5760.2466 
   79500       79.487    244.47072    10.206904   -565.96357   -555.75667    11820.704    34356.148    48001.993   -46896.029      15.2149      13.1765      28.7324    5760.2466 
   80000       79.987    245.69907    10.258189   -566.00331   -555.74512    11619.007    37667.862    43139.389    -45950.23      15.2149      13.1765      28.7324    5760.2466 
   80500       80.487    250.92707    10.476463   -566.21193   -555.73547    11107.798    31139.423    49026.165   -46842.194      15.2149      13.1765      28.7324    5760.2466 
   81000       80.987    249.72284    10.426185   -566.15013   -555.72395    9960.6141    30167.488    43837.375    -44123.02      15.2149      13.1765      28.7324    5760.2466 
   81500       81.487    263.59362    11.005304   -566.71846   -555.71316     11464.34    32455.154    50717.475   -48779.607      15.2149      13.1765      28.7324    5760.2466 
   82000       81.987    242.06705    10.106548   -565.80738   -555.70083    11923.857    33351.629    49970.465   -47550.522      15.2149      13.1765      28.7324    5760.2466 
   82500       82.487    247.42252    10.330144   -566.02031   -555.69016     10820.33    33083.433     42546.81   -43169.253      15.2149      13.1765      28.7324    5760.2466 
   83000       82.987     235.5675    9.8351849    -565.5139   -555.67871    10400.096    31253.728    47844.186   -47897.627      15.2149      13.1765      28.7324    5760.2466 
   83500       83.487    241.02222    10.062925    -565.7313   -555.66837    11195.122     31446.96     47097.72   -44959.313      15.2149      13.1765      28.7324    5760.2466 
   84000       83.987    241.45898     10.08116   -565.73723   -555.65607    11505.234    30898.304    48471.076   -44853.676      15.2149      13.1765      28.7324    5760.2466 
   84500       84.487    246.29598     10.28311   -565.92957   -555.64646    10970.595     34498.58    47199.137   -48785.932      15.2149      13.1765      28.7324    5760.2466 
   85000       84.987    245.83284    10.263774   -565.89736   -555.63359    11805.916     35479.93    45929.733   -45991.914      15.2149      13.1765      28.7324    5760.2466 
   85500       85.487    234.70906    9.7993441   -565.42151   -555.62216    11470.083    34063.672    50351.635   -50005.057      15.2149      13.1765      28.7324    5760.2466 
   86000       85.987    241.03869    10.063613   -565.67498   -555.61137    10712.085    34750.901    46774.212   -49388.859      15.2149      13.1765      28.7324    5760.2466 
   86500       86.487    250.58659    10.462247   -566.06249   -555.60025    11531.093     35940.14    48468.952   -49815.812      15.2149      13.1765      28.7324    5760.2466 
   87000       86.987    243.27058    10.156796   -565.74516   -555.58837    12417.164    31491.717    49652.848   -43893.074      15.2149      13.1765      28.7324    5760.2466 
   87500       87.487    242.60632    10.129063   -565.70544   -555.57637    12996.879    34025.947    49496.491     -44531.8      15.2149      13.1765      28.7324    5760.2466 
   88000       87.987    258.70655    10.801264   -566.36753   -555.56626    10396.564    34102.209    45298.727   -48211.243      15.2149      13.1765      28.7324    5760.2466 
   88500       88.487    245.96251    10.269187   -565.82375   -555.55456    11387.538    37757.431     44720.97   -48315.786      15.2149      13.1765      28.7324    5760.2466 
   89000       88.987    251.87848    10.516185   -566.05884   -555.54265    10744.356    36753.376    40880.473   -45400.781      15.2149      13.1765      28.7324    5760.2466 
   89500       89.487    235.92958    9.8503024   -565.37975   -555.52944    11138.985    33684.301    45699.221   -45966.567      15.2149      13.1765      28.7324    5760.2466 
   90000       89.987    262.91544     10.97699   -566.49585   -555.51886    10659.955     34897.88    44997.897   -47915.911      15.2149      13.1765      28.7324    5760.2466 
   90500       90.487    257.60931    10.755453   -566.26197   -555.50651    10788.093    34450.814    46604.392   -48690.926      15.2149      13.1765      28.7324    5760.2466 
   91000       90.987    250.45802     10.45688   -565.95222   -555.49534    10861.605    33653.335    46914.847   -47983.366      15.2149      13.1765      28.7324    5760.2466 
   91500       91.487    248.63755    10.380873   -565.86389   -555.48301     10172.42    33021.341    46707.813   -49211.893      15.2149      13.1765      28.7324    5760.2466 
   92000       91.987    244.37468    10.202894   -565.67296   -555.47006    11828.423    33018.535    46805.677   -44338.944      15.2149      13.1765      28.7324    5760.2466 
   92500       92.487    241.89432    10.099336    -565.5578   -555.45847    12089.866    33822.311        45835   -43387.712      15.2149      13.1765      28.7324    5760.2466 
   93000       92.987    255.61986    10.672392   -566.11816   -555.44577     10754.39    31833.125    47193.544   -46763.498      15.2149      13.1765      28.7324    5760.2466 
   93500       93.487    255.92786    10.685251   -566.11927   -555.43402    10502.554    35848.836    44992.594    -49333.77      15.2149      13.1765      28.7324    5760.2466 
   94000       93.987    251.97528    10.520227   -565.94271   -555.42249     11573.45    32134.233    47216.031   -44629.913      15.2149      13.1765      28.7324    5760.2466 
   94500       94.487    254.64023    10.631491   -566.04141   -555.40992     11598.25    34224.157    48753.648   -48183.056      15.2149      13.1765      28.7324    5760.2466 
   95000       94.987    247.44872    10.331238   -565.72751   -555.39627     10616.49    33123.708    45195.176   -46469.413      15.2149      13.1765      28.7324    5760.2466 
   95500       95.487    255.24002    10.656533   -566.04044    -555.3839    12259.377    31906.452    47173.535   -42301.858      15.2149      13.1765      28.7324    5760.2466 
   96000       95.987    251.05391    10.481758    -565.8534   -555.37164    12313.209    37632.217    46472.467   -47165.057      15.2149      13.1765      28.7324    5760.2466 
   96500       96.487    245.42953    10.246935    -565.6051   -555.35816    9912.6605    31505.732    45950.923   -47718.673      15.2149      13.1765      28.7324    5760.2466 
   97000       96.987    264.38852    11.038492   -566.38543   -555.34694    11715.928    33544.332    46093.498   -44490.045      15.2149      13.1765      28.7324    5760.2466 
   97500       97.487    248.53159    10.376449   -565.71024   -555.33379    13419.361    32658.428    43979.613   -36379.958      15.2149      13.1765      28.7324    5760.2466 
   98000       97.987    263.43615     10.99873   -566.32001   -555.32128    11725.294    34193.501    46816.965   -45834.584      15.2149      13.1765      28.7324    5760.2466 
   98500       98.487    250.23124    10.447411   -565.75512   -555.30771    9945.1361    34075.254    45982.432   -50222.278      15.2149      13.1765      28.7324    5760.2466 
   99000       98.987    247.99751    10.354151    -565.6492   -555.29505    11487.741    35033.378    48069.852   -48640.007      15.2149      13.1765      28.7324    5760.2466 
   99500       99.487    254.97602    10.645511   -565.92746   -555.28195    11937.957    34331.675    48900.213   -47418.018      15.2149      13.1765      28.7324    5760.2466 
  100000       99.987    259.98674    10.854713   -566.12362   -555.26891    11227.366    33207.233    48514.857   -48039.991      15.2149      13.1765      28.7324    5760.2466 
  100500      100.487    253.66196    10.590647   -565.84699   -555.25634    11895.365    34059.291    44718.472   -43091.669      15.2149      13.1765      28.7324    5760.2466 
  101000      100.987    246.61653    10.296493    -565.5393   -555.24281    11381.786    34761.994    45843.845   -46460.479      15.2149      13.1765      28.7324    5760.2466 
  101500      101.487    246.42974    10.288695   -565.51863   -555.22994    9846.4397    33772.595    48843.759   -53077.035      15.2149      13.1765      28.7324    5760.2466 
  102000      101.987    245.11046    10.233613   -565.44955   -555.21593    11102.487    34473.283    43314.406   -44480.227      15.2149      13.1765      28.7324    5760.2466 
  102500      102.487    254.85677    10.640532   -565.84398   -555.20344    10954.922     31226.03    44052.541   -42413.805      15.2149      13.1765      28.7324    5760.2466 
  103000      102.987    265.41945    11.081534   -566.27169   -555.19016    11104.341    35502.141     44452.27   -46641.389      15.2149      13.1765      28.7324    5760.2466 
  103500      103.487    246.42568    10.288525    -565.4643   -555.17577    11466.216    36377.139    47130.344   -49108.835      15.2149      13.1765      28.7324    5760.2466 
  104000      103.987    269.13977    11.236862   -566.40151   -555.16465    10685.146    33947.875    46727.296   -48619.733      15.2149      13.1765      28.7324    5760.2466 
  104500      104.487    266.75358    11.137236   -566.28742   -555.15019    11898.877    34838.548    47907.785   -47049.701      15.2149      13.1765      28.7324    5760.2466 
  105000      104.987    257.72526    10.760294   -565.89666   -555.13636    11449.611    34176.558    48981.077   -48808.802      15.2149      13.1765      28.7324    5760.2466 
  105500      105.487     242.7175    10.133705   -565.25587   -555.12216    12008.557    32419.828    45129.027   -41523.185      15.2149      13.1765      28.7324    5760.2466 
  106000      105.987    250.24611    10.448032   -565.55709   -555.10906    10325.782    34201.478    47175.954   -50400.086      15.2149      13.1765      28.7324    5760.2466 
  106500      106.487    260.74478    10.886362   -565.98283   -555.09647    12327.074    37298.275    45225.857    -45542.91      15.2149      13.1765      28.7324    5760.2466 
  107000      106.987    254.67941    10.633127   -565.71478   -555.08166    10285.462     35009.87    46394.431   -50547.913      15.2149      13.1765      28.7324    5760.2466 
  107500      107.487    251.23046     10.48913   -565.55757   -555.06844    11520.924    34248.002    45767.212   -45452.443      15.2149      13.1765      28.7324    5760.2466 
  108000      107.987    263.29167    10.992698   -566.04681   -555.05411    10346.055     33807.93    45337.311   -48107.077      15.2149      13.1765      28.7324    5760.2466 
  108500      108.487    251.87794    10.516163   -565.55638   -555.04022    11866.083    33951.012    47118.526   -45471.289      15.2149      13.1765      28.7324    5760.2466 
  109000      108.987    240.13571    10.025912   -565.05216   -555.02625    12627.375    34288.084    48567.611   -44973.569      15.2149      13.1765      28.7324    5760.2466 
  109500      109.487    264.13724    11.028001   -566.04144   -555.01344    13094.809    31761.674    45547.114   -38024.362      15.2149      13.1765      28.7324    5760.2466 
  110000      109.987    254.55254     10.62783   -565.62619   -554.99836    10846.214    30640.395    44092.273   -42194.025      15.2149      13.1765      28.7324    5760.2466 
  110500      110.487    265.23786    11.073953   -566.05956   -554.98561     11955.71    33536.099    50659.988   -48328.956      15.2149      13.1765      28.7324    5760.2466 
  111000      110.987    241.25603    10.072687   -565.04245   -554.96976    11251.232    35214.306    47254.553   -48715.164      15.2149      13.1765      28.7324    5760.2466 
  111500      111.487    255.66788    10.674396   -565.63006   -554.95566    12350.191    33592.095    47632.356   -44173.879      15.2149      13.1765      28.7324    5760.2466 
  112000      111.987    273.06271    11.400649   -566.34323   -554.94258    10177.072    33266.077    44071.184   -46806.044      15.2149      13.1765      28.7324    5760.2466 
  112500      112.487    254.56994    10.628556   -565.55601   -554.92745    11408.572    35365.118    44098.708    -45238.11      15.2149      13.1765      28.7324    5760.2466 
  113000      112.987    252.86089    10.557202   -565.47049   -554.91329    11305.003    32478.321    47524.995   -46088.307      15.2149      13.1765      28.7324    5760.2466 
  113500      113.487    250.72244    10.467919   -565.36669   -554.89877    11450.478    32395.132    53374.823   -51418.522      15.2149      13.1765      28.7324    5760.2466 
  114000      113.987    261.88804    10.934095   -565.81864   -554.88454    11503.385    31615.929    51083.158   -48188.931      15.2149      13.1765      28.7324    5760.2466 
  114500      114.487    253.44716    10.581679   -565.45114   -554.86946    11708.999    34792.176    46770.696   -46435.876      15.2149      13.1765      28.7324    5760.2466 
  115000      114.987    265.45892    11.083183   -565.93817   -554.85498    12345.347    34496.551    50499.525   -47960.034      15.2149      13.1765      28.7324    5760.2466 
  115500      115.487    260.75478     10.88678   -565.72827   -554.84149    11839.029    36001.434    45052.758   -45537.105      15.2149      13.1765      28.7324    5760.2466 
  116000      115.987    267.11407    11.152287    -565.9795   -554.82722    10478.238    33856.604    46358.608   -48780.499      15.2149      13.1765      28.7324    5760.2466 
  116500      116.487    272.37741    11.372036   -566.18456   -554.81253    10741.914    32997.243    45836.585   -46608.087      15.2149      13.1765      28.7324    5760.2466 
  117000      116.987    261.40424    10.913896   -565.71183   -554.79793    10508.513    32619.942    46859.433   -47953.837      15.2149      13.1765      28.7324    5760.2466 
  117500      117.487    272.42392    11.373978   -566.15778    -554.7838    11843.644    35309.214    47450.717   -47228.999      15.2149      13.1765      28.7324    5760.2466 
  118000      117.987    255.24272    10.656646   -565.42536   -554.76872    10809.926    32794.115    44744.248   -45108.586      15.2149      13.1765      28.7324    5760.2466 
  118500      118.487    259.05021    10.815612   -565.56956   -554.75395    12375.768    32743.589    47647.574   -43263.859      15.2149      13.1765      28.7324    5760.2466 
  119000      118.987    265.21471    11.072987   -565.81252   -554.73953    10441.649    31519.235    45251.988   -45446.278      15.2149      13.1765      28.7324    5760.2466 
  119500      119.487    242.84844    10.139172    -564.8627   -554.72353    10691.007    33792.989    46998.615   -48718.583      15.2149      13.1765      28.7324    5760.2466 
  120000      119.987    277.44466      11.5836   -566.29393   -554.71033    11357.152    33141.068    47742.398    -46812.01      15.2149      13.1765      28.7324    5760.2466 
  120500      120.487    249.83803    10.430994   -565.12514   -554.69415    10637.273    33956.127    46563.187   -48607.495      15.2149      13.1765      28.7324    5760.2466 
  121000      120.987    258.35469    10.786574   -565.46691   -554.68034    11673.145    30931.992    49581.025   -45493.581      15.2149      13.1765      28.7324    5760.2466 
  121500      121.487    252.38242    10.537225   -565.20223     -554.665    12059.431    32768.941    47955.229   -44545.877      15.2149      13.1765      28.7324    5760.2466 
  122000      121.987    266.83394    11.140591   -565.79179    -554.6512    11955.903    33271.724     45848.57   -43252.587      15.2149      13.1765      28.7324    5760.2466 
  122500      122.487    274.95363    11.479596   -566.11583   -554.63623    11534.447    32779.663    49772.243   -47948.567      15.2149      13.1765      28.7324    5760.2466 
  123000      122.987    263.32776    10.994204   -565.61511    -554.6209    11165.739    31298.635    45867.958   -43669.377      15.2149      13.1765      28.7324    5760.2466 
  123500      123.487    259.32481    10.827077   -565.43288   -554.60581    12049.583    34277.832    46541.839   -44670.921      15.2149      13.1765      28.7324    5760.2466 
  124000      123.987     259.6088    10.838934   -565.42877   -554.58983    9853.8547    30799.223    46921.889   -48159.548      15.2149      13.1765      28.7324    5760.2466 
  124500      124.487    255.20693    10.655152   -565.22949   -554.57434    11043.981    33774.274     44847.35    -45489.68      15.2149      13.1765      28.7324    5760.2466 
  125000      124.987    257.32957    10.743774   -565.30338   -554.55961    11327.269    34601.129    49692.226   -50311.549      15.2149      13.1765      28.7324    5760.2466 
  125500      125.487    264.15308    11.028662   -565.57302   -554.54436    10853.027    34374.468    44620.828   -46436.216      15.2149      13.1765      28.7324    5760.2466 
  126000      125.987    272.34514    11.370689   -565.90113   -554.53044    12205.339    33610.808    48184.961   -45179.753      15.2149      13.1765      28.7324    5760.2466 
  126500      126.487    257.97821    10.770855   -565.28456   -554.51371     12101.12    33908.851    47430.061   -45035.551      15.2149      13.1765      28.7324    5760.2466 
  127000      126.987    244.57639    10.211315   -564.71078   -554.49947    10944.772    34802.733    51136.634   -53105.052      15.2149      13.1765      28.7324    5760.2466 
  127500      127.487    268.22232    11.198557    -565.6825   -554.48394    10416.405    35855.025    47172.652   -51778.464      15.2149      13.1765      28.7324    5760.2466 
  128000      127.987     259.1832    10.821165   -565.29031   -554.46914    13399.812    32990.811    48157.386    -40948.76      15.2149      13.1765      28.7324    5760.2466 
  128500      128.487    264.27857    11.033902   -565.48747   -554.45357    10968.362    31626.023    47593.054    -46313.99      15.2149      13.1765      28.7324    5760.2466 
  129000      128.987    264.35185    11.036961   -565.47497   -554.43801    11943.701    36575.768    47094.121   -47838.786      15.2149      13.1765      28.7324    5760.2466 
  129500      129.487    272.44297    11.374774   -565.79714   -554.42236    10937.305    33955.471    41572.461   -42716.017      15.2149      13.1765      28.7324    5760.2466 
  130000      129.987    260.45959    10.874455   -565.28077   -554.40632    9147.9128    30268.402    42032.435   -44857.099      15.2149      13.1765      28.7324    5760.2466 
  130500      130.487    268.71641    11.219186   -565.61109    -554.3919     12287.04    32667.645    48573.721   -44380.244      15.2149      13.1765      28.7324    5760.2466 
  131000      130.987      264.262     11.03321   -565.41068   -554.37747    11555.666    32668.963     48215.48   -46217.446      15.2149      13.1765      28.7324    5760.2466 
  131500      131.487    276.02616    11.524376   -565.88536   -554.36098     10687.19    34216.699    43695.915   -45851.044      15.2149      13.1765      28.7324    5760.2466 
  132000      131.987    262.59762     10.96372   -565.30903   -554.34531     10886.66    34143.549    47847.783   -49331.351      15.2149      13.1765      28.7324    5760.2466 
  132500      132.487    271.34363    11.328875   -565.65927    -554.3304    11795.622    32082.127    48662.373   -45357.633      15.2149      13.1765      28.7324    5760.2466 
  133000      132.987     265.8272    11.098558   -565.41357   -554.31501    11130.176    30382.546    43330.444   -40322.462      15.2149      13.1765      28.7324    5760.2466 
  133500      133.487    269.43171    11.249051   -565.54927   -554.30022    11528.428    33121.199    45871.139   -44407.052      15.2149      13.1765      28.7324    5760.2466 
  134000      133.987    253.92916    10.601803   -564.88526   -554.28345    11650.015    35031.681    44451.424    -44533.06      15.2149      13.1765      28.7324    5760.2466 
  134500      134.487     264.4906    11.042754   -565.31023   -554.26747    12199.308    37316.054    47868.872   -48587.001      15.2149      13.1765      28.7324    5760.2466 
  135000      134.987    254.57036    10.628574   -564.88102   -554.25244    11704.676    34943.484    49100.893    -48930.35      15.2149      13.1765      28.7324    5760.2466 
  135500      135.487    261.41722    10.914437    -565.1511   -554.23666    12259.394    34138.313    51051.484   -48411.617      15.2149      13.1765      28.7324    5760.2466 
  136000      135.987    272.06208    11.358871   -565.58038   -554.22151     12115.14    34839.749    49395.916   -47890.244      15.2149      13.1765      28.7324    5760.2466 
  136500      136.487    263.87327     11.01698   -565.22192   -554.20494    12599.483     31260.44    49832.422   -43294.411      15.2149      13.1765      28.7324    5760.2466 
  137000      136.987    259.92018    10.851935     -565.042   -554.19007    11795.234    32991.127    49608.275   -47213.701      15.2149      13.1765      28.7324    5760.2466 
  137500      137.487    270.87505    11.309312   -565.48421    -554.1749    12056.884    34387.438    44377.185   -42593.972      15.2149      13.1765      28.7324    5760.2466 
  138000      137.987     262.1965    10.946973   -565.10535   -554.15838    10922.445    34141.608    43500.935   -44875.206      15.2149      13.1765      28.7324    5760.2466 
  138500      138.487    262.21932    10.947926    -565.0909   -554.14297    11457.141    35599.067    48564.749   -49792.392      15.2149      13.1765      28.7324    5760.2466 
  139000      138.987    253.89418    10.600343   -564.72616   -554.12582    11049.588    34522.785    47666.002   -49040.022      15.2149      13.1765      28.7324    5760.2466 
  139500      139.487    266.04335    11.107583   -565.21869   -554.11111    12744.879    36979.125    46720.096   -45464.584      15.2149      13.1765      28.7324    5760.2466 
  140000      139.987    257.15186    10.736354   -564.83097   -554.09461    11905.396    33077.783    49213.766   -46575.362      15.2149      13.1765      28.7324    5760.2466 
  140500      140.487    261.53187    10.919224   -564.99898   -554.07976    10536.693    35771.029    44631.292   -48792.242      15.2149      13.1765      28.7324    5760.2466 
  141000      140.987     260.5954    10.880125    -564.9436   -554.06347    11433.589    35426.566    44092.255   -45218.054      15.2149      13.1765      28.7324    5760.2466 
  141500      141.487    275.91495    11.519732   -565.56794   -554.04821    11438.439    33625.602    49335.796   -48646.081      15.2149      13.1765      28.7324    5760.2466 
  142000      141.987    276.54277    11.545945   -565.57833   -554.03238    12127.006    33745.101    47553.814   -44917.897      15.2149      13.1765      28.7324    5760.2466 
  142500      142.487     258.5369    10.794181   -564.81075   -554.01657    11970.995    33334.647    45272.597   -42694.258      15.2149      13.1765      28.7324    5760.2466 
  143000      142.987    257.53362    10.752293   -564.75324   -554.00095    12359.099    35996.001    47002.855   -45921.559      15.2149      13.1765      28.7324    5760.2466 
  143500      143.487    268.03759    11.190845   -565.17569   -553.98485     10653.11    34576.514    45994.624   -48611.808      15.2149      13.1765      28.7324    5760.2466 
  144000      143.987    271.68212    11.343007   -565.31219   -553.96918    11534.017    34711.927     51170.57   -51280.446      15.2149      13.1765      28.7324    5760.2466 
  144500      144.487    263.33439    10.994481   -564.94772   -553.95324    12366.228    35810.769    48272.754    -46984.84      15.2149      13.1765      28.7324    5760.2466 
  145000      144.987    264.83888    11.057295   -564.99471   -553.93741    11961.617    32952.119    48668.795   -45736.062      15.2149      13.1765      28.7324    5760.2466 
  145500      145.487    280.71739    11.720239   -565.64244    -553.9222    12237.361    34004.251      49293.4   -46585.568      15.2149      13.1765      28.7324    5760.2466 
  146000      145.987    284.40593    11.874239   -565.78173   -553.90749    12275.409    36680.094    46858.056   -46711.923      15.2149      13.1765      28.7324    5760.2466 
  146500      146.487    267.56732     11.17121   -565.06147   -553.89026    13230.356    38324.046    47671.774   -46304.751      15.2149      13.1765      28.7324    5760.2466 
  147000      146.987    260.77575    10.887655   -564.76158   -553.87393    11823.792    36724.756    47994.416   -49247.797      15.2149      13.1765      28.7324    5760.2466 
  147500      147.487    263.83483    11.015375   -564.87295   -553.85758    11211.205    35122.483     49021.87    -50510.74      15.2149      13.1765      28.7324    5760.2466 
  148000      147.987    261.69109    10.925872    -564.7675   -553.84163    10470.359    34223.439     45069.41   -47881.771      15.2149      13.1765      28.7324    5760.2466 
  148500      148.487    270.81685    11.306882   -565.13251   -553.82563    11345.689    36272.509    47069.935   -49305.377      15.2149      13.1765      28.7324    5760.2466 
  149000      148.987    273.58604    11.422498   -565.23251   -553.81001    11996.034    35175.908     44373.99   -43561.794      15.2149      13.1765      28.7324    5760.2466 
  149500      149.487    269.62718    11.257212   -565.05021     -553.793    11218.382    36327.344    47505.538   -50177.737      15.2149      13.1765      28.7324    5760.2466 
  150000      149.987    258.29265    10.783983   -564.56236   -553.77838    12683.014    35035.054    44585.024   -41571.035      15.2149      13.1765      28.7324    5760.2466 
  150500      150.487    276.57419    11.547256   -565.30976    -553.7625    11399.334    34300.955    49159.017   -49261.972      15.2149      13.1765      28.7324    5760.2466 
  151000      150.987    269.31471    11.244166   -564.99124   -553.74707    11628.703    34645.301    45551.654   -45310.847      15.2149      13.1765      28.7324    5760.2466 
  151500      151.487     288.6538    12.051592   -565.78284   -553.73125    11650.802    31567.009    52045.893   -48660.497      15.2149      13.1765      28.7324    5760.2466 
  152000      151.987    265.42753    11.081872   -564.79602   -553.71415    11047.614    33298.124    45760.777   -45916.058      15.2149      13.1765      28.7324    5760.2466 
  152500      152.487     271.7133    11.344309    -565.0426   -553.69829    11392.461    35317.259    44354.339   -45494.214      15.2149      13.1765      28.7324    5760.2466 
  153000      152.987    261.79896    10.930375   -564.61158    -553.6812    12280.691    34335.402    50145.743   -47639.072      15.2149      13.1765      28.7324    5760.2466 
  153500      153.487    274.36751    11.455125   -565.12099   -553.66587    11249.331    33919.237    46844.015   -47015.259      15.2149      13.1765      28.7324    5760.2466 
  154000      153.987    264.01129    11.022743   -564.67124    -553.6485    11807.326    32950.253    49226.932   -46755.209      15.2149      13.1765      28.7324    5760.2466 
  154500      154.487    281.85052    11.767548   -565.40092   -553.63338    12120.255    38960.723    46885.695   -49485.655      15.2149      13.1765      28.7324    5760.2466 
  155000      154.987    260.86886    10.891543   -564.50932   -553.61778    11884.431    34625.969    46284.203   -45256.878      15.2149      13.1765      28.7324    5760.2466 
  155500      155.487    285.37926    11.914877   -565.51629   -553.60141     11788.46    34489.447    51365.663   -50489.729      15.2149      13.1765      28.7324    5760.2466 
  156000      155.987    279.55391    11.671663    -565.2566   -553.58494    11054.296    36871.102    43558.289   -47266.503      15.2149      13.1765      28.7324    5760.2466 
  156500      156.487     281.4654    11.751469   -565.32083   -553.56936    12309.952    34572.334    46366.246   -44008.724      15.2149      13.1765      28.7324    5760.2466 
  157000      156.987     292.3115    12.204305   -565.75762   -553.55332    11351.015    32525.093    46788.405   -45260.452      15.2149      13.1765      28.7324    5760.2466 
  157500      157.487    274.47703    11.459698   -564.99547   -553.53578    11108.687    32006.199    43965.171   -42645.309      15.2149      13.1765      28.7324    5760.2466 
  158000      157.987    278.11761    11.611696   -565.13158   -553.51988    11407.272    33771.946    48011.508   -47561.638      15.2149      13.1765      28.7324    5760.2466 
  158500      158.487    260.29538    10.867599   -564.37025   -553.50265    11395.375    34020.817    50277.463   -50112.155      15.2149      13.1765      28.7324    5760.2466 
  159000      158.987    287.16782    11.989551   -565.47721   -553.48765    12469.916    33969.435    47820.185    -44379.87      15.2149      13.1765      28.7324    5760.2466 
  159500      159.487    274.49933    11.460629   -564.93118   -553.47055     10342.84     33919.98     46523.34     -49414.8      15.2149      13.1765      28.7324    5760.2466 
  160000      159.987    271.26361    11.325534   -564.78028   -553.45475    12134.935    35909.329    47245.928   -46750.451      15.2149      13.1765      28.7324    5760.2466 
  160500      160.487    285.67659    11.927291   -565.36633   -553.43904    10816.676     36185.51    47752.637   -51488.118      15.2149      13.1765      28.7324    5760.2466 
  161000      160.987    269.33623    11.245064   -564.66705   -553.42199    10764.209    32059.785    46755.559   -46522.715      15.2149      13.1765      28.7324    5760.2466 
  161500      161.487    274.36288    11.454932   -564.85993     -553.405    12531.403    32540.985    49447.489   -44394.266      15.2149      13.1765      28.7324    5760.2466 
  162000      161.987    278.37543     11.62246   -565.01069   -553.38823    12918.414    33550.145    46880.096   -41675.001      15.2149      13.1765      28.7324    5760.2466 
  162500      162.487    288.21367    12.033217   -565.40647   -553.37326    12179.328    32750.168     47162.84   -43375.023      15.2149      13.1765      28.7324    5760.2466 
  163000      162.987    265.28856     11.07607   -564.43212   -553.35605    11959.033    32409.999    48330.574   -44863.475      15.2149      13.1765      28.7324    5760.2466 
  163500      163.487    265.69826    11.093175   -564.43214   -553.33897    11025.272    33226.434    47443.687   -47594.305      15.2149      13.1765      28.7324    5760.2466 
  164000      163.987    272.02035    11.357129   -564.67959   -553.32246    12919.833    34346.453    52458.463   -48045.418      15.2149      13.1765      28.7324    5760.2466 
  164500      164.487    266.93832    11.144949   -564.45198   -553.30703    12247.805    37024.622    48010.597   -48291.806      15.2149      13.1765      28.7324    5760.2466 
  165000      164.987    273.86885    11.434306   -564.72479   -553.29048    11908.318    32299.306    48760.414   -45334.768      15.2149      13.1765      28.7324    5760.2466 
  165500      165.487    264.11354    11.027012    -564.3013   -553.27428     11657.92    34771.503    47380.975   -47178.718      15.2149      13.1765      28.7324    5760.2466 
  166000      165.987    275.09596    11.485539   -564.74382   -553.25828    12785.129    33705.704    49640.733    -44991.05      15.2149      13.1765      28.7324    5760.2466 
  166500      166.487    269.78993    11.264006   -564.50555   -553.24155    13434.247    35334.028    47151.036   -42182.324      15.2149      13.1765      28.7324    5760.2466 
  167000      166.987    270.23446    11.282566   -564.50763   -553.22507    12483.408    37315.326    47748.283   -47613.384      15.2149      13.1765      28.7324    5760.2466 
  167500      167.487    293.03778    12.234628   -565.44335   -553.20872    12315.624    32783.667     51230.37   -47067.164      15.2149      13.1765      28.7324    5760.2466 
  168000      167.987    272.81841    11.390449   -564.58258   -553.19213    11231.605    34950.738    47462.999   -48718.923      15.2149      13.1765      28.7324    5760.2466 
  168500      168.487    285.32581    11.912645    -565.0884   -553.17575    11757.702    32448.733    51297.391   -48473.018      15.2149      13.1765      28.7324    5760.2466 
  169000      168.987     281.5298    11.754158   -564.91382   -553.15966    10744.313    34460.298    46298.448   -48525.807      15.2149      13.1765      28.7324    5760.2466 
  169500      169.487    283.83503    11.850404   -564.99382   -553.14341    11406.219    35356.734    49982.093    -51120.17      15.2149      13.1765      28.7324    5760.2466 
  170000      169.987    278.33882    11.620932   -564.74695   -553.12602    11619.587    35203.469    49954.297   -50299.004      15.2149      13.1765      28.7324    5760.2466 
  170500      170.487    278.61301    11.632379   -564.74204   -553.10966    13674.552    36639.128    46542.196   -42157.668      15.2149      13.1765      28.7324    5760.2466 
  171000      170.987     266.4372    11.124027   -564.21707   -553.09305     11964.15    31988.151    52255.985   -48351.685      15.2149      13.1765      28.7324    5760.2466 
  171500      171.487    276.29839    11.535741   -564.61166   -553.07592    12538.154     36570.21    47345.465   -46301.213      15.2149      13.1765      28.7324    5760.2466 
  172000      171.987    292.36655    12.206604   -565.26638   -553.05977    11314.618    34843.078    45401.605   -46300.831      15.2149      13.1765      28.7324    5760.2466 
  172500      172.487    279.28002    11.660228   -564.70351   -553.04328    11478.615    34529.586    48841.241   -48934.983      15.2149      13.1765      28.7324    5760.2466 
  173000      172.987    272.67801    11.384587   -564.41114   -553.02656    11300.679    33648.141    47071.811   -46817.915      15.2149      13.1765      28.7324    5760.2466 
  173500      173.487    271.35357     11.32929   -564.33913   -553.00984    11500.489    33808.513     50543.34   -49850.385      15.2149      13.1765      28.7324    5760.2466 
  174000      173.987    296.13354    12.363879   -565.35849   -552.99461     12156.11    33360.416     48728.41   -45620.495      15.2149      13.1765      28.7324    5760.2466 
  174500      174.487    277.32567    11.578632   -564.55507   -552.97644    9780.0958    35829.872    44398.889   -50888.474      15.2149      13.1765      28.7324    5760.2466 
  175000      174.987    272.73319    11.386891   -564.34763   -552.96074    12655.922    39270.585    47542.229   -48845.048      15.2149      13.1765      28.7324    5760.2466 
  175500      175.487    297.21197    12.408905   -565.35402   -552.94512    11314.581    33596.462    51422.145   -51074.865      15.2149      13.1765      28.7324    5760.2466 
  176000      175.987    265.68354    11.092561   -564.02113   -552.92857    11850.483    35596.189    49421.246   -49465.988      15.2149      13.1765      28.7324    5760.2466 
  176500      176.487    277.60416    11.590259   -564.50095   -552.91069     11870.78    33226.001    49909.915   -47523.575      15.2149      13.1765      28.7324    5760.2466 
  177000      176.987    282.68607    11.802434   -564.69734   -552.89491    12164.764    32439.779    47015.308   -42960.794      15.2149      13.1765      28.7324    5760.2466 
  177500      177.487    280.03178    11.691614   -564.57011    -552.8785    12337.265    33920.084    49791.051    -46699.34      15.2149      13.1765      28.7324    5760.2466 
  178000      177.987    274.94371    11.479182   -564.34085   -552.86167    11699.647    36250.698    47254.756   -48406.514      15.2149      13.1765      28.7324    5760.2466 
  178500      178.487    277.86522    11.601158   -564.44469   -552.84353     12371.92    36865.405    48845.613   -48595.257      15.2149      13.1765      28.7324    5760.2466 
  179000      178.987    280.30349    11.702958   -564.53072   -552.82776    10740.515    35180.672    47108.501   -50067.628      15.2149      13.1765      28.7324    5760.2466 
  179500      179.487    293.56244    12.256533   -565.06836   -552.81183    12745.897     38269.82    47144.067   -47176.197      15.2149      13.1765      28.7324    5760.2466 
  180000      179.987    282.68695    11.802471   -564.59803   -552.79556    11498.437    32396.606    48492.753   -46394.047      15.2149      13.1765      28.7324    5760.2466 
  180500      180.487    279.28867    11.660589   -564.43759     -552.777    12912.902     37707.31    49195.822   -48164.427      15.2149      13.1765      28.7324    5760.2466 
  181000      180.987    281.39619     11.74858   -564.51007   -552.76149    13046.855    36234.521    48975.857   -46069.812      15.2149      13.1765      28.7324    5760.2466 
  181500      181.487    278.10309     11.61109   -564.35612   -552.74503    12010.983    32378.658    49400.449   -45746.157      15.2149      13.1765      28.7324    5760.2466 
  182000      181.987    293.93038    12.271895   -564.99989     -552.728    12740.564    34960.709    45622.786   -42361.803      15.2149      13.1765      28.7324    5760.2466 
  182500      182.487    290.29965    12.120308   -564.83143   -552.71113    11425.975    33027.586    45180.586   -43930.247      15.2149      13.1765      28.7324    5760.2466 
  183000      182.987    282.05284    11.775996   -564.46969   -552.69369    12108.555    38494.038    44820.525   -46988.897      15.2149      13.1765      28.7324    5760.2466 
  183500      183.487    283.70125    11.844818   -564.52183   -552.67701    11322.798    35954.687    45725.489   -47711.782      15.2149      13.1765      28.7324    5760.2466 
  184000      183.987    291.32381    12.163068   -564.82358   -552.66051    13231.608    33388.297    47811.993   -41505.466      15.2149      13.1765      28.7324    5760.2466 
  184500      184.487    286.92355    11.979353    -564.6228   -552.64344    11687.588    37621.417    47830.683   -50389.337      15.2149      13.1765      28.7324    5760.2466 
  185000      184.987    300.17846    12.532759    -565.1604   -552.62764    10737.899    34255.041    50133.837    -52175.18      15.2149      13.1765      28.7324    5760.2466 
  185500      185.487    280.74536    11.721407   -564.33067   -552.60926    12282.744    36226.025    46367.183   -45744.974      15.2149      13.1765      28.7324    5760.2466 
  186000      185.987      294.177    12.282192   -564.87478   -552.59259    12670.975    33697.443    51018.788   -46703.306      15.2149      13.1765      28.7324    5760.2466 
  186500      186.487    299.11152    12.488213   -565.06428   -552.57607    12465.674     29624.83    49580.266   -41808.074      15.2149      13.1765      28.7324    5760.2466 
  187000      186.987    280.40556     11.70722   -564.26569   -552.55847    12844.665    32795.981     50926.61   -45188.595      15.2149      13.1765      28.7324    5760.2466 
  187500      187.487    280.79514    11.723485   -564.26537   -552.54188    13003.078    34661.615    48812.299    -44464.68      15.2149      13.1765      28.7324    5760.2466 
  188000      187.987    291.65081    12.176721   -564.70199   -552.52527    12739.812    36033.666    46844.392   -44658.623      15.2149      13.1765      28.7324    5760.2466 
  188500      188.487    285.03001    11.900295   -564.40813   -552.50784    12055.536    33380.335    48810.543   -46024.269      15.2149      13.1765      28.7324    5760.2466 
  189000      188.987    282.48197    11.793912   -564.28391      -552.49    11803.961    33701.789    48286.216   -46576.122      15.2149      13.1765      28.7324    5760.2466 
  189500      189.487    290.07034    12.110734    -564.5846   -552.47387    12865.702    31956.678    54305.091   -47664.663      15.2149      13.1765      28.7324    5760.2466 
  190000      189.987    286.30946    11.953714   -564.40985   -552.45614    12960.408     35990.18    49599.036   -46707.993      15.2149      13.1765      28.7324    5760.2466 
  190500      190.487     284.8867    11.894312   -564.33368   -552.43937    11036.156    36075.797     43314.87   -46282.199      15.2149      13.1765      28.7324    5760.2466 
  191000      190.987    278.78577    11.639592   -564.06148   -552.42189    13000.904    37785.282    51584.274   -50366.845      15.2149      13.1765      28.7324    5760.2466 
  191500      191.487    288.87703    12.060913    -564.4665   -552.40559    12141.853    35243.952    46429.353   -45247.745      15.2149      13.1765      28.7324    5760.2466 
  192000      191.987    291.38455    12.165604   -564.55471    -552.3891     12295.31    35544.307    46809.038   -45467.413      15.2149      13.1765      28.7324    5760.2466 
  192500      192.487    296.66457     12.38605    -564.7583   -552.37225    12144.387    32219.803      50105.6   -45892.242      15.2149      13.1765      28.7324    5760.2466 
  193000      192.987    279.04148    11.650268    -564.0041   -552.35383    11669.331    31113.203    42901.248   -39006.459      15.2149      13.1765      28.7324    5760.2466 
  193500      193.487    287.75658    12.014133   -564.35127   -552.33713    12653.847     36604.34    47585.924   -46228.724      15.2149      13.1765      28.7324    5760.2466 
  194000      193.987    307.19548    12.825727   -565.14646   -552.32074    12671.649    33628.246    45353.406   -40966.706      15.2149      13.1765      28.7324    5760.2466 
  194500      194.487    275.26527    11.492608    -563.7947   -552.30209      11747.7    35228.336    50288.769   -50274.004      15.2149      13.1765      28.7324    5760.2466 
  195000      194.987    295.38975    12.332825   -564.61748   -552.28466     11928.31    33807.045    43296.022   -41318.137      15.2149      13.1765      28.7324    5760.2466 
  195500      195.487    281.69945    11.761241   -564.02913   -552.26789    11809.461    37771.802    44021.175   -46364.593      15.2149      13.1765      28.7324    5760.2466 
  196000      195.987     279.0125    11.649058   -563.89889   -552.24983    13232.638    36208.001    49081.167   -45591.253      15.2149      13.1765      28.7324    5760.2466 
  196500      196.487    297.92911    12.438846   -564.67294    -552.2341    12582.508    34162.151    44870.732   -41285.359      15.2149      13.1765      28.7324    5760.2466 
  197000      196.987    304.16885    12.699362   -564.91547   -552.21611    11805.155    32510.709    46226.477    -43321.72      15.2149      13.1765      28.7324    5760.2466 
  197500      197.487    280.61458    11.715947   -563.91425   -552.19831    11885.135    33000.958    48128.328   -45473.881      15.2149      13.1765      28.7324    5760.2466 
  198000      197.987    279.73252     11.67912   -563.85886   -552.17974    10938.263    31399.648    49805.814   -48390.673      15.2149      13.1765      28.7324    5760.2466 
  198500      198.487     290.3623    12.122924   -564.28729   -552.16437    11519.462    32443.182     46998.42   -44883.217      15.2149      13.1765      28.7324    5760.2466 
  199000      198.987    284.07281    11.860332    -564.0074   -552.14706    11970.819    33456.314    48085.938   -45629.796      15.2149      13.1765      28.7324    5760.2466 
  199500      199.487    292.98424    12.232393   -564.36319    -552.1308    11721.131    34246.425    45604.148   -44687.182      15.2149      13.1765      28.7324    5760.2466 
  200000      199.987    286.41796    11.958244   -564.07248   -552.11424    12358.069    34038.032    44653.123    -41616.95      15.2149      13.1765      28.7324    5760.2466 
  200500      200.487    283.43305    11.833621   -563.93063   -552.09701    12493.224    38870.493    44770.549   -46161.371      15.2149      13.1765      28.7324    5760.2466 
  201000      200.987    299.51822    12.505193   -564.58548   -552.08029    10173.034    33679.906    42746.583   -45907.387      15.2149      13.1765      28.7324    5760.2466 
  201500      201.487    285.75499    11.930564   -563.99257   -552.06201    11096.984    33965.765    42316.938   -42991.752      15.2149      13.1765      28.7324    5760.2466 
  202000      201.987    303.61854    12.676386   -564.72208   -552.04569    12549.674     33762.97    48531.397   -44645.343      15.2149      13.1765      28.7324    5760.2466 
  202500      202.487    285.55328    11.922143   -563.94995   -552.02781    11018.829    36362.542    46868.014   -50174.069      15.2149      13.1765      28.7324    5760.2466 
  203000      202.987    298.93801    12.480969   -564.49219   -552.01123    12340.589    31581.744    47758.773   -42318.751      15.2149      13.1765      28.7324    5760.2466 
  203500      203.487    304.84102    12.727426   -564.72113    -551.9937    11865.363    32209.173     52369.64   -48982.724      15.2149      13.1765      28.7324    5760.2466 
  204000      203.987    282.59308    11.798551   -563.77457   -551.97602    11665.718    33685.109    44329.177   -43017.131      15.2149      13.1765      28.7324    5760.2466 
  204500      204.487    281.27512    11.743525   -563.70261   -551.95909    13710.267    34781.159    48797.243     -42447.6      15.2149      13.1765      28.7324    5760.2466 
  205000      204.987    286.40047    11.957514   -563.89759   -551.94008    12488.397    37165.937    49582.663   -49283.409      15.2149      13.1765      28.7324    5760.2466 
  205500      205.487    289.00213    12.066136   -563.99089   -551.92475    11695.758    34324.192    46187.413   -45424.331      15.2149      13.1765      28.7324    5760.2466 
  206000      205.987    278.49162    11.627311   -563.53373   -551.90642    11159.098    34667.845    45011.956   -46202.507      15.2149      13.1765      28.7324    5760.2466 
  206500      206.487    292.12527     12.19653   -564.08506   -551.88853    12555.806    33928.013    51153.429   -47414.022      15.2149      13.1765      28.7324    5760.2466 
  207000      206.987    301.78758    12.599941   -564.47225   -551.87231    13168.822    33937.101    53143.297   -47573.932      15.2149      13.1765      28.7324    5760.2466 
  207500      207.487    288.58347    12.048656   -563.90319   -551.85454    11550.728     37537.31    45764.913   -48650.038      15.2149      13.1765      28.7324    5760.2466 
  208000      207.987    304.92604    12.730975   -564.56726   -551.83629    12402.515    32421.086    49290.816   -44504.358      15.2149      13.1765      28.7324    5760.2466 
  208500      208.487    287.70339    12.011912   -563.83228   -551.82037    13010.966    37985.064    46806.346   -45758.512      15.2149      13.1765      28.7324    5760.2466 
  209000      208.987    306.06815    12.778659   -564.58137   -551.80271    11940.784    36973.306    43713.689   -44864.643      15.2149      13.1765      28.7324    5760.2466 
  209500      209.487    292.58791    12.215846   -564.00109   -551.78525    12496.029    37364.201    50892.894   -50769.009      15.2149      13.1765      28.7324    5760.2466 
  210000      209.987     281.1037    11.736368   -563.50277   -551.76641    12665.162    39717.091    43771.553   -45493.158      15.2149      13.1765      28.7324    5760.2466 
  210500      210.487    297.48923    12.420481   -564.17257   -551.75209    11074.505    34700.583    51308.148   -52785.217      15.2149      13.1765      28.7324    5760.2466 
  211000      210.987    291.90089    12.187162   -563.91998   -551.73282    10870.945    36565.189    50093.903   -54046.257      15.2149      13.1765      28.7324    5760.2466 
  211500      211.487    291.04963    12.151621   -563.86639   -551.71477    11582.099    37213.643    48363.098   -50830.445      15.2149      13.1765      28.7324    5760.2466 
  212000      211.987    285.42479    11.916778    -563.6143   -551.69752    12335.534     38681.63    48562.106   -50237.133      15.2149      13.1765      28.7324    5760.2466 
[...]
  948500      948.487     383.7445    16.021727   -561.21204   -545.19032    13926.476    39217.053    50436.947    -47874.57      15.2149      13.1765      28.7324    5760.2466 
  949000      948.987    374.18222    15.622492   -560.80816   -545.18567    15381.492    39040.947    50764.155   -43660.627      15.2149      13.1765      28.7324    5760.2466 
  949500      949.487     355.2876    14.833622   -560.01682    -545.1832    14562.088    36179.676    47935.719   -40429.131      15.2149      13.1765      28.7324    5760.2466 
  950000      949.987    359.37959    15.004467   -560.18333   -545.17886    14087.422    37307.095    53132.204   -48177.033      15.2149      13.1765      28.7324    5760.2466 
  950500      950.487    393.76674    16.440166   -561.61758   -545.17741     14823.98    37542.093    52325.537   -45395.689      15.2149      13.1765      28.7324    5760.2466 
  951000      950.987    378.92638    15.820565    -560.9949   -545.17433    14303.836    34624.175     51652.85   -43365.517      15.2149      13.1765      28.7324    5760.2466 
  951500      951.487    362.01486    15.114492   -560.28418   -545.16969     13476.92    39365.867    49447.537   -48382.643      15.2149      13.1765      28.7324    5760.2466 
  952000      951.987    366.35044    15.295507   -560.46281    -545.1673    14960.731    34720.592    52896.798   -42735.198      15.2149      13.1765      28.7324    5760.2466 
  952500      952.487    358.69472    14.975873   -560.14178    -545.1659    14467.094    34478.399    52431.435   -43508.553      15.2149      13.1765      28.7324    5760.2466 
  953000      952.987    384.20467     16.04094   -561.20312   -545.16218    14812.606    36519.265    52293.512   -44374.959      15.2149      13.1765      28.7324    5760.2466 
  953500      953.487    374.37424    15.630509   -560.78935   -545.15884    13245.777    37661.611    46690.367   -44614.646      15.2149      13.1765      28.7324    5760.2466 
  954000      953.987    387.51404    16.179109   -561.33524   -545.15613    13357.276    36385.334    52707.307   -49020.814      15.2149      13.1765      28.7324    5760.2466 
  954500      954.487     377.0938    15.744053   -560.89645    -545.1524    13206.157    37740.135    52471.359   -50593.024      15.2149      13.1765      28.7324    5760.2466 
  955000      954.987    389.73983    16.272038   -561.42198   -545.14994    13900.956     34973.21    48997.603   -42267.945      15.2149      13.1765      28.7324    5760.2466 
  955500      955.487    391.87697    16.361266   -561.50957    -545.1483    14901.521    36195.001     56222.68   -47713.118      15.2149      13.1765      28.7324    5760.2466 
  956000      955.987    379.27561    15.835146   -560.97756   -545.14242    15814.759    36212.827    50573.619   -39342.169      15.2149      13.1765      28.7324    5760.2466 
  956500      956.487    382.51776    15.970509   -561.10889   -545.13838    16079.105    39936.061    50714.617   -42413.364      15.2149      13.1765      28.7324    5760.2466 
  957000      956.987    388.97565    16.240133   -561.37738   -545.13725     14895.19    36313.136    51233.876   -42861.441      15.2149      13.1765      28.7324    5760.2466 
  957500      957.487    367.36988     15.33807   -560.47001   -545.13194    13994.855    38615.399    52720.418   -49351.252      15.2149      13.1765      28.7324    5760.2466 
  958000      957.987    373.09343    15.577034   -560.70555   -545.12852    14352.178    36160.633    47601.801   -40705.902      15.2149      13.1765      28.7324    5760.2466 
  958500      958.487     385.4612    16.093401   -561.22064   -545.12724    13733.283     35682.28    51093.586   -45576.016      15.2149      13.1765      28.7324    5760.2466 
  959000      958.987    360.39378     15.04681   -560.16926   -545.12245    14260.311    36666.299    53375.614   -47260.979      15.2149      13.1765      28.7324    5760.2466 
  959500      959.487    377.44508     15.75872   -560.87774   -545.11902    13876.888    35463.865    48616.816   -42450.017      15.2149      13.1765      28.7324    5760.2466 
  960000      959.987    366.47541    15.300725   -560.41637   -545.11564    14251.806    38187.068    52890.564   -48322.216      15.2149      13.1765      28.7324    5760.2466 
  960500      960.487    371.07509    15.492766   -560.60287   -545.11011    13710.088     41518.21    52122.382   -52510.329      15.2149      13.1765      28.7324    5760.2466 
  961000      960.987    368.04941    15.366441    -560.4739   -545.10746     13386.59    36916.745    47609.546   -44366.521      15.2149      13.1765      28.7324    5760.2466 
  961500      961.487    361.37611    15.087824   -560.19133    -545.1035    13417.655    39988.378    50030.882   -49766.295      15.2149      13.1765      28.7324    5760.2466 
  962000      961.987    355.89464    14.858966   -559.95731   -545.09834    13504.079    33176.138    52517.785   -45181.686      15.2149      13.1765      28.7324    5760.2466 
  962500      962.487    366.42954     15.29881   -560.39325   -545.09444    15464.751    37956.796    52815.327    -44377.87      15.2149      13.1765      28.7324    5760.2466 
  963000      962.987    375.40003    15.673337   -560.76492   -545.09159    14536.125    41853.676    51622.832   -49868.132      15.2149      13.1765      28.7324    5760.2466 
  963500      963.487    361.70341    15.101489   -560.18878    -545.0873    12445.437    32655.208    48934.579   -44253.476      15.2149      13.1765      28.7324    5760.2466 
  964000      963.987    370.27882    15.459521   -560.54218   -545.08266    13751.949    33964.843    51327.335   -44036.332      15.2149      13.1765      28.7324    5760.2466 
  964500      964.487    389.03604    16.242654   -561.32191   -545.07925     13906.04    41197.077    48863.476   -48342.431      15.2149      13.1765      28.7324    5760.2466 
  965000      964.987    355.53822    14.844086   -559.91852   -545.07443    13930.998    34660.541    57071.514   -49939.061      15.2149      13.1765      28.7324    5760.2466 
  965500      965.487    378.71167    15.811601   -560.88337   -545.07176    13842.423    40618.411    54498.537    -53589.68      15.2149      13.1765      28.7324    5760.2466 
  966000      965.987    366.82262    15.315221   -560.37997   -545.06475    13209.942    39695.109    48854.745   -48920.027      15.2149      13.1765      28.7324    5760.2466 
  966500      966.487    382.36266    15.964034   -561.02689   -545.06286    15078.797    42327.262    46248.168   -43339.038      15.2149      13.1765      28.7324    5760.2466 
  967000      966.987     391.9823    16.365664   -561.42455   -545.05889    13756.153    39708.143    50964.683   -49404.365      15.2149      13.1765      28.7324    5760.2466 
  967500      967.487    370.08616    15.451477   -560.50504   -545.05356    13926.684    38056.495    52890.975   -49167.417      15.2149      13.1765      28.7324    5760.2466 
  968000      967.987    371.27515    15.501119   -560.55134   -545.05022    14281.497    34834.253     49911.02   -41900.782      15.2149      13.1765      28.7324    5760.2466 
  968500      968.487     381.0168    15.907843   -560.95341   -545.04557    13182.998    35927.278    52570.352   -48948.637      15.2149      13.1765      28.7324    5760.2466 
  969000      968.987     399.8215    16.692958   -561.73461   -545.04165    13120.788    38430.092    47659.242    -46726.97      15.2149      13.1765      28.7324    5760.2466 
  969500      969.487    379.36025     15.83868   -560.87525   -545.03657    13112.759    37809.502      48205.7   -46676.926      15.2149      13.1765      28.7324    5760.2466 
  970000      969.987    369.44264     15.42461   -560.45731    -545.0327    15279.137    39739.576     46792.64   -40694.805      15.2149      13.1765      28.7324    5760.2466 
  970500      970.487    359.31961    15.001963   -560.02859   -545.02663     12202.02     39615.65    46998.509   -50008.099      15.2149      13.1765      28.7324    5760.2466 
  971000      970.987    392.61688    16.392158   -561.41691   -545.02476    12906.508    36069.458    55381.527   -52731.463      15.2149      13.1765      28.7324    5760.2466 
  971500      971.487    367.29095    15.334774   -560.35304   -545.01827    13137.556    39023.981    50330.675   -49941.988      15.2149      13.1765      28.7324    5760.2466 
  972000      971.987    374.57577    15.638923    -560.6538   -545.01488    13077.108    34302.156     49218.71   -44289.542      15.2149      13.1765      28.7324    5760.2466 
  972500      972.487    368.39185    15.380738   -560.39166   -545.01092    14183.561    39685.888     51309.37   -48444.575      15.2149      13.1765      28.7324    5760.2466 
  973000      972.987     367.5508    15.345623   -560.34989   -545.00427    15645.805    33787.475    52068.574   -38918.635      15.2149      13.1765      28.7324    5760.2466 
  973500      973.487     383.7671     16.02267   -561.02321   -545.00054    14074.657    39991.993    50390.006   -48158.028      15.2149      13.1765      28.7324    5760.2466 
  974000      973.987    386.48418    16.136111   -561.13235   -544.99624    15014.421    38240.735    48940.981   -42138.454      15.2149      13.1765      28.7324    5760.2466 
  974500      974.487     373.3625    15.588268   -560.57907   -544.99081    13269.894    38021.959    48993.796   -47206.073      15.2149      13.1765      28.7324    5760.2466 
  975000      974.987     372.4821     15.55151   -560.53695   -544.98544    12638.192    33180.667    51563.969    -46830.06      15.2149      13.1765      28.7324    5760.2466 
  975500      975.487    367.89513    15.359999   -560.34025   -544.98025    14604.393    40602.614    52869.017   -49658.453      15.2149      13.1765      28.7324    5760.2466 
  976000      975.987    383.50441    16.011703   -560.98838   -544.97668    13437.864    35138.433    50436.584   -45261.424      15.2149      13.1765      28.7324    5760.2466 
  976500      976.487    368.97803    15.405212   -560.37583   -544.97062    13267.632    35155.703     51333.03   -46685.838      15.2149      13.1765      28.7324    5760.2466 
  977000      976.987    379.25624    15.834337   -560.79942   -544.96509    12219.099    38165.029    48206.266   -49713.998      15.2149      13.1765      28.7324    5760.2466 
  977500      977.487    370.78659    15.480721   -560.44217   -544.96145    13822.022    36636.733    51590.039   -46760.706      15.2149      13.1765      28.7324    5760.2466 
  978000      977.987    375.26794    15.667822   -560.62524   -544.95742    14612.621    39005.998     50317.49   -45485.626      15.2149      13.1765      28.7324    5760.2466 
  978500      978.487    357.85586     14.94085   -559.89227   -544.95142    13047.901    33073.684    55445.594   -49375.573      15.2149      13.1765      28.7324    5760.2466 
  979000      978.987    380.80901    15.899167   -560.84707   -544.94791    13001.221    39543.875    51503.287   -52043.498      15.2149      13.1765      28.7324    5760.2466 
  979500      979.487    388.23892    16.209374   -561.15157    -544.9422    15583.317    40221.414    45533.646    -39005.11      15.2149      13.1765      28.7324    5760.2466 
  980000      979.987    366.39386     15.29732   -560.23511   -544.93779    13411.652    33749.246    49229.333   -42743.623      15.2149      13.1765      28.7324    5760.2466 
  980500      980.487    370.72618    15.478199   -560.40937   -544.93117    12236.671    38774.148    49590.408   -51654.543      15.2149      13.1765      28.7324    5760.2466 
  981000      980.987    371.48079    15.509704   -560.43751    -544.9278    14084.296    36167.496     47030.87   -40945.479      15.2149      13.1765      28.7324    5760.2466 
  981500      981.487     379.5271    15.845646   -560.77053   -544.92488    14790.045    36821.734    48863.951   -41315.549      15.2149      13.1765      28.7324    5760.2466 
  982000      981.987    359.75852    15.020288   -559.93761   -544.91733    13974.701    36309.367    51355.702   -45740.965      15.2149      13.1765      28.7324    5760.2466 
  982500      982.487    374.10874    15.619424   -560.53058   -544.91116    14747.094    42369.504    54258.849    -52387.07      15.2149      13.1765      28.7324    5760.2466 
  983000      982.987    377.75409    15.771621   -560.67931   -544.90768    14866.954    38940.596    50196.942   -44536.675      15.2149      13.1765      28.7324    5760.2466 
  983500      983.487    400.08645     16.70402   -561.60455   -544.90053    12933.577    32784.309    51254.712    -45238.29      15.2149      13.1765      28.7324    5760.2466 
  984000      983.987    391.31853    16.337951   -561.23478   -544.89683    12557.565    36360.773    48412.739   -47100.817      15.2149      13.1765      28.7324    5760.2466 
  984500      984.487    363.00067    15.155651   -560.04439   -544.88874    16355.455    37702.901    57791.497   -46428.034      15.2149      13.1765      28.7324    5760.2466 
  985000      984.987    364.68155    15.225829   -560.10985   -544.88402    14190.089    38377.793    49700.178   -45507.705      15.2149      13.1765      28.7324    5760.2466 
  985500      985.487    374.62224    15.640863   -560.51819   -544.87733    13791.434    38545.852    49570.521    -46742.07      15.2149      13.1765      28.7324    5760.2466 
  986000      985.987    383.34396    16.005004   -560.87804   -544.87303    13387.316    37576.773     52131.95   -49546.775      15.2149      13.1765      28.7324    5760.2466 
  986500      986.487    397.82147    16.609455    -561.4774   -544.86795    13854.488    43039.433    49666.044   -51142.013      15.2149      13.1765      28.7324    5760.2466 
  987000      986.987    375.03342     15.65803    -560.5199   -544.86187    13186.826    38043.209    49499.987   -47982.719      15.2149      13.1765      28.7324    5760.2466 
  987500      987.487    376.09212    15.702232   -560.55912   -544.85689    12777.952    33800.117     47407.01   -42873.271      15.2149      13.1765      28.7324    5760.2466 
  988000      987.987    380.12058    15.870425   -560.72114   -544.85071    14180.843    34069.255    50893.734    -42420.46      15.2149      13.1765      28.7324    5760.2466 
  988500      988.487    379.81531    15.857679   -560.70183   -544.84415    14774.009    35619.882     51605.73   -42903.585      15.2149      13.1765      28.7324    5760.2466 
  989000      988.987    381.23433    15.916925   -560.75655   -544.83963    14430.039    36485.789     51529.51   -44725.181      15.2149      13.1765      28.7324    5760.2466 
  989500      989.487    385.06883    16.077019   -560.91077   -544.83375     15509.35    41083.579    46792.256   -41347.786      15.2149      13.1765      28.7324    5760.2466 
  990000      989.987    371.24945    15.500046   -560.32759   -544.82755    13293.758    36895.892    56407.225   -53421.844      15.2149      13.1765      28.7324    5760.2466 
  990500      990.487    389.62601    16.267286   -561.09067   -544.82338    15176.668    38210.656     48938.73   -41619.382      15.2149      13.1765      28.7324    5760.2466 
  991000      990.987    366.23746     15.29079   -560.10615   -544.81536      16218.9    39125.609    53535.513   -44004.421      15.2149      13.1765      28.7324    5760.2466 
  991500      991.487     386.8383    16.150896   -560.96242   -544.81152    14290.117    35547.512    51351.798    -44028.96      15.2149      13.1765      28.7324    5760.2466 
  992000      991.987    366.06251    15.283485   -560.08776   -544.80427    14509.774    39141.045     48087.21   -43698.932      15.2149      13.1765      28.7324    5760.2466 
  992500      992.487    389.10155    16.245389   -561.04285   -544.79746    15002.022    36673.361    50775.394    -42442.69      15.2149      13.1765      28.7324    5760.2466 
  993000      992.987    389.50844    16.262377   -561.05457    -544.7922    14118.261    36151.376    51249.807     -45046.4      15.2149      13.1765      28.7324    5760.2466 
  993500      993.487    382.25325    15.959466   -560.74485   -544.78538    13689.218    36829.978    46107.822   -41870.145      15.2149      13.1765      28.7324    5760.2466 
  994000      993.987    391.93402    16.363648   -561.14672   -544.78307    12930.627    36796.692    53194.759    -51199.57      15.2149      13.1765      28.7324    5760.2466 
  994500      994.487      391.136     16.33033   -561.10893    -544.7786    14449.091    40419.942    50723.736   -47796.404      15.2149      13.1765      28.7324    5760.2466 
  995000      994.987    377.46855      15.7597   -560.53038   -544.77068    14462.801    33301.085    54200.648   -44113.331      15.2149      13.1765      28.7324    5760.2466 
  995500      995.487    400.38099    16.716317   -561.48093   -544.76461    14287.846     35148.18    50996.069   -43280.711      15.2149      13.1765      28.7324    5760.2466 
  996000      995.987    392.29712    16.378808   -561.13737   -544.75856    14207.159    39450.161    47105.465   -43934.149      15.2149      13.1765      28.7324    5760.2466 
  996500      996.487    379.60323    15.848825   -560.60148   -544.75265    15037.183    36498.611     50531.91   -41918.971      15.2149      13.1765      28.7324    5760.2466 
  997000      996.987    382.21936    15.958051   -560.70545    -544.7474    13132.999    35971.934    50001.944    -46574.88      15.2149      13.1765      28.7324    5760.2466 
  997500      997.487    376.24148    15.708468   -560.44914   -544.74067    14260.424    34750.203    50681.091   -42650.022      15.2149      13.1765      28.7324    5760.2466 
  998000      997.987    378.66119    15.809494   -560.54348   -544.73399    13966.044    38106.449    49324.297   -45532.613      15.2149      13.1765      28.7324    5760.2466 
  998500      998.487    379.91285    15.861752   -560.58978   -544.72803    14428.051    39654.659    52393.324    -48763.83      15.2149      13.1765      28.7324    5760.2466 
  999000      998.987    369.80361    15.439681   -560.16097   -544.72129    16017.642    39217.813    46465.413   -37630.301      15.2149      13.1765      28.7324    5760.2466 
  999500      999.487    367.03736    15.324187    -560.0388   -544.71462    13266.212    32549.364    50153.572   -42904.301      15.2149      13.1765      28.7324    5760.2466 
 1000000      999.987    380.01636    15.866073   -560.57512   -544.70905    14545.746    34612.193    53120.665   -44095.619      15.2149      13.1765      28.7324    5760.2466 
 1000013         1000    374.31801    15.628161   -560.33713   -544.70897    14320.887    38690.836    52929.979   -48658.155      15.2149      13.1765      28.7324    5760.2466 
Loop time of 918.133 on 28 procs for 1000000 steps with 324 atoms

Performance: 94.104 ns/day, 0.255 hours/ns, 1089.166 timesteps/s
88.0% CPU use with 28 MPI tasks x no OpenMP threads

MPI task timing breakdown:
Section |  min time  |  avg time  |  max time  |%varavg| %total
---------------------------------------------------------------
Pair    | 715.07     | 790.95     | 846.24     | 106.5 | 86.15
Neigh   | 0          | 0          | 0          |   0.0 |  0.00
Comm    | 59.972     | 113.5      | 189.77     | 289.7 | 12.36
Output  | 0.098931   | 0.10143    | 0.12314    |   1.3 |  0.01
Modify  | 4.8994     | 8.5328     | 19.271     | 151.3 |  0.93
Other   |            | 5.051      |            |       |  0.55

Nlocal:    11.5714 ave 15 max 5 min
Histogram: 1 0 0 5 1 2 3 5 2 9
Nghost:    657.464 ave 708 max 620 min
Histogram: 10 2 0 0 5 3 0 0 4 4
Neighs:    724.536 ave 998 max 321 min
Histogram: 1 0 5 1 1 6 2 5 4 3
FullNghs:  1449.07 ave 1876 max 639 min
Histogram: 1 0 2 4 1 4 5 0 3 8

Total # of neighbors = 40574
Ave neighs/atom = 125.228
Neighbor list builds = 0
Dangerous builds = 0

write_restart   POSCAR_1x1x1.rest

#unfix    1
#undump   1
Total wall time: 0:15:18
