LAMMPS (7 Dec 2015)
#----------- Initialize Simulation ------------ restart01
#processors	2 2 2
units		metal
boundary	p p p     ## periodic boundary condition  on x y z axis ##
atom_style atomic
#atom_modify map array sort 0 0.0

read_data	POSCAR_1x1x1.lammps
  triclinic box = (0 0 0) to (15.2149 13.1765 28.7324) with tilt (-7.60743 0 0)
  2 by 2 by 7 MPI processor grid
  reading atoms ...
  324 atoms

#----------- Define Potential -----------------
pair_style meam
pair_coeff * * MgAlZn.library.meam Mg Al Zn MgAlZn.parameter.meam Mg Al Zn 	#1=Mg 2=Al 3=Zn	#atoms/mass

#----------- Neighbor List --------------------
neighbor 2.0 bin
neigh_modify delay 10 check yes

#--------------  Run a simulation (minimization) ---------------------------------------
minimize       1.0e-4   1.0e-6   100   1000          #結構優化的條件
WARNING: Resetting reneighboring criteria during minimization (../min.cpp:168)
Neighbor list info ...
  2 neighbor list requests
  update every 1 steps, delay 0 steps, check yes
  max neighbors/atom: 2000, page size: 100000
  master list distance cutoff = 8
  ghost atom cutoff = 8
  binsize = 4 -> bins = 6 4 8
Memory usage per processor = 8.65318 Mbytes
Step Temp E_pair E_mol TotEng Press 
       0            0   -527.60605            0   -527.60605    7607.5041 
      12            0   -543.08896            0   -543.08896    738.86924 
Loop time of 0.0225949 on 28 procs for 12 steps with 324 atoms

90.9% CPU use with 28 MPI tasks x no OpenMP threads

Minimization stats:
  Stopping criterion = energy tolerance
  Energy initial, next-to-last, final = 
        -527.606053263     -543.042786479     -543.088957153
  Force two-norm initial, final = 24.4618 1.74925
  Force max component initial, final = 3.09678 0.515153
  Final line search alpha, max atom move = 0.373957 0.192645
  Iterations, force evaluations = 12 24

MPI task timing breakdown:
Section |  min time  |  avg time  |  max time  |%varavg| %total
---------------------------------------------------------------
Pair    | 0.017646   | 0.018849   | 0.020554   |   0.5 | 83.42
Neigh   | 0          | 0          | 0          |   0.0 |  0.00
Comm    | 0.0012425  | 0.0027996  | 0.004072   |   1.5 | 12.39
Output  | 0          | 0          | 0          |   0.0 |  0.00
Modify  | 0          | 0          | 0          |   0.0 |  0.00
Other   |            | 0.0009467  |            |       |  4.19

Nlocal:    11.5714 ave 15 max 6 min
Histogram: 1 1 3 3 2 1 6 2 4 5
Nghost:    659.607 ave 706 max 622 min
Histogram: 8 4 0 0 2 4 2 0 3 5
Neighs:    720.179 ave 986 max 373 min
Histogram: 1 2 4 1 3 3 5 2 4 3
FullNghs:  1440.36 ave 1898 max 757 min
Histogram: 1 1 3 3 2 1 6 2 3 6

Total # of neighbors = 40330
Ave neighs/atom = 124.475
Neighbor list builds = 0
Dangerous builds = 0
velocity all  create 393.0 4928459 #rot yes dist gaussian

#--------------  Run a simulation (Relaxation)  ----------------------------------------
fix  1  all  nvt   temp  393.0  393.0  100				#damping constant
#fix  2  all  npt   temp  393.0  393.0  50 iso 0.0 0.0 1000.0
#fix  2  all deform 1 x final 0 15.6906 y final 0 13.5884 z final 0 25.2339 xy final -7.8452 units lattice
#fix  3  all  npt   temp  393.0  393.0  50 z 0.0 0.0 1000.0

#variable b equal 1
#fix 2 all efield  0.0  0.0  v_b
#compute pot all pe/atom


#----------- Output --------------------------
thermo	 500
timestep  0.001		#1.0 fs
thermo_style	custom step time temp ke pe etotal press pxx pyy pzz lx ly lz vol

dump 1 all custom 10000 dump.eq id type x y z
dump_modify 1 sort  id

run        1000000	#10000	 ps
Neighbor list info ...
  2 neighbor list requests
  update every 1 steps, delay 10 steps, check yes
  max neighbors/atom: 2000, page size: 100000
  master list distance cutoff = 8
  ghost atom cutoff = 8
  binsize = 4 -> bins = 6 4 8
Memory usage per processor = 7.54379 Mbytes
Step Time Temp KinEng PotEng TotEng Press Pxx Pyy Pzz Lx Ly Lz Volume 
      12            0          393    16.408154   -543.08896    -526.6808    3781.4193    23852.718    35196.987   -47705.448      15.2149      13.1765      28.7324    5760.2466 
     500        0.488     208.4863    8.7045172     -535.379   -526.67448    7220.2803    28433.727    41552.061   -48324.946      15.2149      13.1765      28.7324    5760.2466 
    1000        0.988    205.45119    8.5777982   -535.25176   -526.67396    4818.0583    25503.652    41133.211   -52182.688      15.2149      13.1765      28.7324    5760.2466 
    1500        1.488    209.09268    8.7298342   -535.40387   -526.67404    4927.9808     28582.04    38366.495   -52164.592      15.2149      13.1765      28.7324    5760.2466 
    2000        1.988    202.75975    8.4654276   -535.13787   -526.67245    5831.3947    30288.679    38367.034   -51161.529      15.2149      13.1765      28.7324    5760.2466 
    2500        2.488    210.83579    8.8026106   -535.47502   -526.67241    5612.5613    28956.562     40826.09   -52944.968      15.2149      13.1765      28.7324    5760.2466 
    3000        2.988    204.88033    8.5539642   -535.22458   -526.67061    5028.2977    29870.831    39140.352    -53926.29      15.2149      13.1765      28.7324    5760.2466 
    3500        3.488    207.46056    8.6616915   -535.33108   -526.66938    5302.4552    30945.337    40313.479    -55351.45      15.2149      13.1765      28.7324    5760.2466 
    4000        3.988      207.579    8.6666365   -535.33374    -526.6671    4340.3606    29436.659    39363.705   -55779.283      15.2149      13.1765      28.7324    5760.2466 
    4500        4.488    220.60847    9.2106302    -535.8775   -526.66687    5805.2128    31567.942    37779.244   -51931.547      15.2149      13.1765      28.7324    5760.2466 
    5000        4.988    214.55636    8.9579485   -535.62252   -526.66457    5736.6063    28691.577    38886.544   -50368.303      15.2149      13.1765      28.7324    5760.2466 
    5500        5.488    207.05422    8.6447262   -535.30752   -526.66279    6005.9116    29116.878    36872.696   -47971.839      15.2149      13.1765      28.7324    5760.2466 
    6000        5.988    225.13954    9.3998068   -536.06009   -526.66028    6734.0408    29470.249    38692.253   -47960.379      15.2149      13.1765      28.7324    5760.2466 
    6500        6.488     209.9221    8.7644633     -535.422   -526.65754    6883.4287    29973.737    40480.925   -49804.377      15.2149      13.1765      28.7324    5760.2466 
    7000        6.988    219.65358    9.1707623   -535.82518   -526.65442    4162.5966    32269.986    39597.146   -59379.342      15.2149      13.1765      28.7324    5760.2466 
    7500        7.488    219.15096    9.1497775   -535.80139   -526.65161    6780.2707    28508.346    43477.703   -51645.237      15.2149      13.1765      28.7324    5760.2466 
    8000        7.988    215.82302    9.0108325   -535.65909   -526.64826    5881.8266    32412.943    38894.396   -53661.859      15.2149      13.1765      28.7324    5760.2466 
    8500        8.488    219.47539    9.1633227   -535.80848   -526.64516    5992.8708    31499.095    40658.483   -54178.965      15.2149      13.1765      28.7324    5760.2466 
    9000        8.988    206.45621    8.6197586   -535.26103   -526.64127    6455.9316     30610.48    38592.484   -49835.169      15.2149      13.1765      28.7324    5760.2466 
    9500        9.488    218.42974     9.119666   -535.75687    -526.6372     6467.118    31697.289     41294.38   -53590.315      15.2149      13.1765      28.7324    5760.2466 
   10000        9.988    211.40969    8.8265717   -535.46015   -526.63358    5920.0552    30290.658    41487.171   -54017.663      15.2149      13.1765      28.7324    5760.2466 
   10500       10.488    207.65004    8.6696025   -535.29844   -526.62884    4875.0616    29400.495    41367.743   -56143.054      15.2149      13.1765      28.7324    5760.2466 
   11000       10.988    210.69607    8.7967772   -535.42129   -526.62452    5655.9883    32631.629    38924.394   -54588.058      15.2149      13.1765      28.7324    5760.2466 
   11500       11.488    216.23805    9.0281605   -535.64832   -526.62016    5134.8729     30711.27    41049.961   -56356.613      15.2149      13.1765      28.7324    5760.2466 
   12000       11.988    212.17458    8.8585064    -535.4737    -526.6152    5803.2139    31153.464    43190.465   -56934.287      15.2149      13.1765      28.7324    5760.2466 
   12500       12.488    215.22183    8.9857323    -535.5959   -526.61017    6461.6005    31596.736    40000.832   -52212.766      15.2149      13.1765      28.7324    5760.2466 
   13000       12.988    204.87091    8.5535708   -535.15844   -526.60487    5301.8525    26977.885    41824.855   -52897.182      15.2149      13.1765      28.7324    5760.2466 
   13500       13.488    226.16424    9.4425895   -536.04233   -526.59974    4160.9743    28911.632    41273.132   -57701.841      15.2149      13.1765      28.7324    5760.2466 
   14000       13.988    216.87804    9.0548808   -535.64902   -526.59414     4727.201    28310.266    40790.743   -54919.406      15.2149      13.1765      28.7324    5760.2466 
   14500       14.488    222.43394    9.2868456   -535.87547   -526.58862    5228.6258    27641.272     39924.25   -51879.645      15.2149      13.1765      28.7324    5760.2466 
   15000       14.988    210.79167    8.8007687    -535.3833   -526.58253    6895.3707    30651.465    39962.649   -49928.003      15.2149      13.1765      28.7324    5760.2466 
   15500       15.488     209.1849    8.7336846   -535.30968     -526.576    6706.2941    28858.855    38494.204   -47234.176      15.2149      13.1765      28.7324    5760.2466 
   16000       15.988    217.50935    9.0812388   -535.65197   -526.57073    4842.2767    28369.847    38726.537   -52569.554      15.2149      13.1765      28.7324    5760.2466 
   16500       16.488    215.18557    8.9842186   -535.54738   -526.56316    6268.4585    29489.824    38269.936   -48954.384      15.2149      13.1765      28.7324    5760.2466 
   17000       16.988    213.39961    8.9096529   -535.46542   -526.55577    5172.0939    30419.042    41051.508   -55954.269      15.2149      13.1765      28.7324    5760.2466 
   17500       17.488    217.26781    9.0711541   -535.62042   -526.54926    7367.7944    27214.373    43987.096   -49098.085      15.2149      13.1765      28.7324    5760.2466 
   18000       17.988    221.26136    9.2378891   -535.78011   -526.54223    5686.7892    29964.252    34486.857   -47390.742      15.2149      13.1765      28.7324    5760.2466 
   18500       18.488    210.31744    8.7809692   -535.31596   -526.53499    7144.6522    30253.196    39325.805   -48145.044      15.2149      13.1765      28.7324    5760.2466 
   19000       18.988    218.96249    9.1419088    -535.6692   -526.52729    6439.2161     30931.73    39745.526   -51359.608      15.2149      13.1765      28.7324    5760.2466 
   19500       19.488    206.40927    8.6177992   -535.13661   -526.51881    5790.7852    28735.689    40480.849   -51844.183      15.2149      13.1765      28.7324    5760.2466 
   20000       19.988    213.78499    8.9257427   -535.43688   -526.51114    6522.9234    28249.529    41067.341   -49748.099      15.2149      13.1765      28.7324    5760.2466 
   20500       20.488    225.67441    9.4221383   -535.92522   -526.50308    5470.5995    27408.333    41451.292   -52447.826      15.2149      13.1765      28.7324    5760.2466 
   21000       20.988    210.65515    8.7950689   -535.28943   -526.49436    5498.7788      29577.8    36766.163   -49847.627      15.2149      13.1765      28.7324    5760.2466 
   21500       21.488     212.5808    8.8754666   -535.36092   -526.48545    6156.9176    30581.967     40701.21   -52812.425      15.2149      13.1765      28.7324    5760.2466 
   22000       21.988    210.78332    8.8004201   -535.27744   -526.47702    6408.7926    33582.433    41590.599   -55946.654      15.2149      13.1765      28.7324    5760.2466 
   22500       22.488    210.23023    8.7773281   -535.24508   -526.46775     5358.854    28740.877     37803.98   -50468.295      15.2149      13.1765      28.7324    5760.2466 
   23000       22.988    211.68731    8.8381625    -535.2969   -526.45874     5580.204    27518.359    37260.675   -48038.423      15.2149      13.1765      28.7324    5760.2466 
   23500       23.488    222.99563    9.3102963   -535.76061   -526.45031    5166.9123    29301.265    41988.255   -55788.782      15.2149      13.1765      28.7324    5760.2466 
   24000       23.988    221.79023    9.2599698   -535.69993   -526.43996    5287.3963    28765.329     36067.95   -48971.091      15.2149      13.1765      28.7324    5760.2466 
   24500       24.488    200.76422    8.3821122    -534.8117   -526.42958    5061.1247    26915.828    36630.271   -48362.725      15.2149      13.1765      28.7324    5760.2466 
   25000       24.988    230.65039    9.6298907   -536.05117   -526.42128    6951.0103    31480.935    39360.996     -49988.9      15.2149      13.1765      28.7324    5760.2466 
   25500       25.488    212.45094    8.8700448   -535.28028   -526.41023    7426.5639    29905.076    42431.421   -50056.806      15.2149      13.1765      28.7324    5760.2466 
   26000       25.988    224.65351    9.3795147   -535.77991    -526.4004    7162.4147    29355.658    42767.387   -50635.801      15.2149      13.1765      28.7324    5760.2466 
   26500       26.488    204.70401    8.5466025   -534.93629   -526.38969    5642.6438    28440.461    44080.132   -55592.661      15.2149      13.1765      28.7324    5760.2466 
   27000       26.988     222.6362      9.29529   -535.67475   -526.37946    5743.1935    30655.599     39593.28   -53019.298      15.2149      13.1765      28.7324    5760.2466 
   27500       27.488    224.61725    9.3780008   -535.74662   -526.36862    6624.0921    28215.181    41345.605    -49688.51      15.2149      13.1765      28.7324    5760.2466 
   28000       27.988    211.20764    8.8181357    -535.1744   -526.35626     6670.347    31830.867    42728.846   -54548.672      15.2149      13.1765      28.7324    5760.2466 
   28500       28.488    214.58297    8.9590592    -535.3046   -526.34554    6855.9153    28833.741    42427.947   -50693.941      15.2149      13.1765      28.7324    5760.2466 
   29000       28.988    219.64941    9.1705882    -535.5051   -526.33452    6697.9647    31359.206    41444.938    -52710.25      15.2149      13.1765      28.7324    5760.2466 
   29500       29.488    232.57016    9.7100432   -536.03427   -526.32422    5195.9565    29893.469    39394.214   -53699.814      15.2149      13.1765      28.7324    5760.2466 
   30000       29.988    217.52117    9.0817322   -535.39382   -526.31209    6550.3745    29156.572    40448.937   -49954.385      15.2149      13.1765      28.7324    5760.2466 
   30500       30.488     224.2988    9.3647053   -535.66517   -526.30047    5194.9235    28269.485    37050.117   -49734.831      15.2149      13.1765      28.7324    5760.2466 
   31000       30.988    216.06383    9.0208869   -535.30923   -526.28835    5258.7127    30911.647    39138.461    -54273.97      15.2149      13.1765      28.7324    5760.2466 
   31500       31.488    207.54216    8.6650981   -534.94123   -526.27613    6767.9443    30562.776    40461.315   -50720.258      15.2149      13.1765      28.7324    5760.2466 
   32000       31.988    217.94798    9.0995518   -535.36385    -526.2643    6018.7501    30121.144    38667.769   -50732.662      15.2149      13.1765      28.7324    5760.2466 
   32500       32.488    219.28284    9.1552837   -535.40764   -526.25236    5497.0653    31939.758    37639.872   -53088.434      15.2149      13.1765      28.7324    5760.2466 
   33000       32.988    221.19474    9.2351073   -535.47437   -526.23926    6950.3869    31666.734    39154.949   -49970.522      15.2149      13.1765      28.7324    5760.2466 
   33500       33.488    221.17305    9.2342017   -535.46226   -526.22806    6271.6162    30147.067    38139.254   -49471.472      15.2149      13.1765      28.7324    5760.2466 
   34000       33.988    215.09449    8.9804159   -535.19501    -526.2146    6082.8305    32692.458    40034.173   -54478.139      15.2149      13.1765      28.7324    5760.2466 
   34500       34.488    223.94336    9.3498651   -535.55157   -526.20171    7206.5998    26563.894    42379.337   -47323.431      15.2149      13.1765      28.7324    5760.2466 
   35000       34.988    213.55479    8.9161317   -535.10474   -526.18861    6575.0322    29956.598    43035.904   -53267.406      15.2149      13.1765      28.7324    5760.2466 
   35500       35.488    213.91665    8.9312399   -535.10841   -526.17717    6570.6217    31544.728    40082.211   -51915.074      15.2149      13.1765      28.7324    5760.2466 
   36000       35.988    218.31374    9.1148228   -535.27953   -526.16471    5928.5848    26783.045    44108.707   -53105.998      15.2149      13.1765      28.7324    5760.2466 
   36500       36.488     235.0896    9.8152324   -535.96739   -526.15216    6489.6748    30836.284    39768.395   -51135.655      15.2149      13.1765      28.7324    5760.2466 
   37000       36.988    214.27676    8.9462749    -535.0855   -526.13922    4658.3474    29928.656    39786.305   -55739.918      15.2149      13.1765      28.7324    5760.2466 
   37500       37.488    219.95836    9.1834873   -535.30981   -526.12632    4521.8596    29429.839    33791.751   -49656.011      15.2149      13.1765      28.7324    5760.2466 
   38000       37.988    228.83069    9.5539164   -535.66766   -526.11374    5378.2917    31211.768    38138.936   -53215.829      15.2149      13.1765      28.7324    5760.2466 
   38500       38.488    221.40328    9.2438141   -535.34431    -526.1005    6195.6731    30608.709     39555.62   -51577.309      15.2149      13.1765      28.7324    5760.2466 
   39000       38.988    226.81666    9.4698285   -535.55802   -526.08819    6764.8031    32203.503    39717.255   -51626.349      15.2149      13.1765      28.7324    5760.2466 
   39500       39.488     224.3147    9.3653689   -535.44068   -526.07531    5646.2351    27142.436    40657.054   -50860.785      15.2149      13.1765      28.7324    5760.2466 
   40000       39.988    232.14209    9.6921706   -535.75419   -526.06202    5977.7035    31061.585    41319.442   -54447.917      15.2149      13.1765      28.7324    5760.2466 
   40500       40.488    224.77058    9.3844025   -535.43373   -526.04932    5697.7941    32442.591    36554.408   -51903.617      15.2149      13.1765      28.7324    5760.2466 
   41000       40.988    225.02245    9.3949184   -535.43136   -526.03644    5460.4959    30947.045    36231.011   -50796.568      15.2149      13.1765      28.7324    5760.2466 
   41500       41.488     224.2567    9.3629475   -535.38687   -526.02392    6637.6063    34393.727    43198.963   -57679.871      15.2149      13.1765      28.7324    5760.2466 
   42000       41.988     217.2163    9.0690035    -535.0787    -526.0097    5842.1747     30689.03    40502.496   -53665.003      15.2149      13.1765      28.7324    5760.2466 
   42500       42.488    240.46448    10.039639   -536.03795   -525.99831    6555.3623    30650.824    39058.983    -50043.72      15.2149      13.1765      28.7324    5760.2466 
   43000       42.988    223.88188    9.3472984   -535.33129     -525.984    6298.0059    33178.958    39915.754   -54200.694      15.2149      13.1765      28.7324    5760.2466 
   43500       43.488    228.68798    9.5479578   -535.52039   -525.97243    3855.3086    27911.177    35667.083   -52012.334      15.2149      13.1765      28.7324    5760.2466 
   44000       43.988    234.83067    9.8044215   -535.76286   -525.95844    5524.3654    27627.403    38980.149   -50034.456      15.2149      13.1765      28.7324    5760.2466 
   44500       44.488    219.48568    9.1637527   -535.10893   -525.94518    7310.3804    31660.063    39684.792   -49413.713      15.2149      13.1765      28.7324    5760.2466 
   45000       44.988    223.83125    9.3451844   -535.27748   -525.93229    4619.5924    31471.046     37995.68   -55607.949      15.2149      13.1765      28.7324    5760.2466 
   45500       45.488     211.4598     8.828664   -534.74824   -525.91958    5417.3002    33298.459    40181.985   -57228.544      15.2149      13.1765      28.7324    5760.2466 
   46000       45.988    212.01675     8.851917   -534.75844   -525.90652    7378.2493    30326.394    40218.412   -48410.058      15.2149      13.1765      28.7324    5760.2466 
   46500       46.488     230.1956    9.6109025   -535.50557   -525.89467    5808.8512    32051.813    36715.487   -51340.747      15.2149      13.1765      28.7324    5760.2466 
   47000       46.988      226.144    9.4417444    -535.3236   -525.88185    5349.0657    27904.866    39622.076   -51479.744      15.2149      13.1765      28.7324    5760.2466 
   47500       47.488    221.23825     9.236924   -535.10545   -525.86853    5369.1569    27401.584    44992.628   -56286.741      15.2149      13.1765      28.7324    5760.2466 
   48000       47.988    214.89088    8.9719148   -534.82867   -525.85676    6018.6028    30310.672    36437.947    -48692.81      15.2149      13.1765      28.7324    5760.2466 
   48500       48.488    210.44234    8.7861837   -534.62994   -525.84376    5698.2397    29991.708    40168.428   -53065.417      15.2149      13.1765      28.7324    5760.2466 
   49000       48.988    220.14467     9.191266   -535.02343   -525.83216    7351.1189    31708.592    40861.735    -50516.97      15.2149      13.1765      28.7324    5760.2466 
   49500       49.488    222.31539     9.281896   -535.10097   -525.81907     4762.568    31152.261    45286.457   -62151.014      15.2149      13.1765      28.7324    5760.2466 
   50000       49.988    231.10214    9.6487516   -535.45593   -525.80718    5013.4296    28842.283    42916.446    -56718.44      15.2149      13.1765      28.7324    5760.2466 
   50500       50.488     224.1299    9.3576536   -535.15222   -525.79457    5817.3862    33461.268    41462.836   -57471.946      15.2149      13.1765      28.7324    5760.2466 
   51000       50.988    223.06501    9.3131933   -535.09526   -525.78207    5061.9343    29256.462    40795.311    -54865.97      15.2149      13.1765      28.7324    5760.2466 
   51500       51.488    219.58545    9.1679182   -534.93844   -525.77052    6745.0573    29393.578    42682.046   -51840.452      15.2149      13.1765      28.7324    5760.2466 
   52000       51.988     230.9739    9.6433977   -535.40236   -525.75897    6560.3075    30965.883      39618.3    -50903.26      15.2149      13.1765      28.7324    5760.2466 
   52500       52.488    220.27152    9.1965622   -534.94193   -525.74537    5715.9357    32764.463    40402.378   -56019.035      15.2149      13.1765      28.7324    5760.2466 
   53000       52.988     230.3323      9.61661   -535.35135   -525.73474    5474.9705    32553.125    39479.483   -55607.696      15.2149      13.1765      28.7324    5760.2466 
   53500       53.488    227.29932    9.4899799   -535.21297   -525.72299    5851.3717    29812.109    38368.299   -50626.294      15.2149      13.1765      28.7324    5760.2466 
   54000       53.988    226.16507    9.4426241   -535.15383   -525.71121    6140.3769    29209.482    41628.115   -52416.466      15.2149      13.1765      28.7324    5760.2466 
   54500       54.488    230.45214    9.6216136   -535.32062     -525.699    5073.4404    29346.268    42796.375   -56922.322      15.2149      13.1765      28.7324    5760.2466 
   55000       54.988    218.61305    9.1273194   -534.81407   -525.68675    6525.0887    30030.216    39383.621   -49838.572      15.2149      13.1765      28.7324    5760.2466 
   55500       55.488     234.6147    9.7954045   -535.47155   -525.67614    7951.8073    34971.447    41379.925    -52495.95      15.2149      13.1765      28.7324    5760.2466 
   56000       55.988    231.38588    9.6605981   -535.32478   -525.66418    6870.6216    27752.398    40657.518   -47798.051      15.2149      13.1765      28.7324    5760.2466 
   56500       56.488    230.90703    9.6406054   -535.29338   -525.65277    5501.2401    30512.955    41865.399   -55874.633      15.2149      13.1765      28.7324    5760.2466 
   57000       56.988    219.04467      9.14534   -534.78645   -525.64111      7222.18     30237.62    43557.909   -52128.989      15.2149      13.1765      28.7324    5760.2466 
   57500       57.488     230.7888    9.6356692   -535.26577    -525.6301    6492.7671    31442.247    42295.872   -54259.817      15.2149      13.1765      28.7324    5760.2466 
   58000       57.988    221.98588    9.2681384   -534.88635   -525.61821    6222.3542    29654.626    39471.853   -50459.416      15.2149      13.1765      28.7324    5760.2466 
   58500       58.488    223.37322    9.3260614   -534.93388   -525.60782    6780.8429     33457.64      40580.8   -53695.911      15.2149      13.1765      28.7324    5760.2466 
   59000       58.988    234.96328    9.8099581   -535.40679   -525.59683    6894.9004     29817.88    38992.411   -48125.589      15.2149      13.1765      28.7324    5760.2466 
   59500       59.488    237.42775    9.9128525   -535.49825    -525.5854    5671.8491    30164.227    39917.032   -53065.712      15.2149      13.1765      28.7324    5760.2466 
   60000       59.988    224.34801    9.3667596   -534.94057   -525.57381    6199.4809    29142.817    37757.637   -48302.012      15.2149      13.1765      28.7324    5760.2466 
   60500       60.488    230.29367    9.6149971   -535.17769    -525.5627    6429.9905    33019.481    36851.507   -50581.017      15.2149      13.1765      28.7324    5760.2466 
   61000       60.988    226.29462    9.4480327   -535.00006   -525.55203    6421.7707    31277.102    44381.054   -56392.844      15.2149      13.1765      28.7324    5760.2466 
   61500       61.488    217.76525    9.0919226   -534.63341   -525.54149     7477.589    30859.046    44811.153   -53237.432      15.2149      13.1765      28.7324    5760.2466 
   62000       61.988    235.21896    9.8206333    -535.3512   -525.53056    5902.8721    33674.371    36792.276   -52758.031      15.2149      13.1765      28.7324    5760.2466 
   62500       62.488    231.49152    9.6650086   -535.18426   -525.51926    5327.0813    30284.009    39507.873   -53810.638      15.2149      13.1765      28.7324    5760.2466 
   63000       62.988    231.63058    9.6708145   -535.17991    -525.5091    6588.6177    30039.851    38422.753   -48696.751      15.2149      13.1765      28.7324    5760.2466 
   63500       63.488     240.8436    10.055468   -535.55362   -525.49815    5419.7999    27877.687     42153.13   -53771.417      15.2149      13.1765      28.7324    5760.2466 
   64000       63.988    226.87618    9.4723135   -534.95859   -525.48627    4777.2605    26396.829    40157.617   -52222.664      15.2149      13.1765      28.7324    5760.2466 
   64500       64.488    229.84624    9.5963164   -535.07253   -525.47622    7042.0329    32278.366    39909.979   -51062.246      15.2149      13.1765      28.7324    5760.2466 
   65000       64.988    235.75627    9.8430662   -535.30877    -525.4657    4249.0206    31447.022    40748.206   -59448.166      15.2149      13.1765      28.7324    5760.2466 
   65500       65.488    217.88649    9.0969846   -534.55114   -525.45416    5974.4725    33238.432    40288.991   -55604.006      15.2149      13.1765      28.7324    5760.2466 
   66000       65.988     238.1525    9.9431114   -535.38858   -525.44547    5618.0897    28640.294    39063.002   -50849.027      15.2149      13.1765      28.7324    5760.2466 
   66500       66.488     230.8403    9.6378194   -535.07177   -525.43395    5870.3996    30045.094    45003.527   -57437.423      15.2149      13.1765      28.7324    5760.2466 
   67000       66.988    226.17761    9.4431476   -534.86618   -525.42304    5750.9076    30916.102    37249.027   -50912.406      15.2149      13.1765      28.7324    5760.2466 
   67500       67.488    232.84748    9.7216212   -535.13464   -525.41302    6108.9416    28931.881    42369.344     -52974.4      15.2149      13.1765      28.7324    5760.2466 
   68000       67.988    222.58807    9.2932803   -534.69426   -525.40098    4859.0393    29624.297    37655.025   -52702.204      15.2149      13.1765      28.7324    5760.2466 
   68500       68.488    226.52543    9.4576694   -534.84851   -525.39084    5866.9065    31726.399    42534.212   -56659.892      15.2149      13.1765      28.7324    5760.2466 
   69000       68.988    233.25548    9.7386559   -535.11963   -525.38098    5555.8468    32599.917    40436.754   -56369.131      15.2149      13.1765      28.7324    5760.2466 
   69500       69.488    237.00398    9.8951597   -535.26501   -525.36985    5480.4432    30691.323    39228.945   -53478.938      15.2149      13.1765      28.7324    5760.2466 
   70000       69.988    230.58357    9.6271006   -534.98597   -525.35887    6011.0565    28753.905    41980.473   -52701.209      15.2149      13.1765      28.7324    5760.2466 
   70500       70.488    228.44244    9.5377066   -534.88552   -525.34781    6337.6092    30345.277    43891.556   -55224.005      15.2149      13.1765      28.7324    5760.2466 
   71000       70.988    219.49334    9.1640724   -534.50138   -525.33731    4521.3329    30289.725    38789.165   -55514.891      15.2149      13.1765      28.7324    5760.2466 
   71500       71.488    237.08526     9.898553   -535.22531   -525.32676    5910.3301    33104.965    37467.325     -52841.3      15.2149      13.1765      28.7324    5760.2466 
   72000       71.988    236.54017    9.8757951   -535.19261   -525.31681    4958.7164    31504.281    37968.107   -54596.239      15.2149      13.1765      28.7324    5760.2466 
   72500       72.488    230.01254    9.6032598   -534.90944   -525.30618    5653.7019    31053.997    39390.881   -53483.772      15.2149      13.1765      28.7324    5760.2466 
   73000       72.988    234.17716    9.7771368   -535.07286   -525.29573    5146.9725    32603.141    39461.217   -56623.441      15.2149      13.1765      28.7324    5760.2466 
   73500       73.488    238.88495    9.9736918   -535.25914   -525.28545    5153.4476    28109.374    40460.432   -53109.464      15.2149      13.1765      28.7324    5760.2466 
   74000       73.988    238.18099    9.9443011   -535.21849   -525.27418    5346.0309     29240.33    39580.728   -52782.966      15.2149      13.1765      28.7324    5760.2466 
   74500       74.488    241.29719    10.074406   -535.33863   -525.26423    7194.0084    32894.732    41027.576   -52340.283      15.2149      13.1765      28.7324    5760.2466 
   75000       74.988    239.05612    9.9808386   -535.23463   -525.25379    7053.3539     31390.22    40464.137   -50694.296      15.2149      13.1765      28.7324    5760.2466 
   75500       75.488    236.84501    9.8885225   -535.13154   -525.24302    6533.5101    31591.066    38377.868   -50368.404      15.2149      13.1765      28.7324    5760.2466 
   76000       75.988     235.7063    9.8409801   -535.07315   -525.23217    5088.8804    29422.249    41356.025   -55511.632      15.2149      13.1765      28.7324    5760.2466 
   76500       76.488    231.88979    9.6816369   -534.90206   -525.22042    5582.3756    32743.533    38411.415   -54407.822      15.2149      13.1765      28.7324    5760.2466 
   77000       76.988    237.70058    9.9242435    -535.1342   -525.20996     4911.476    30046.275    43404.834   -58716.681      15.2149      13.1765      28.7324    5760.2466 
   77500       77.488    239.03773    9.9800708   -535.17947    -525.1994    6599.8097    31964.903    41453.798   -53619.272      15.2149      13.1765      28.7324    5760.2466 
   78000       77.988    217.98867    9.1012506   -534.28931   -525.18806    6776.6025    28964.722    43420.826   -52055.741      15.2149      13.1765      28.7324    5760.2466 
   78500       78.488    221.42324    9.2446476   -534.42176   -525.17711     6050.933    31793.088    40865.749   -54506.038      15.2149      13.1765      28.7324    5760.2466 
   79000       78.988    238.72813    9.9671447   -535.13358   -525.16644    7400.9752    30685.559    36633.754   -45116.387      15.2149      13.1765      28.7324    5760.2466 
   79500       79.488    224.84889    9.3876719   -534.54301   -525.15534     5912.513    29346.212    37923.404   -49532.077      15.2149      13.1765      28.7324    5760.2466 
   80000       79.988    230.09021    9.6065023   -534.75077   -525.14427    6404.4342    30644.596     44250.32   -55681.614      15.2149      13.1765      28.7324    5760.2466 
   80500       80.488    246.41413    10.288043   -535.42158   -525.13354    6352.5053    28019.758    40777.109   -49739.351      15.2149      13.1765      28.7324    5760.2466 
   81000       80.988    230.23742    9.6126488   -534.73359   -525.12094    5228.4927    28190.669    42905.664   -55410.855      15.2149      13.1765      28.7324    5760.2466 
   81500       81.488    226.53653    9.4581329   -534.56857   -525.11044    5124.6562     30837.66    39573.177   -55036.868      15.2149      13.1765      28.7324    5760.2466 
   82000       81.988    213.41395    8.9102514   -534.00889   -525.09864    5728.9347    27058.579    39776.761   -49648.535      15.2149      13.1765      28.7324    5760.2466 
   82500       82.488    230.01853    9.6035099   -534.69152   -525.08801    5291.3993    32004.423    39928.519   -56058.744      15.2149      13.1765      28.7324    5760.2466 
   83000       82.988    238.43629    9.9549599   -535.03231   -525.07735    6704.3385    30402.201    41750.166   -52039.352      15.2149      13.1765      28.7324    5760.2466 
   83500       83.488    229.53764    9.5834321   -534.64884   -525.06541    7532.0735     32970.32    41230.507   -51604.606      15.2149      13.1765      28.7324    5760.2466 
   84000       83.988    225.13311    9.3995385   -534.45295   -525.05341    3490.2882    29323.074    38702.907   -57555.116      15.2149      13.1765      28.7324    5760.2466 
   84500       84.488    233.46375    9.7473513   -534.78931   -525.04196    6080.2622    28555.454    40830.758   -51145.426      15.2149      13.1765      28.7324    5760.2466 
   85000       84.988    238.21508    9.9457241   -534.97663   -525.03091    7092.6794    34325.938    42025.533   -55073.433      15.2149      13.1765      28.7324    5760.2466 
   85500       85.488     243.7392    10.176362   -535.19704   -525.02068    5434.5658    31347.564    40672.889   -55716.755      15.2149      13.1765      28.7324    5760.2466 
   86000       85.988    230.95437     9.642582   -534.65038    -525.0078    6125.1629    32577.368    43277.792   -57479.672      15.2149      13.1765      28.7324    5760.2466 
   86500       86.488    234.12952    9.7751477   -534.77114     -524.996    6554.7392    29947.603    41905.447   -52188.832      15.2149      13.1765      28.7324    5760.2466 
   87000       86.988    245.44027    10.247383   -535.23202   -524.98464    7572.2813     32448.18    39488.214    -49219.55      15.2149      13.1765      28.7324    5760.2466 
   87500       87.488    249.93903    10.435211   -535.40777   -524.97256     6185.287     27866.45    41680.901   -50991.491      15.2149      13.1765      28.7324    5760.2466 
   88000       87.988    225.67294    9.4220771    -534.3821   -524.96002    5558.6971    31667.576    42425.066    -57416.55      15.2149      13.1765      28.7324    5760.2466 
   88500       88.488    223.16313      9.31729   -534.26529     -524.948    7075.7082    30769.969    39661.118   -49203.963      15.2149      13.1765      28.7324    5760.2466 
   89000       88.988    245.64061    10.255748   -535.19325   -524.93751    6461.8259    31810.165     38309.03   -50733.718      15.2149      13.1765      28.7324    5760.2466 
   89500       89.488    232.15907    9.6928795   -534.61828   -524.92541    6171.7276    34976.927    41072.109   -57533.853      15.2149      13.1765      28.7324    5760.2466 
   90000       89.988    237.77818    9.9274831   -534.84019   -524.91271     5168.955    29174.567    42548.214   -56215.916      15.2149      13.1765      28.7324    5760.2466 
   90500       90.488    238.19417     9.944851   -534.84543   -524.90058    7724.4755    32919.828     40240.88   -49987.281      15.2149      13.1765      28.7324    5760.2466 
   91000       90.988    231.42565    9.6622584   -534.55001   -524.88775    5423.3281     30046.55    40028.331   -53804.897      15.2149      13.1765      28.7324    5760.2466 
   91500       91.488    219.47403    9.1632661   -534.03823   -524.87496    6293.6012     29332.97    41678.403   -52130.569      15.2149      13.1765      28.7324    5760.2466 
   92000       91.988    238.30373    9.9494253   -534.81284   -524.86341     6464.941    31380.343    37826.841   -49812.361      15.2149      13.1765      28.7324    5760.2466 
   92500       92.488    246.87911    10.307456   -535.15869   -524.85123    6795.2372    31525.549    41821.808   -52961.646      15.2149      13.1765      28.7324    5760.2466 
   93000       92.988    231.13032     9.649928   -534.48832   -524.83839    6220.1044    30594.577    40017.532   -51951.795      15.2149      13.1765      28.7324    5760.2466 
   93500       93.488    243.81275    10.179433   -535.00515   -524.82572     6972.101    29832.685    38847.837   -47764.219      15.2149      13.1765      28.7324    5760.2466 
   94000       93.988    236.49995    9.8741156   -534.68687   -524.81275    6434.8116    32817.212    38917.186   -52429.963      15.2149      13.1765      28.7324    5760.2466 
   94500       94.488     235.4624    9.8307969   -534.63195   -524.80115    8257.6682     29027.19    41775.583   -46029.768      15.2149      13.1765      28.7324    5760.2466 
   95000       94.988    241.10221    10.066265   -534.85413   -524.78787     5566.559    33283.011    40559.781   -57143.115      15.2149      13.1765      28.7324    5760.2466 
   95500       95.488    245.38579    10.245109   -535.02013   -524.77502    6006.7009    29974.067     41622.44   -53576.404      15.2149      13.1765      28.7324    5760.2466 
   96000       95.988    240.55212    10.043298   -534.80538   -524.76208    5993.4668    29577.935    36810.726   -48408.261      15.2149      13.1765      28.7324    5760.2466 
   96500       96.488    235.14434    9.8175176   -534.56716   -524.74964    5676.6442    30917.568     36985.15   -50872.785      15.2149      13.1765      28.7324    5760.2466 
   97000       96.988    239.75493    10.010015   -534.74702     -524.737    5925.3617    31758.877     40963.49   -54946.282      15.2149      13.1765      28.7324    5760.2466 
   97500       97.488    233.81775    9.7621313   -534.48503    -524.7229    5120.9171    28921.222    41048.699   -54607.169      15.2149      13.1765      28.7324    5760.2466 
   98000       97.988     242.1195    10.108738   -534.81942   -524.71068    5159.9992     31909.16    37315.474   -53744.636      15.2149      13.1765      28.7324    5760.2466 
   98500       98.488      244.665    10.215015   -534.91252    -524.6975    6862.8935    28343.311    41964.199   -49718.829      15.2149      13.1765      28.7324    5760.2466 
   99000       98.988    243.15833     10.15211   -534.83624   -524.68413    6377.9437    29637.211    43521.207   -54024.587      15.2149      13.1765      28.7324    5760.2466 
   99500       99.488    234.39027    9.7860344   -534.45793   -524.67189    6463.2915    31060.835    40613.712   -52284.672      15.2149      13.1765      28.7324    5760.2466 
  100000       99.988    224.46561    9.3716695    -534.0293   -524.65764    5612.0731    28153.383     38739.29   -50056.454      15.2149      13.1765      28.7324    5760.2466 
  100500      100.488    228.09239    9.5230914   -534.16707   -524.64398    5522.8749    28449.715    37368.265   -49249.356      15.2149      13.1765      28.7324    5760.2466 
  101000      100.988    245.61342    10.254613   -534.88604   -524.63142    7444.0018    31608.114    38891.332   -48167.441      15.2149      13.1765      28.7324    5760.2466 
  101500      101.488    240.77957    10.052794   -534.67071   -524.61792     5518.626    30679.298     38151.22    -52274.64      15.2149      13.1765      28.7324    5760.2466 
  102000      101.988    263.47478    11.000343   -535.60649   -524.60615    5675.2515    29574.108    39656.275   -52204.628      15.2149      13.1765      28.7324    5760.2466 
  102500      102.488    241.04835    10.064016   -534.65598   -524.59197    6333.9368     31467.03    37699.987   -50165.207      15.2149      13.1765      28.7324    5760.2466 
  103000      102.988    226.15027    9.4420058   -534.01896   -524.57696    5854.9546    28502.642    42175.378   -53113.156      15.2149      13.1765      28.7324    5760.2466 
  103500      103.488    244.42743    10.205096   -534.76924   -524.56415      5834.81     28917.73    38867.405   -50280.705      15.2149      13.1765      28.7324    5760.2466 
  104000      103.988    235.08475    9.8150297   -534.36532   -524.55029    7627.3648    34611.705    37263.347   -48992.958      15.2149      13.1765      28.7324    5760.2466 
  104500      104.488    244.91179    10.225319    -534.7612   -524.53588    6864.6529    30344.712    38629.882   -48380.636      15.2149      13.1765      28.7324    5760.2466 
  105000      104.988    239.26335    9.9894906   -534.51173   -524.52224    6255.5188    31632.966    36509.828   -49376.238      15.2149      13.1765      28.7324    5760.2466 
  105500      105.488    254.88395    10.641666   -535.15081   -524.50914    6416.4441    34310.811    35870.288   -50931.767      15.2149      13.1765      28.7324    5760.2466 
  106000      105.988    254.23586    10.614608   -535.11052   -524.49591    4103.3467    30588.266    40450.281   -58728.507      15.2149      13.1765      28.7324    5760.2466 
  106500      106.488     241.1109    10.066627   -534.54713   -524.48051    5025.0939    29120.615    40632.098   -54677.431      15.2149      13.1765      28.7324    5760.2466 
  107000      106.988      240.828    10.054816   -534.52148   -524.46667    7104.2874    31635.257    42244.207   -52566.601      15.2149      13.1765      28.7324    5760.2466 
  107500      107.488    247.68571    10.341133   -534.79481   -524.45367    6862.7085     29802.27    43119.048   -52333.193      15.2149      13.1765      28.7324    5760.2466 
  108000      107.988    235.33611    9.8255244   -534.26347   -524.43794    6601.7687     31300.39    37973.587   -49468.671      15.2149      13.1765      28.7324    5760.2466 
  108500      108.488    230.60519    9.6280034   -534.05202   -524.42402    4348.7148    27994.446    41960.076   -56908.378      15.2149      13.1765      28.7324    5760.2466 
  109000      108.988    231.20878    9.6532041   -534.06313   -524.40993    5907.1692    33476.134     39424.91   -55179.536      15.2149      13.1765      28.7324    5760.2466 
  109500      109.488    247.35107    10.327161    -534.7238   -524.39664    6444.0896    32231.654    38625.827   -51525.212      15.2149      13.1765      28.7324    5760.2466 
  110000      109.988    231.96546     9.684796    -534.0658     -524.381    6217.9734    30617.145    44517.965    -56481.19      15.2149      13.1765      28.7324    5760.2466 
  110500      110.488    253.22135    10.572251   -534.93967   -524.36742    5295.1206    31281.963    41160.371   -56556.972      15.2149      13.1765      28.7324    5760.2466 
  111000      110.988    243.40798    10.162533   -534.51523   -524.35269    6770.8989    31674.933    41704.554    -53066.79      15.2149      13.1765      28.7324    5760.2466 
  111500      111.488    242.27308     10.11515   -534.45308   -524.33793     6307.123    29238.988    43867.139   -54184.758      15.2149      13.1765      28.7324    5760.2466 
  112000      111.988    234.81185    9.8036359   -534.12735   -524.32372    7471.9089    28345.031    43705.741   -49635.046      15.2149      13.1765      28.7324    5760.2466 
  112500      112.488    248.27188    10.365606   -534.67533   -524.30973    6168.5046    29515.264    40418.544   -51428.295      15.2149      13.1765      28.7324    5760.2466 
  113000      112.988    240.68567    10.048874   -534.34326   -524.29438    5169.0104    33007.941    39079.772   -56580.682      15.2149      13.1765      28.7324    5760.2466 
  113500      113.488    253.22817    10.572536   -534.85323   -524.28069    6452.8918    31448.126    38949.778   -51039.229      15.2149      13.1765      28.7324    5760.2466 
  114000      113.988    250.33188    10.451613   -534.71652    -524.2649    7067.9071    30129.233    41338.197   -50263.709      15.2149      13.1765      28.7324    5760.2466 
  114500      114.488    238.70207    9.9660567   -534.21613   -524.25007    6802.1585    31865.436    42329.641   -53788.602      15.2149      13.1765      28.7324    5760.2466 
  115000      114.988    238.34945    9.9513342    -534.1882   -524.23687    4966.6751    32544.149    38789.049   -56433.173      15.2149      13.1765      28.7324    5760.2466 
  115500      115.488    247.95319      10.3523    -534.5748    -524.2225    7093.7043    33299.824    39548.024   -51566.735      15.2149      13.1765      28.7324    5760.2466 
  116000      115.988    242.18985    10.111675   -534.31946   -524.20778    6531.0862    30292.823    43053.014   -53752.578      15.2149      13.1765      28.7324    5760.2466 
  116500      116.488    248.41935    10.371763   -534.56365   -524.19188    6061.4068    30200.257    36231.133   -48247.169      15.2149      13.1765      28.7324    5760.2466 
  117000      116.988    256.35029    10.702888   -534.88087   -524.17798    6681.2983    32057.565    41761.791   -53775.461      15.2149      13.1765      28.7324    5760.2466 
  117500      117.488    254.18708    10.612571   -534.77583   -524.16326    6454.6853    32188.371    39957.032   -52781.347      15.2149      13.1765      28.7324    5760.2466 
  118000      117.988     233.9599     9.768066   -533.91478   -524.14671    6897.3769    30544.465    41882.436   -51734.771      15.2149      13.1765      28.7324    5760.2466 
  118500      118.488    248.90932     10.39222   -534.52503   -524.13281    6212.7959     31545.45    40731.664   -53638.726      15.2149      13.1765      28.7324    5760.2466 
  119000      118.988    238.08642    9.9403526   -534.05826   -524.11791    6092.8081    31870.061    41658.454    -55250.09      15.2149      13.1765      28.7324    5760.2466 
  119500      119.488    240.22098    10.029473   -534.13185   -524.10238    6129.4049    31685.754    42982.866   -56280.406      15.2149      13.1765      28.7324    5760.2466 
  120000      119.988    243.44983     10.16428   -534.25213   -524.08785    6601.0585    33049.334    40715.145   -53961.304      15.2149      13.1765      28.7324    5760.2466 
  120500      120.488    247.97844    10.353355   -534.42595    -524.0726    7391.3685    30478.959     44389.83   -52694.684      15.2149      13.1765      28.7324    5760.2466 
  121000      120.988    251.31231    10.492547   -534.55039   -524.05784    6824.9236    27725.087    41900.863   -49151.179      15.2149      13.1765      28.7324    5760.2466 
  121500      121.488    242.49225    10.124301   -534.16686   -524.04256    6786.4327    28720.936    40816.007   -49177.644      15.2149      13.1765      28.7324    5760.2466 
  122000      121.988    242.26357    10.114753   -534.14204   -524.02729    7909.9608     31037.79    38341.155   -45649.063      15.2149      13.1765      28.7324    5760.2466 
  122500      122.488    244.72458    10.217503   -534.22982   -524.01231    6045.0793     30984.85    42300.366   -55149.977      15.2149      13.1765      28.7324    5760.2466 
  123000      122.988    264.57197    11.046152   -535.04451   -523.99836    5266.1262    25765.227    37962.658   -47929.507      15.2149      13.1765      28.7324    5760.2466 
  123500      123.488    244.91083    10.225279   -534.20781   -523.98253    6036.5034    28917.724    39832.931   -50641.145      15.2149      13.1765      28.7324    5760.2466 
  124000      123.988    238.58809    9.9612978   -533.92805   -523.96675    5832.0003    31252.645     40359.42   -54116.063      15.2149      13.1765      28.7324    5760.2466 
  124500      124.488    244.89478    10.224609   -534.17685   -523.95224    6153.2612    27058.359    38678.274    -47276.85      15.2149      13.1765      28.7324    5760.2466 
  125000      124.988    252.31504    10.534412   -534.47154   -523.93713    5128.6867    27491.601    40463.595   -52569.136      15.2149      13.1765      28.7324    5760.2466 
  125500      125.488    242.61224     10.12931   -534.05086   -523.92155    6220.8864    28065.671    40952.608    -50355.62      15.2149      13.1765      28.7324    5760.2466 
  126000      125.988    247.19353    10.320584   -534.22727   -523.90669    5706.3946    30771.966     39393.17   -53045.952      15.2149      13.1765      28.7324    5760.2466 
  126500      126.488    239.78605    10.011314   -533.90178   -523.89046     4999.133     30376.16    46880.799    -62259.56      15.2149      13.1765      28.7324    5760.2466 
  127000      126.988    246.65212    10.297979   -534.17432   -523.87634    5525.7303    31875.528    39262.875   -54561.212      15.2149      13.1765      28.7324    5760.2466 
  127500      127.488    239.38078    9.9943935   -533.85505   -523.86066    5759.0623    31644.928    40274.354   -54642.095      15.2149      13.1765      28.7324    5760.2466 
  128000      127.988    243.97223    10.186091   -534.03033   -523.84424    5992.6286    28046.198    43841.051   -53909.364      15.2149      13.1765      28.7324    5760.2466 
  128500      128.488    255.51738    10.668113   -534.49847   -523.83036    6639.5432    29921.102    36865.591   -46868.063      15.2149      13.1765      28.7324    5760.2466 
  129000      128.988    257.88834    10.767103   -534.58082   -523.81372     7215.182    33566.371    38629.609   -50550.434      15.2149      13.1765      28.7324    5760.2466 
  129500      129.488    252.97821      10.5621   -534.36122   -523.79912    6079.2958    30618.223    45284.999   -57665.335      15.2149      13.1765      28.7324    5760.2466 
  130000      129.988    245.64309    10.255851   -534.03909   -523.78324    7884.5786    29409.785    41165.725   -46921.774      15.2149      13.1765      28.7324    5760.2466 
  130500      130.488    255.57797    10.670643   -534.43799   -523.76735    5970.8397    29909.439    43150.223   -55147.142      15.2149      13.1765      28.7324    5760.2466 
  131000      130.988    256.80408    10.721834   -534.47445   -523.75262    7065.8232    33343.047    40791.965   -52937.542      15.2149      13.1765      28.7324    5760.2466 
  131500      131.488    244.05934    10.189728   -533.92627   -523.73654    7556.8613    28320.994    41555.657   -47206.067      15.2149      13.1765      28.7324    5760.2466 
  132000      131.988    240.61078    10.045747   -533.76731   -523.72156    6819.8454     31478.21    41457.984   -52476.659      15.2149      13.1765      28.7324    5760.2466 
  132500      132.488    259.96818    10.853938   -534.55968   -523.70575    9161.3163    36593.095    39853.758   -48962.904      15.2149      13.1765      28.7324    5760.2466 
  133000      132.988    250.19782    10.446016    -534.1354   -523.68939    6013.1448    32001.828    42025.348   -55987.742      15.2149      13.1765      28.7324    5760.2466 
  133500      133.488    252.81684    10.555363   -534.22938   -523.67402    7359.2826    31965.843    39306.478   -49194.473      15.2149      13.1765      28.7324    5760.2466 
  134000      133.988    244.35111     10.20191   -533.86077   -523.65886    7298.8714    31652.456    43125.409   -52881.251      15.2149      13.1765      28.7324    5760.2466 
  134500      134.488    263.13351    10.986094   -534.62917   -523.64308    6042.7024     30148.81    40699.833   -52720.536      15.2149      13.1765      28.7324    5760.2466 
  135000      134.988    255.62507    10.672609   -534.30005   -523.62744     6830.803    31324.051        42604   -53435.642      15.2149      13.1765      28.7324    5760.2466 
  135500      135.488     247.3948    10.328987   -533.94098   -523.61199    7550.2198    31913.836    40494.946   -49758.122      15.2149      13.1765      28.7324    5760.2466 
  136000      135.988    264.92401    11.060849   -534.65733   -523.59648    7767.3552    32273.155    41332.838   -50303.928      15.2149      13.1765      28.7324    5760.2466 
  136500      136.488     258.7638    10.803654   -534.38375    -523.5801    8603.6635    33666.313    41560.952   -49416.274      15.2149      13.1765      28.7324    5760.2466 
  137000      136.988    249.81805     10.43016   -533.99362   -523.56346    7184.2205    34004.051    39236.904   -51688.293      15.2149      13.1765      28.7324    5760.2466 
  137500      137.488    270.74827    11.304018   -534.85429   -523.55027     8030.393     29968.21    43676.992   -49554.023      15.2149      13.1765      28.7324    5760.2466 
  138000      137.988    258.05265    10.773963   -534.30643   -523.53247    5575.5166    31668.908    39950.547   -54892.905      15.2149      13.1765      28.7324    5760.2466 
  138500      138.488    259.80717    10.847216   -534.36448   -523.51727    5874.6565     30982.15    41635.443   -54993.623      15.2149      13.1765      28.7324    5760.2466 
  139000      138.988     254.2724    10.616134   -534.11728   -523.50114     7107.966    33278.903    38505.539   -50460.544      15.2149      13.1765      28.7324    5760.2466 
  139500      139.488    249.32734    10.409672   -533.89532   -523.48565    6718.1293    31238.197    43334.039   -54417.848      15.2149      13.1765      28.7324    5760.2466 
  140000      139.988    248.83722    10.389209   -533.85874   -523.46953     6163.699    30363.396    42725.939   -54598.238      15.2149      13.1765      28.7324    5760.2466 
  140500      140.488    262.35961    10.953783   -534.40781   -523.45403    6380.8396    29952.929    40278.771    -51089.18      15.2149      13.1765      28.7324    5760.2466 
  141000      140.988    252.75988    10.552985   -533.99084   -523.43785    5585.9529    29506.011    42817.562   -55565.714      15.2149      13.1765      28.7324    5760.2466 
  141500      141.488    261.81209    10.930924   -534.35373    -523.4228    7281.6806    28896.363    44030.984   -51082.306      15.2149      13.1765      28.7324    5760.2466 
  142000      141.988    258.47288    10.791508    -534.1985   -523.40699    5983.3944    32039.417    39432.534   -53521.768      15.2149      13.1765      28.7324    5760.2466 
  142500      142.488    258.95572    10.811667   -534.20299   -523.39133    6546.3233    31736.837    39184.765   -51282.632      15.2149      13.1765      28.7324    5760.2466 
  143000      142.988    266.91198    11.143849   -534.51915    -523.3753    6473.5853    30322.875    39599.823   -50501.942      15.2149      13.1765      28.7324    5760.2466 
  143500      143.488    263.65926    11.008045    -534.3667   -523.35865    6022.9369    28904.164    40109.534   -50944.887      15.2149      13.1765      28.7324    5760.2466 
  144000      143.988    246.87298      10.3072   -533.64934   -523.34214    6627.9696    30154.876    40990.454   -51261.421      15.2149      13.1765      28.7324    5760.2466 
  144500      144.488    245.38446    10.245053   -533.57143   -523.32638    5805.8957    29605.733    43261.902   -55449.948      15.2149      13.1765      28.7324    5760.2466 
  145000      144.988    254.84381    10.639991   -533.95015   -523.31016    6800.0445    31905.558    44607.261   -56112.686      15.2149      13.1765      28.7324    5760.2466 
  145500      145.488     240.2141    10.029185   -533.32366   -523.29447    6470.5269    30134.891    42402.862   -53126.172      15.2149      13.1765      28.7324    5760.2466 
  146000      145.988    236.37661     9.868966   -533.14676    -523.2778    5980.5323    29390.781    43313.171   -54762.355      15.2149      13.1765      28.7324    5760.2466 
  146500      146.488     248.3767    10.369982   -533.63201   -523.26203    5880.6774    29784.377    37584.613   -49726.958      15.2149      13.1765      28.7324    5760.2466 
  147000      146.988    259.42168    10.831122   -534.07777   -523.24665    6058.3046    27903.898    41520.919   -51249.903      15.2149      13.1765      28.7324    5760.2466 
  147500      147.488    258.36569    10.787033   -534.01693   -523.22989    7107.4013    33919.322    41596.554   -54193.672      15.2149      13.1765      28.7324    5760.2466 
  148000      147.988    258.51388     10.79322   -534.00773   -523.21451     7291.827      29273.5      43167.8   -50565.819      15.2149      13.1765      28.7324    5760.2466 
  148500      148.488    257.41731    10.747437   -533.94559   -523.19816    7378.5003    30552.783    42502.786   -50920.069      15.2149      13.1765      28.7324    5760.2466 
  149000      148.988    263.55925     11.00387   -534.18682   -523.18295    7309.4389    30824.376    35658.076   -44554.135      15.2149      13.1765      28.7324    5760.2466 
  149500      149.488    248.53625    10.376644   -533.54245    -523.1658    7976.9957    34972.593    38882.157   -49923.763      15.2149      13.1765      28.7324    5760.2466 
  150000      149.988    279.66227    11.676187   -534.82728   -523.15109    6772.0264    31261.985    42008.483   -52954.389      15.2149      13.1765      28.7324    5760.2466 
  150500      150.488    262.90059     10.97637   -534.10981   -523.13344    7149.5749    33758.318    40574.419   -52884.011      15.2149      13.1765      28.7324    5760.2466 
  151000      150.988     261.9517    10.936753   -534.05369   -523.11694    5711.5544    27699.034    41710.624   -52274.995      15.2149      13.1765      28.7324    5760.2466 
  151500      151.488    257.26813    10.741208   -533.84307   -523.10186    6941.5122    33443.232    38744.206   -51362.902      15.2149      13.1765      28.7324    5760.2466 
  152000      151.988    263.19349    10.988599    -534.0732    -523.0846    6334.1029     31676.98     42871.48   -55546.151      15.2149      13.1765      28.7324    5760.2466 
  152500      152.488    249.66583    10.423805   -533.49185   -523.06804    7531.0979    33190.835     41772.53   -52370.071      15.2149      13.1765      28.7324    5760.2466 
  153000      152.988      261.295    10.909334   -533.96147   -523.05213    7701.4949    31102.525    39442.413   -47440.453      15.2149      13.1765      28.7324    5760.2466 
  153500      153.488    255.54236    10.669156   -533.70522   -523.03607    7977.6221    33690.518    37978.561   -47736.213      15.2149      13.1765      28.7324    5760.2466 
  154000      153.988    269.58431    11.255422   -534.27543   -523.02001    6406.3801    31610.619    41284.275   -53675.753      15.2149      13.1765      28.7324    5760.2466 
  154500      154.488    253.28882    10.575068    -533.5782   -523.00314    5857.2408    28791.105    41269.861   -52489.244      15.2149      13.1765      28.7324    5760.2466 
  155000      154.988    255.98193    10.687508   -533.67404   -522.98653    6632.0967    33123.317    39467.086   -52694.113      15.2149      13.1765      28.7324    5760.2466 
  155500      155.488    262.88144     10.97557   -533.94589   -522.97032    6540.1182    31023.205    41661.339   -53064.189      15.2149      13.1765      28.7324    5760.2466 
  156000      155.988     261.3826    10.912992   -533.86751   -522.95452    6869.8036    32836.308    44469.252    -56696.15      15.2149      13.1765      28.7324    5760.2466 
  156500      156.488    270.26537    11.283857   -534.22222   -522.93836    7858.9488    30898.984    40836.885   -48159.022      15.2149      13.1765      28.7324    5760.2466 
  157000      156.988    252.36629    10.536552   -533.45686   -522.92031    7968.8136    32220.619    42882.053   -51196.231      15.2149      13.1765      28.7324    5760.2466 
  157500      157.488    242.54329    10.126431   -533.03102   -522.90459    6502.6324    32897.898    42885.019    -56275.02      15.2149      13.1765      28.7324    5760.2466 
  158000      157.988    264.14515    11.028331   -533.91768   -522.88935    6384.3758     29888.38    42132.682   -52867.935      15.2149      13.1765      28.7324    5760.2466 
  158500      158.488    270.54501    11.295532   -534.16719   -522.87165    7414.4393    34180.141    43169.116    -55105.94      15.2149      13.1765      28.7324    5760.2466 
  159000      158.988    263.51541    11.002039   -533.85831   -522.85628     7745.902    31136.946    42654.715   -50553.955      15.2149      13.1765      28.7324    5760.2466 
  159500      159.488    256.69456    10.717261   -533.55621   -522.83895    5963.3202    30717.644    39467.155   -52294.838      15.2149      13.1765      28.7324    5760.2466 
  160000      159.988     260.6434    10.882129   -533.70509   -522.82296    5929.8395    31538.984      39879.1   -53628.566      15.2149      13.1765      28.7324    5760.2466 
  160500      160.488     253.5597    10.586378   -533.39176   -522.80538    5965.4867    29596.472    41698.608    -53398.62      15.2149      13.1765      28.7324    5760.2466 
  161000      160.988    270.61187    11.298323   -534.08845   -522.79013    6619.2591    30642.569    41341.904   -52126.695      15.2149      13.1765      28.7324    5760.2466 
  161500      161.488    272.49304    11.376864   -534.15109   -522.77423    7171.6643    31347.796    42339.442   -52172.245      15.2149      13.1765      28.7324    5760.2466 
  162000      161.988    258.43586    10.789962   -533.54705   -522.75708    7915.9306    33737.294    46098.018   -56087.521      15.2149      13.1765      28.7324    5760.2466 
  162500      162.488    257.34008    10.744213   -533.48481    -522.7406    7308.3466    31624.658    43945.715   -53645.333      15.2149      13.1765      28.7324    5760.2466 
  163000      162.988    261.03958     10.89867   -533.62304   -522.72437    7068.6208    34063.089    40720.227   -53577.454      15.2149      13.1765      28.7324    5760.2466 
  163500      163.488    261.66719    10.924874   -533.63315   -522.70828    6184.7402    32047.721    44020.107   -57513.607      15.2149      13.1765      28.7324    5760.2466 
  164000      163.988    262.48964    10.959212    -533.6513   -522.69209    7171.2573    28552.773     38341.87   -45380.871      15.2149      13.1765      28.7324    5760.2466 
  164500      164.488    271.34373    11.328879   -534.00315   -522.67427    7863.4438    32642.452    40309.304   -49361.425      15.2149      13.1765      28.7324    5760.2466 
  165000      164.988    259.58048    10.837752   -533.49576   -522.65801    6364.5063    30479.737    34579.227   -45965.445      15.2149      13.1765      28.7324    5760.2466 
  165500      165.488    253.57873    10.587172   -533.22842   -522.64125    8298.2205    32863.464    37672.575   -45641.378      15.2149      13.1765      28.7324    5760.2466 
  166000      165.988    271.47344    11.334295   -533.95956   -522.62527    6511.9799    30502.152    42499.703   -53465.916      15.2149      13.1765      28.7324    5760.2466 
  166500      166.488    278.48138    11.626883   -534.23606   -522.60917    6929.5421    31790.832    42565.887   -53568.094      15.2149      13.1765      28.7324    5760.2466 
  167000      166.988    258.01909    10.772562   -533.36388   -522.59132    5227.7959    27264.469    45351.906   -56932.987      15.2149      13.1765      28.7324    5760.2466 
  167500      167.488    264.55418    11.045409   -533.62107   -522.57566     6628.528     27109.14    44733.535   -51957.091      15.2149      13.1765      28.7324    5760.2466 
  168000      167.988    267.21552    11.156522   -533.71502   -522.55849    6383.6789    28814.472    44649.896   -54313.331      15.2149      13.1765      28.7324    5760.2466 
  168500      168.488    264.00661    11.022547   -533.56422   -522.54167    7896.7611    34511.279    38809.334    -49630.33      15.2149      13.1765      28.7324    5760.2466 
  169000      168.988    257.33209    10.743879   -533.26907    -522.5252    7350.1419    31855.294    42238.373   -52043.241      15.2149      13.1765      28.7324    5760.2466 
  169500      169.488    259.90409    10.851262    -533.3592   -522.50794    5943.4642    31207.785     38657.06   -52034.452      15.2149      13.1765      28.7324    5760.2466 
  170000      169.988    267.89379    11.184841   -533.67717   -522.49233    7405.5421     32151.19    43416.469   -53351.032      15.2149      13.1765      28.7324    5760.2466 
  170500      170.488    268.32399    11.202802   -533.67801   -522.47521    6900.1765    33284.689    39210.478   -51794.637      15.2149      13.1765      28.7324    5760.2466 
  171000      170.988    255.49678    10.667253   -533.12456   -522.45731    7066.7623    32747.337    43964.546   -55511.596      15.2149      13.1765      28.7324    5760.2466 
  171500      171.488    271.19498    11.322669   -533.76502   -522.44235    6546.6485    32202.997    40510.564   -53073.616      15.2149      13.1765      28.7324    5760.2466 
  172000      171.988    258.42002    10.789301   -533.21407   -522.42477    7074.4186    33762.614    41807.612   -54346.971      15.2149      13.1765      28.7324    5760.2466 
  172500      172.488    258.47439    10.791571   -533.19914   -522.40757    7348.8827    26828.222    41225.412   -46006.986      15.2149      13.1765      28.7324    5760.2466 
  173000      172.988    274.77049     11.47195   -533.86364   -522.39169     8830.409    29684.041    43933.058   -47125.872      15.2149      13.1765      28.7324    5760.2466 
  173500      173.488    248.32523    10.367833   -532.74172   -522.37388    5755.4963    26553.165    44298.173   -53584.849      15.2149      13.1765      28.7324    5760.2466 
  174000      173.988    267.26746    11.158691   -533.51595   -522.35726    6948.4531     29788.11    41281.596   -50224.347      15.2149      13.1765      28.7324    5760.2466 
  174500      174.488     262.4303    10.956735   -533.29728   -522.34054    7343.1805     30649.35    41840.269   -50460.078      15.2149      13.1765      28.7324    5760.2466 
  175000      174.988    258.56353    10.795293   -533.11944   -522.32415    7266.9605    31868.532    41816.526   -51884.176      15.2149      13.1765      28.7324    5760.2466 
  175500      175.488    280.35095     11.70494   -534.01218   -522.30724    7509.1175    31133.957    40874.155   -49480.759      15.2149      13.1765      28.7324    5760.2466 
  176000      175.988    258.47175    10.791461   -533.08104   -522.28958    7651.1688    33678.275    44329.731     -55054.5      15.2149      13.1765      28.7324    5760.2466 
  176500      176.488    259.54123    10.836113   -533.10931    -522.2732     7338.707    32320.379    41955.296   -52259.555      15.2149      13.1765      28.7324    5760.2466 
  177000      176.988     266.3964    11.122323    -533.3784   -522.25607    7500.9812    33488.733    39331.241   -50317.031      15.2149      13.1765      28.7324    5760.2466 
  177500      177.488     262.3664    10.954067   -533.19343   -522.23937    6401.4116    29997.685    44036.145   -54829.595      15.2149      13.1765      28.7324    5760.2466 
  178000      177.988    281.57186    11.755914   -533.97963   -522.22371    8144.3607    31705.988    43761.518   -51034.423      15.2149      13.1765      28.7324    5760.2466 
  178500      178.488    277.13515    11.570677   -533.77662   -522.20594    6784.6471    30261.246    37134.546   -47041.851      15.2149      13.1765      28.7324    5760.2466 
  179000      178.988     249.4612    10.415261   -532.60334   -522.18808    6218.4229    30024.376    41381.852    -52750.96      15.2149      13.1765      28.7324    5760.2466 
  179500      179.488    260.28406    10.867127   -533.03789   -522.17077    6447.6502    33034.358    39822.418   -53513.825      15.2149      13.1765      28.7324    5760.2466 
  180000      179.988    271.48542    11.334795   -533.48907   -522.15428    6647.7505    27315.257    43343.372   -50715.377      15.2149      13.1765      28.7324    5760.2466 
  180500      180.488    271.62444    11.340599   -533.47765   -522.13705    6560.1265    27800.555    46114.841   -54235.017      15.2149      13.1765      28.7324    5760.2466 
  181000      180.988    283.35286    11.830273   -533.95106   -522.12079    7126.0508    31706.308     43924.45   -54252.605      15.2149      13.1765      28.7324    5760.2466 
  181500      181.488    259.05254     10.81571   -532.91947   -522.10376     6723.837    32584.596    40024.561   -52437.646      15.2149      13.1765      28.7324    5760.2466 
  182000      181.988    267.08127    11.150917   -533.23714   -522.08622    7404.0147    32204.816    39559.867   -49552.639      15.2149      13.1765      28.7324    5760.2466 
  182500      182.488     267.0393    11.149165   -533.21898   -522.06981    7425.3209    30552.517    40326.288   -48602.842      15.2149      13.1765      28.7324    5760.2466 
  183000      182.988    279.44907    11.667286   -533.72021   -522.05292    6204.8351    30407.023    40461.323   -52253.841      15.2149      13.1765      28.7324    5760.2466 
  183500      183.488    295.01181    12.317046   -534.35397   -522.03692    7532.6259    30240.147    40914.222   -48556.492      15.2149      13.1765      28.7324    5760.2466 
  184000      183.988    259.46845    10.833074   -532.85136   -522.01828     7931.319    32928.416    42276.509   -51410.968      15.2149      13.1765      28.7324    5760.2466 
  184500      184.488    274.67299    11.467879   -533.47031   -522.00243     6738.078    30356.909    44084.301   -54226.976      15.2149      13.1765      28.7324    5760.2466 
  185000      184.988    282.58932    11.798394    -533.7829    -521.9845    6115.9909    27623.729    43889.758   -53165.514      15.2149      13.1765      28.7324    5760.2466 
  185500      185.488    258.20447    10.780302   -532.74751   -521.96721    5926.3717    32962.343    38393.698   -53576.926      15.2149      13.1765      28.7324    5760.2466 
  186000      185.988    287.17491    11.989847   -533.93992   -521.95007    7851.0993    31017.257    39491.939   -46955.898      15.2149      13.1765      28.7324    5760.2466 
  186500      186.488    279.92132    11.687002   -533.61917   -521.93217    6498.2621    31242.544    39425.177   -51172.934      15.2149      13.1765      28.7324    5760.2466 
  187000      186.988    274.20736    11.448439   -533.36349   -521.91505    7725.4092    33369.331    41841.717    -52034.82      15.2149      13.1765      28.7324    5760.2466 
  187500      187.488    262.62533    10.964877   -532.86226   -521.89739    6735.2149      30595.5    41991.513   -52381.368      15.2149      13.1765      28.7324    5760.2466 
  188000      187.988    275.54391    11.504241   -533.38425   -521.88001    7444.7814    35827.678    41648.639   -55141.973      15.2149      13.1765      28.7324    5760.2466 
  188500      188.488    264.17938    11.029761   -532.89265   -521.86289    7522.1923    34187.537    43939.961   -55560.921      15.2149      13.1765      28.7324    5760.2466 
  189000      188.988    282.01068    11.774235   -533.61958   -521.84534    7888.6955    33555.921    42145.811   -52035.646      15.2149      13.1765      28.7324    5760.2466 
  189500      189.488     280.6269    11.716461   -533.54442   -521.82796    7564.3846    34298.671    43568.024   -55173.541      15.2149      13.1765      28.7324    5760.2466 
  190000      189.988    274.06626    11.442548   -533.25309   -521.81054    5355.7553    29577.757    42778.289    -56288.78      15.2149      13.1765      28.7324    5760.2466 
  190500      190.488    264.89946    11.059824   -532.85297   -521.79315    7040.0465    32526.478    43018.786   -54425.125      15.2149      13.1765      28.7324    5760.2466 
  191000      190.988    267.79916     11.18089   -532.95616   -521.77527    6688.2052    30185.395    40193.152   -50313.932      15.2149      13.1765      28.7324    5760.2466 
  191500      191.488    261.17466     10.90431   -532.66295   -521.75864    6897.3294    31594.465    41570.281   -52472.758      15.2149      13.1765      28.7324    5760.2466 
  192000      191.988    262.59186     10.96348   -532.70433   -521.74085    6278.5775    32888.832    38070.819   -52123.918      15.2149      13.1765      28.7324    5760.2466 
  192500      192.488    286.37137    11.956299    -533.6806    -521.7243    6789.8481    30879.465    42923.799    -53433.72      15.2149      13.1765      28.7324    5760.2466 
  193000      192.988    264.80104    11.055715   -532.76201    -521.7063    6993.4609    32603.463    45669.289   -57292.369      15.2149      13.1765      28.7324    5760.2466 
  193500      193.488    266.62685    11.131945   -532.82023   -521.68828    6999.5917    32715.147    45206.351   -56922.724      15.2149      13.1765      28.7324    5760.2466 
  194000      193.988    290.86786    12.144032   -533.81519   -521.67116    6173.7743    28336.766    43339.855   -53155.298      15.2149      13.1765      28.7324    5760.2466 
  194500      194.488    280.00314    11.690419   -533.34453   -521.65411    7051.7644    30735.714     41654.22    -51234.64      15.2149      13.1765      28.7324    5760.2466 
  195000      194.988    283.41904    11.833036   -533.46968   -521.63665    6954.7012    31917.456    42533.085   -53586.438      15.2149      13.1765      28.7324    5760.2466 
  195500      195.488    273.57335    11.421968   -533.04143   -521.61946    6350.6873    29702.776     40508.33   -51159.045      15.2149      13.1765      28.7324    5760.2466 
  196000      195.988    280.55668     11.71353   -533.31503    -521.6015    7458.9046    33552.881     43935.07   -55111.237      15.2149      13.1765      28.7324    5760.2466 
  196500      196.488    298.40195    12.458588   -534.04284   -521.58425     5705.489    34014.905    40013.897   -56912.335      15.2149      13.1765      28.7324    5760.2466 
  197000      196.988    280.48586    11.710573   -533.27667    -521.5661    7356.6684    33281.582    44310.243    -55521.82      15.2149      13.1765      28.7324    5760.2466 
  197500      197.488      294.149    12.281023   -533.82938   -521.54836    7294.1407    30369.457    42162.566     -50649.6      15.2149      13.1765      28.7324    5760.2466 
  198000      197.988    278.76837    11.638866   -533.16957   -521.53071    7515.6701    32299.833    37796.997    -47549.82      15.2149      13.1765      28.7324    5760.2466 
  198500      198.488    280.91492    11.728487    -533.2417   -521.51321    5927.0269    29127.909     41986.62   -53333.449      15.2149      13.1765      28.7324    5760.2466 
  199000      198.988    280.90063     11.72789    -533.2234   -521.49551    7480.6767    31580.215    44663.953   -53802.138      15.2149      13.1765      28.7324    5760.2466 
  199500      199.488     273.1881    11.405884   -532.88326   -521.47737    6548.7361    34271.028    42511.261   -57136.081      15.2149      13.1765      28.7324    5760.2466 
  200000      199.988    286.30539    11.953544   -533.41388   -521.46034    5598.1999    30644.444    41613.391   -55463.236      15.2149      13.1765      28.7324    5760.2466 
  200500      200.488    294.83855    12.309812   -533.75258   -521.44277     6288.613    36157.975    43288.727   -60580.863      15.2149      13.1765      28.7324    5760.2466 
  201000      200.988    299.22266    12.492853   -533.91937   -521.42651    7418.2228    33082.619    42348.033   -53175.983      15.2149      13.1765      28.7324    5760.2466 
  201500      201.488    291.01479    12.150166   -533.55831   -521.40814    7655.1212    35075.581    41639.512   -53749.729      15.2149      13.1765      28.7324    5760.2466 
  202000      201.988    270.85294    11.308388   -532.69787   -521.38949    6405.2443    31023.414    40443.032   -52250.713      15.2149      13.1765      28.7324    5760.2466 
  202500      202.488    285.91153      11.9371   -533.31021   -521.37311    6790.1116    32885.149    41462.487   -53977.301      15.2149      13.1765      28.7324    5760.2466 
  203000      202.988    284.90696    11.895158   -533.25032   -521.35516    7820.3157     35033.52     39639.19   -51211.764      15.2149      13.1765      28.7324    5760.2466 
  203500      203.488    278.65913    11.634305   -532.97079   -521.33649    7293.4547    30399.758    45538.085   -54057.479      15.2149      13.1765      28.7324    5760.2466 
  204000      203.988    283.95863    11.855564   -533.17479   -521.31923    7779.9043     34222.05    44538.278   -55420.615      15.2149      13.1765      28.7324    5760.2466 
  204500      204.488    290.94793    12.147375   -533.44876   -521.30138    7824.9892    32888.177    40972.696   -50385.906      15.2149      13.1765      28.7324    5760.2466 
  205000      204.988    281.01559    11.732689   -533.01607   -521.28338    7070.5599    35204.726     41604.97   -55598.016      15.2149      13.1765      28.7324    5760.2466 
  205500      205.488    277.86424    11.601118   -532.86541    -521.2643    7151.7504    37399.786    41938.614   -57883.149      15.2149      13.1765      28.7324    5760.2466 
  206000      205.988    276.83172    11.558008   -532.80556   -521.24755    7252.1607    33486.188    44251.616   -55981.322      15.2149      13.1765      28.7324    5760.2466 
  206500      206.488     280.4804    11.710345   -532.94076   -521.23041    7562.6288    29572.706    44008.675   -50893.495      15.2149      13.1765      28.7324    5760.2466 
  207000      206.988    291.33205    12.163412   -533.37544   -521.21203    6711.4418     30004.66    40826.347   -50696.682      15.2149      13.1765      28.7324    5760.2466 
  207500      207.488    286.39419    11.957252   -533.15172   -521.19447     7407.188     32444.99    47222.833    -57446.26      15.2149      13.1765      28.7324    5760.2466 
  208000      207.988    280.14359    11.696283   -532.87223   -521.17594    7640.7751    31653.908    39628.103   -48359.685      15.2149      13.1765      28.7324    5760.2466 
  208500      208.488    294.78657    12.307642    -533.4649   -521.15726    5623.2845     32533.62    41895.385   -57559.151      15.2149      13.1765      28.7324    5760.2466 
  209000      208.988     268.6223    11.215257    -532.3552   -521.13994    8705.6099    31188.866    43856.829   -48928.866      15.2149      13.1765      28.7324    5760.2466 
  209500      209.488    291.08427    12.153067   -533.27507     -521.122    5499.3101    33297.554    42196.736    -58996.36      15.2149      13.1765      28.7324    5760.2466 
  210000      209.988    286.15577    11.947297   -533.05115   -521.10385    7460.3423    32722.529    44941.549   -55283.052      15.2149      13.1765      28.7324    5760.2466 
  210500      210.488    277.49583    11.585736   -532.67177   -521.08604    7190.3021    31535.014     44881.62   -54845.728      15.2149      13.1765      28.7324    5760.2466 
  211000      210.988    273.44477      11.4166   -532.48443   -521.06783    6441.8638     30000.72    43586.341   -54261.469      15.2149      13.1765      28.7324    5760.2466 
  211500      211.488    298.14261     12.44776   -533.49893   -521.05117    6950.8679    30175.341    41671.326   -50994.063      15.2149      13.1765      28.7324    5760.2466 
  212000      211.988    266.91803    11.144102   -532.17586   -521.03176    7205.3171    31895.408    42257.253    -52536.71      15.2149      13.1765      28.7324    5760.2466 
[...]
  948500      948.488     358.6544     14.97419   -528.47334   -513.49915    8514.8826    32612.989    41625.219   -48693.561      15.2149      13.1765      28.7324    5760.2466 
  949000      948.988    384.51038    16.053703   -529.55348   -513.49977    9315.6917     33672.87    47519.751   -53245.545      15.2149      13.1765      28.7324    5760.2466 
  949500      949.488    357.10437    14.909474   -528.40679   -513.49732    8837.4012    30262.506    45359.605   -49109.907      15.2149      13.1765      28.7324    5760.2466 
  950000      949.988    388.46282    16.218722   -529.71542    -513.4967    9045.4429    32075.076    46807.612    -51746.36      15.2149      13.1765      28.7324    5760.2466 
  950500      950.488    371.24844    15.500004   -528.99545   -513.49544     8625.777    37231.769    42850.902    -54205.34      15.2149      13.1765      28.7324    5760.2466 
  951000      950.988    364.80691    15.231063   -528.72556    -513.4945    9718.8457    32779.857    43802.279   -47425.599      15.2149      13.1765      28.7324    5760.2466 
  951500      951.488     357.5851    14.929545   -528.42265    -513.4931    8475.0321    33020.045    46654.757   -54249.705      15.2149      13.1765      28.7324    5760.2466 
  952000      951.988    383.40477    16.007543   -529.49934    -513.4918    9747.2125     33026.26    43798.429   -47583.052      15.2149      13.1765      28.7324    5760.2466 
  952500      952.488    397.58889    16.599744   -530.09149   -513.49174    9665.4421      33944.6    45718.793   -50667.066      15.2149      13.1765      28.7324    5760.2466 
  953000      952.988    379.77646    15.856057   -529.34539   -513.48933    8219.6794    28385.643    48015.751   -51742.356      15.2149      13.1765      28.7324    5760.2466 
  953500      953.488    358.39383     14.96331   -528.45222    -513.4889    9669.6428    35424.994     41484.72   -47900.786      15.2149      13.1765      28.7324    5760.2466 
  954000      953.988    385.58306    16.098489   -529.58591   -513.48742    8559.6972     33315.04    45109.256   -52745.205      15.2149      13.1765      28.7324    5760.2466 
  954500      954.488    381.62473    15.933224    -529.4192   -513.48598    10629.706    34212.324    49045.699   -51368.905      15.2149      13.1765      28.7324    5760.2466 
  955000      954.988    366.05511    15.283177   -528.76769   -513.48451    8554.6078    31741.483    45230.544   -51308.204      15.2149      13.1765      28.7324    5760.2466 
  955500      955.488    384.04263    16.034174   -529.51766   -513.48349    8782.5808    32800.911    45388.654   -51841.823      15.2149      13.1765      28.7324    5760.2466 
  956000      955.988    382.24373    15.959068   -529.44096   -513.48189    9040.0358     32752.21    43919.459   -49551.562      15.2149      13.1765      28.7324    5760.2466 
  956500      956.488    388.07348    16.202466   -529.68391   -513.48145    9836.6046    30485.936    45769.424   -46745.547      15.2149      13.1765      28.7324    5760.2466 
  957000      956.988     396.1337    16.538989   -530.01931   -513.48032    9316.3566    33552.647    44056.255   -49659.832      15.2149      13.1765      28.7324    5760.2466 
  957500      957.488    366.15143    15.287198   -528.76525   -513.47805    10437.672    34098.461    49804.796   -52590.241      15.2149      13.1765      28.7324    5760.2466 
  958000      957.988    387.09686    16.161691   -529.63987   -513.47818    9626.3953     33506.03     45082.33   -49709.174      15.2149      13.1765      28.7324    5760.2466 
  958500      958.488    384.96152    16.072539   -529.54819   -513.47565    9052.1085    33992.836    44694.967   -51531.478      15.2149      13.1765      28.7324    5760.2466 
  959000      958.988    366.02881    15.282079   -528.75427   -513.47219    8462.0291     36444.68    44616.738   -55675.332      15.2149      13.1765      28.7324    5760.2466 
  959500      959.488    387.99854    16.199337   -529.67143    -513.4721     9903.128    35090.505    42481.309    -47862.43      15.2149      13.1765      28.7324    5760.2466 
  960000      959.988    368.10173    15.368625   -528.83878   -513.47015    9025.3095    32639.254    40851.407   -46414.732      15.2149      13.1765      28.7324    5760.2466 
  960500      960.488    379.38862    15.839865    -529.3096   -513.46973    7903.4986    30044.093    46403.746   -52737.343      15.2149      13.1765      28.7324    5760.2466 
  961000      960.988    373.54492    15.595884   -529.06422   -513.46833    8075.4239    32188.799    45230.293    -53192.82      15.2149      13.1765      28.7324    5760.2466 
  961500      961.488    385.09918    16.078286    -529.5447   -513.46642    9044.2467    34555.806    45443.125   -52866.191      15.2149      13.1765      28.7324    5760.2466 
  962000      961.988    380.87644    15.901982   -529.36677   -513.46479    8805.1111     30913.75    39655.494   -44153.911      15.2149      13.1765      28.7324    5760.2466 
  962500      962.488    370.72211    15.478029   -528.94197   -513.46394    8299.6479    31808.478    46903.841   -53813.376      15.2149      13.1765      28.7324    5760.2466 
  963000      962.988    374.53777    15.637336   -529.09852   -513.46119    9695.2433    33574.299    42129.304   -46617.874      15.2149      13.1765      28.7324    5760.2466 
  963500      963.488    368.32742    15.378048   -528.83876   -513.46071    9535.0907     33111.95    49266.107   -53772.785      15.2149      13.1765      28.7324    5760.2466 
  964000      963.988    386.61014     16.14137   -529.60098   -513.45961    8987.0209     33983.67    41845.424   -48868.031      15.2149      13.1765      28.7324    5760.2466 
  964500      964.488    362.55326    15.136971   -528.59243   -513.45546    10827.787    36376.964    40650.368   -44543.971      15.2149      13.1765      28.7324    5760.2466 
  965000      964.988    379.96987    15.864132   -529.31931   -513.45518    9334.1014     33182.14    40306.667   -45486.503      15.2149      13.1765      28.7324    5760.2466 
  965500      965.488    374.12645    15.620163   -529.07339   -513.45322     7979.884    33648.323    40196.873   -49905.544      15.2149      13.1765      28.7324    5760.2466 
  966000      965.988    368.09877    15.368501   -528.81856   -513.45005    10262.943    34354.795    45938.923    -49504.89      15.2149      13.1765      28.7324    5760.2466 
  966500      966.488    373.33395    15.587076   -529.03575   -513.44867    9457.5833    33084.142    43950.368    -48661.76      15.2149      13.1765      28.7324    5760.2466 
  967000      966.988    355.57453    14.845602   -528.29077   -513.44517    9519.9543     31222.88    49484.233   -52147.251      15.2149      13.1765      28.7324    5760.2466 
  967500      967.488    385.38998    16.090427   -529.53646   -513.44603    9148.6992    31192.684    47433.393   -51179.979      15.2149      13.1765      28.7324    5760.2466 
  968000      967.988    375.74194    15.687612   -529.13158   -513.44397    10239.528     36723.66    50790.547   -56795.622      15.2149      13.1765      28.7324    5760.2466 
  968500      968.488    385.47716    16.094067   -529.53474   -513.44067    7757.1614    35351.922    43118.133   -55198.571      15.2149      13.1765      28.7324    5760.2466 
  969000      968.988    367.54295    15.345296   -528.78377   -513.43847    7503.3611    33119.688    43946.791   -54556.396      15.2149      13.1765      28.7324    5760.2466 
  969500      969.488    397.49827    16.595961   -530.03352   -513.43756    8604.0747    34159.065     43781.98   -52128.821      15.2149      13.1765      28.7324    5760.2466 
  970000      969.988    378.42022    15.799433   -529.23363    -513.4342    9937.9489    35185.006    50824.947   -56196.107      15.2149      13.1765      28.7324    5760.2466 
  970500      970.488    353.34139    14.752366   -528.18254   -513.43017    9184.2699    33038.109    48135.979   -53621.278      15.2149      13.1765      28.7324    5760.2466 
  971000      970.988     388.4765    16.219293   -529.64726   -513.42797    8525.9234    32608.229    47955.034   -54985.493      15.2149      13.1765      28.7324    5760.2466 
  971500      971.488    388.02502    16.200443   -529.62605   -513.42561    9489.6483    31459.245    49434.731   -52425.031      15.2149      13.1765      28.7324    5760.2466 
  972000      971.988    383.08174    15.994056   -529.41624   -513.42219    7373.3085    32578.339    45126.619   -55585.033      15.2149      13.1765      28.7324    5760.2466 
  972500      972.488    393.03599    16.409656   -529.83084   -513.42118     9107.767    31592.959    45631.494   -49901.152      15.2149      13.1765      28.7324    5760.2466 
  973000      972.988     363.2247    15.165004   -528.58148   -513.41648    9547.2418    35318.942    45841.188   -52518.404      15.2149      13.1765      28.7324    5760.2466 
  973500      973.488    395.59157    16.516354   -529.93249   -513.41613    9204.3513    31398.376    42139.019   -45924.341      15.2149      13.1765      28.7324    5760.2466 
  974000      973.988    395.89465    16.529008   -529.94199   -513.41299    10491.481    35299.481     45407.48   -49232.517      15.2149      13.1765      28.7324    5760.2466 
  974500      974.488     376.3446    15.712773   -529.12337   -513.41059    8835.7273    33644.629    41773.883   -48911.329      15.2149      13.1765      28.7324    5760.2466 
  975000      974.988    371.62582    15.515759     -528.922   -513.40624    10717.425    35791.751    44880.289   -48519.764      15.2149      13.1765      28.7324    5760.2466 
  975500      975.488    356.03455    14.864808   -528.26778   -513.40297    7389.9599    35285.415    45464.358   -58579.894      15.2149      13.1765      28.7324    5760.2466 
  976000      975.988     376.0854    15.701952   -529.10447   -513.40252    10024.772    35936.666    48948.333   -54810.683      15.2149      13.1765      28.7324    5760.2466 
  976500      976.488    363.21963    15.164792   -528.56306   -513.39827    10055.801    36109.388     41840.59   -47782.576      15.2149      13.1765      28.7324    5760.2466 
  977000      976.988    359.80619    15.022278   -528.41805   -513.39578    8687.6598    35111.155    42388.684    -51436.86      15.2149      13.1765      28.7324    5760.2466 
  977500      977.488     370.0167    15.448577   -528.84329   -513.39471    9022.3808    31070.122    44912.317   -48915.296      15.2149      13.1765      28.7324    5760.2466 
  978000      977.988    384.65497     16.05974   -529.45059   -513.39085     8655.381    29945.996    43590.683   -47570.536      15.2149      13.1765      28.7324    5760.2466 
  978500      978.488    393.32068    16.421542    -529.8106   -513.38906    8363.9992    33206.989    40470.941   -48585.932      15.2149      13.1765      28.7324    5760.2466 
  979000      978.988    378.43331    15.799979   -529.18676   -513.38678    11707.022    35691.022    44538.889   -45108.844      15.2149      13.1765      28.7324    5760.2466 
  979500      979.488    362.88423    15.150789   -528.53345   -513.38266    7361.5484    39248.465    38602.105   -55765.926      15.2149      13.1765      28.7324    5760.2466 
  980000      979.988    375.20377    15.665142   -529.04473   -513.37959    8283.5645    35020.584    46003.394   -56173.285      15.2149      13.1765      28.7324    5760.2466 
  980500      980.488    364.87931    15.234086   -528.60791   -513.37382     9239.312      38641.3    40917.272   -51840.636      15.2149      13.1765      28.7324    5760.2466 
  981000      980.988    365.47655    15.259021   -528.63135   -513.37233    8111.0659    34456.881    43777.466    -53901.15      15.2149      13.1765      28.7324    5760.2466 
  981500      981.488    369.42167    15.423734   -528.79326   -513.36953    9302.7875    39158.407    44028.534   -55278.579      15.2149      13.1765      28.7324    5760.2466 
  982000      981.988    374.88213    15.651714   -529.01844   -513.36672    9399.5143    35233.778    40761.579   -47796.814      15.2149      13.1765      28.7324    5760.2466 
  982500      982.488    378.40453    15.798778   -529.16131   -513.36253    9625.8454     34114.78    44393.091   -49630.335      15.2149      13.1765      28.7324    5760.2466 
  983000      982.988    391.86552    16.360788   -529.71952   -513.35873    8554.7055    34833.727    46143.378   -55312.988      15.2149      13.1765      28.7324    5760.2466 
  983500      983.488    363.36138    15.170711   -528.52424   -513.35353    8900.0495    30600.394    46501.507   -50401.753      15.2149      13.1765      28.7324    5760.2466 
  984000      983.988    361.51208    15.093501    -528.4452    -513.3517    9108.2234    32475.199     46191.05   -51341.579      15.2149      13.1765      28.7324    5760.2466 
  984500      984.488    382.36956    15.964322   -529.31186   -513.34754    9637.8287    35400.786    49125.875   -55613.175      15.2149      13.1765      28.7324    5760.2466 
  985000      984.988    380.41351    15.882655    -529.2261   -513.34345     9116.091     34637.52    45737.973   -53027.221      15.2149      13.1765      28.7324    5760.2466 
  985500      985.488     396.6752    16.561597   -529.90213   -513.34053     8670.526    35612.661    45049.084   -54650.167      15.2149      13.1765      28.7324    5760.2466 
  986000      985.988    353.00009    14.738116   -528.07462   -513.33651      8681.59     36966.93    43604.124   -54526.284      15.2149      13.1765      28.7324    5760.2466 
  986500      986.488    370.94394     15.48729   -528.81811   -513.33082    9022.9225    29166.159    42998.143   -45095.535      15.2149      13.1765      28.7324    5760.2466 
  987000      986.988    371.76034    15.521376   -528.84986   -513.32848    9456.1355    34877.128    45441.798   -51950.519      15.2149      13.1765      28.7324    5760.2466 
  987500      987.488    371.82908    15.524246   -528.85048   -513.32623    9807.6934    37740.864     41472.43   -49790.214      15.2149      13.1765      28.7324    5760.2466 
  988000      987.988    380.71908    15.895412   -529.21957   -513.32416    8382.4505    37091.863    42793.862   -54738.373      15.2149      13.1765      28.7324    5760.2466 
  988500      988.488    379.17847     15.83109   -529.15107   -513.31998    9406.4639    32891.733    46851.513   -51523.854      15.2149      13.1765      28.7324    5760.2466 
  989000      988.988    369.70575    15.435595   -528.75288   -513.31728     8440.736    35378.808    45845.704   -55902.304      15.2149      13.1765      28.7324    5760.2466 
  989500      989.488    354.30981    14.792798   -528.10506   -513.31226    9329.3071    33690.321    49338.665   -55041.064      15.2149      13.1765      28.7324    5760.2466 
  990000      989.988     375.6213    15.682575   -528.99102   -513.30845    9058.5502    32982.447     47463.94   -53270.737      15.2149      13.1765      28.7324    5760.2466 
  990500      990.488    354.03978    14.781524   -528.08503   -513.30351    10288.013    36927.161    44319.786   -50382.908      15.2149      13.1765      28.7324    5760.2466 
  991000      990.988    377.79441    15.773305   -529.07628   -513.30297    8713.9294     31880.28    47311.894   -53050.385      15.2149      13.1765      28.7324    5760.2466 
  991500      991.488    385.42763    16.091999   -529.38894   -513.29694    8867.8506    31423.775    42951.787    -47772.01      15.2149      13.1765      28.7324    5760.2466 
  992000      991.988    375.72127    15.686749   -528.97998   -513.29323    9347.4746     30084.45    48042.811   -50084.838      15.2149      13.1765      28.7324    5760.2466 
  992500      992.488    388.05984    16.201897   -529.49237   -513.29048    8272.4925    32945.825      45559.8   -53688.147      15.2149      13.1765      28.7324    5760.2466 
  993000      992.988    355.19318     14.82968   -528.11494   -513.28526    10204.814    33434.858    49981.043   -52801.459      15.2149      13.1765      28.7324    5760.2466 
  993500      993.488    369.62107    15.432059   -528.71303   -513.28097    8682.2109     35410.54    44716.675   -54080.582      15.2149      13.1765      28.7324    5760.2466 
  994000      993.988    360.74848    15.061619   -528.33884   -513.27722    9739.3359    26730.487    49247.444   -46759.924      15.2149      13.1765      28.7324    5760.2466 
  994500      994.488    384.01174    16.032885   -529.30724   -513.27436    8374.9298    33441.171    48080.703   -56397.085      15.2149      13.1765      28.7324    5760.2466 
  995000      994.988    377.86349    15.776189   -529.04642   -513.27023    8444.9031    33778.755    45759.343   -54203.389      15.2149      13.1765      28.7324    5760.2466 
  995500      995.488    370.27424     15.45933   -528.72557   -513.26624    8522.8252    31772.849    48303.008   -54507.381      15.2149      13.1765      28.7324    5760.2466 
  996000      995.988    380.84669     15.90074   -529.16188   -513.26114     8489.439    34793.609    48292.364   -57617.655      15.2149      13.1765      28.7324    5760.2466 
  996500      996.488    358.70689    14.976381    -528.2335   -513.25712    9234.6407     35304.83    47688.148   -55289.056      15.2149      13.1765      28.7324    5760.2466 
  997000      996.988    403.47929    16.845675   -530.09939   -513.25372    10038.258    36119.086    43845.319   -49849.632      15.2149      13.1765      28.7324    5760.2466 
  997500      997.488    390.10365    16.287228   -529.53576   -513.24853    8932.5134    35144.167    43121.306   -51467.933      15.2149      13.1765      28.7324    5760.2466 
  998000      997.988    378.97552    15.822617   -529.06741   -513.24479    9377.5482    32451.102    48098.363    -52416.82      15.2149      13.1765      28.7324    5760.2466 
  998500      998.488    382.62617    15.975035   -529.21584    -513.2408    10062.729    36728.584    46708.766   -53249.162      15.2149      13.1765      28.7324    5760.2466 
  999000      998.988    389.29889    16.253628    -529.4904   -513.23677    9189.1821    36600.798    45074.609   -54107.861      15.2149      13.1765      28.7324    5760.2466 
  999500      999.488    371.13866     15.49542   -528.72713   -513.23171    9429.8909    30480.839     46633.07   -48824.236      15.2149      13.1765      28.7324    5760.2466 
 1000000      999.988    371.27646    15.501173   -528.72647    -513.2253    8845.8458    33998.687    44404.442   -51865.592      15.2149      13.1765      28.7324    5760.2466 
 1000012         1000    388.26204    16.210339   -529.43768   -513.22734    8353.9873    32297.341    45511.877   -52747.256      15.2149      13.1765      28.7324    5760.2466 
Loop time of 928.142 on 28 procs for 1000000 steps with 324 atoms

Performance: 93.089 ns/day, 0.258 hours/ns, 1077.421 timesteps/s
88.1% CPU use with 28 MPI tasks x no OpenMP threads

MPI task timing breakdown:
Section |  min time  |  avg time  |  max time  |%varavg| %total
---------------------------------------------------------------
Pair    | 764.3      | 802.77     | 860.23     |  93.7 | 86.49
Neigh   | 0.0001125  | 0.00014953 | 0.00023452 |   0.2 |  0.00
Comm    | 56.213     | 112.28     | 150.53     | 245.0 | 12.10
Output  | 0.099686   | 0.1022     | 0.12384    |   1.3 |  0.01
Modify  | 5.0408     | 7.8476     | 14.629     | 103.4 |  0.85
Other   |            | 5.148      |            |       |  0.55

Nlocal:    11.5714 ave 15 max 8 min
Histogram: 3 3 3 0 5 5 0 3 1 5
Nghost:    658.571 ave 706 max 622 min
Histogram: 12 0 0 0 5 3 0 0 1 7
Neighs:    720.536 ave 992 max 479 min
Histogram: 3 2 3 5 3 3 3 2 0 4
FullNghs:  1441.07 ave 1882 max 1002 min
Histogram: 3 3 3 0 5 5 2 1 1 5

Total # of neighbors = 40350
Ave neighs/atom = 124.537
Neighbor list builds = 2
Dangerous builds = 0

write_restart   POSCAR_1x1x1.rest

#unfix    1
#undump   1
Total wall time: 0:15:28
