LAMMPS (7 Dec 2015)
#----------- Initialize Simulation ------------ restart01
#processors	2 2 2
units		metal
boundary	p p p     ## periodic boundary condition  on x y z axis ##
atom_style atomic
#atom_modify map array sort 0 0.0

read_data	POSCAR_1x1x1.lammps
  triclinic box = (0 0 0) to (15.2149 13.1765 28.7324) with tilt (-7.60743 0 0)
  2 by 2 by 7 MPI processor grid
  reading atoms ...
  324 atoms

#----------- Define Potential -----------------
pair_style meam
pair_coeff * * MgAlZn.library.meam Mg Al Zn MgAlZn.parameter.meam Mg Al Zn 	#1=Mg 2=Al 3=Zn	#atoms/mass

#----------- Neighbor List --------------------
neighbor 2.0 bin
neigh_modify delay 10 check yes

#--------------  Run a simulation (minimization) ---------------------------------------
minimize       1.0e-4   1.0e-6   100   1000          #結構優化的條件
WARNING: Resetting reneighboring criteria during minimization (../min.cpp:168)
Neighbor list info ...
  2 neighbor list requests
  update every 1 steps, delay 0 steps, check yes
  max neighbors/atom: 2000, page size: 100000
  master list distance cutoff = 8
  ghost atom cutoff = 8
  binsize = 4 -> bins = 6 4 8
Memory usage per processor = 8.65338 Mbytes
Step Temp E_pair E_mol TotEng Press 
       0            0   -467.08246            0   -467.08246    -6195.555 
      11            0   -480.76048            0   -480.76048   -13594.125 
Loop time of 0.0191837 on 28 procs for 11 steps with 324 atoms

91.2% CPU use with 28 MPI tasks x no OpenMP threads

Minimization stats:
  Stopping criterion = energy tolerance
  Energy initial, next-to-last, final = 
        -467.082455464     -480.733969598     -480.760482263
  Force two-norm initial, final = 18.7283 2.73194
  Force max component initial, final = 2.87555 0.630093
  Final line search alpha, max atom move = 0.168753 0.10633
  Iterations, force evaluations = 11 21

MPI task timing breakdown:
Section |  min time  |  avg time  |  max time  |%varavg| %total
---------------------------------------------------------------
Pair    | 0.015448   | 0.016334   | 0.017281   |   0.4 | 85.15
Neigh   | 0          | 0          | 0          |   0.0 |  0.00
Comm    | 0.0011515  | 0.0020382  | 0.0029438  |   1.1 | 10.62
Output  | 0          | 0          | 0          |   0.0 |  0.00
Modify  | 0          | 0          | 0          |   0.0 |  0.00
Other   |            | 0.0008112  |            |       |  4.23

Nlocal:    11.5714 ave 15 max 9 min
Histogram: 5 5 0 4 0 5 5 0 0 4
Nghost:    662.786 ave 713 max 625 min
Histogram: 4 3 3 6 2 2 1 3 2 2
Neighs:    720.107 ave 975 max 512 min
Histogram: 2 4 4 3 3 5 3 0 2 2
FullNghs:  1440.21 ave 1891 max 1093 min
Histogram: 5 4 2 3 1 4 4 1 0 4

Total # of neighbors = 40326
Ave neighs/atom = 124.463
Neighbor list builds = 0
Dangerous builds = 0
velocity all  create 393.0 4928459 #rot yes dist gaussian

#--------------  Run a simulation (Relaxation)  ----------------------------------------
fix  1  all  nvt   temp  393.0  393.0  100				#damping constant
#fix  2  all  npt   temp  393.0  393.0  50 iso 0.0 0.0 1000.0
#fix  2  all deform 1 x final 0 15.6906 y final 0 13.5884 z final 0 25.2339 xy final -7.8452 units lattice
#fix  3  all  npt   temp  393.0  393.0  50 z 0.0 0.0 1000.0

#variable b equal 1
#fix 2 all efield  0.0  0.0  v_b
#compute pot all pe/atom


#----------- Output --------------------------
thermo	 500
timestep  0.001		#1.0 fs
thermo_style	custom step time temp ke pe etotal press pxx pyy pzz lx ly lz vol

dump 1 all custom 10000 dump.eq id type x y z
dump_modify 1 sort  id

run        1000000	#10000	 ps
Neighbor list info ...
  2 neighbor list requests
  update every 1 steps, delay 10 steps, check yes
  max neighbors/atom: 2000, page size: 100000
  master list distance cutoff = 8
  ghost atom cutoff = 8
  binsize = 4 -> bins = 6 4 8
Memory usage per processor = 7.54385 Mbytes
Step Time Temp KinEng PotEng TotEng Press Pxx Pyy Pzz Lx Ly Lz Volume 
      11            0          393    16.408154   -480.76048   -464.35233   -10551.575    13635.909    20279.938   -65570.572      15.2149      13.1765      28.7324    5760.2466 
     500        0.489    213.98306    8.9340127   -473.28178   -464.34777   -7012.5475    18972.348    22810.491   -62820.482      15.2149      13.1765      28.7324    5760.2466 
    1000        0.989    212.93178    8.8901203   -473.23849   -464.34837   -8450.9274    15481.555    25112.192    -65946.53      15.2149      13.1765      28.7324    5760.2466 
    1500        1.489    199.84492    8.3437307     -472.691   -464.34727   -7734.1382    16101.809    26574.817    -65879.04      15.2149      13.1765      28.7324    5760.2466 
    2000        1.989     205.4704    8.5786003   -472.92529   -464.34668   -7220.9347     19018.85    26140.395   -66822.049      15.2149      13.1765      28.7324    5760.2466 
    2500        2.489    208.32278    8.6976899   -473.04397   -464.34628    -7953.822    17171.618    22006.369   -63039.453      15.2149      13.1765      28.7324    5760.2466 
    3000        2.989    197.77519    8.2573174   -472.60148   -464.34417   -7843.6344    15771.818    24783.526   -64086.247      15.2149      13.1765      28.7324    5760.2466 
    3500        3.489    211.00862    8.8098268   -473.15316   -464.34334   -7753.9935    16821.374    25874.614   -65957.969      15.2149      13.1765      28.7324    5760.2466 
    4000        3.989    215.29451    8.9887671   -473.33069   -464.34192   -7919.9222    19657.214    23680.062   -67097.043      15.2149      13.1765      28.7324    5760.2466 
    4500        4.489    210.87877    8.8044054    -473.1451    -464.3407   -6685.6089    20003.732    26517.393   -66577.952      15.2149      13.1765      28.7324    5760.2466 
    5000        4.989    216.66935    9.0461677   -473.38458   -464.33841   -8280.2235    18143.363    25265.646   -68249.679      15.2149      13.1765      28.7324    5760.2466 
    5500        5.489     222.5592     9.292075   -473.62836   -464.33629   -8852.0315    15832.019    23703.681   -66091.795      15.2149      13.1765      28.7324    5760.2466 
    6000        5.989    199.23157    8.3181228   -472.65201   -464.33388   -8197.6752    19503.026    23452.475   -67548.526      15.2149      13.1765      28.7324    5760.2466 
    6500        6.489    215.81938    9.0106806   -473.34215   -464.33147   -8132.6539     16708.72    25110.275   -66216.956      15.2149      13.1765      28.7324    5760.2466 
    7000        6.989    212.33309    8.8651245   -473.19393    -464.3288   -7726.3306     17173.51    24974.859   -65327.361      15.2149      13.1765      28.7324    5760.2466 
    7500        7.489    207.36535    8.6577161   -472.98304   -464.32532   -7052.9813    18721.717    25374.988   -65255.648      15.2149      13.1765      28.7324    5760.2466 
    8000        7.989    210.53658    8.7901186   -473.11305   -464.32293   -8658.9365    19755.186    23345.921   -69077.916      15.2149      13.1765      28.7324    5760.2466 
    8500        8.489    213.93379    8.9319554   -473.25141   -464.31946   -8389.8942    17857.987    24215.374   -67243.044      15.2149      13.1765      28.7324    5760.2466 
    9000        8.989     203.7024    8.5047842   -472.82031   -464.31553   -7715.7186    19053.105    22780.089   -64980.349      15.2149      13.1765      28.7324    5760.2466 
    9500        9.489    204.44251    8.5356848   -472.84746   -464.31178   -7986.4601    18768.077    23456.001   -66183.459      15.2149      13.1765      28.7324    5760.2466 
   10000        9.989    202.88345    8.4705923   -472.77835   -464.30775   -8327.8834    17743.455    24149.599   -66876.704      15.2149      13.1765      28.7324    5760.2466 
   10500       10.489    205.06193    8.5615462    -472.8648   -464.30325   -7141.7978    17031.763    23663.205   -62120.361      15.2149      13.1765      28.7324    5760.2466 
   11000       10.989    211.78669    8.8423117   -473.14127   -464.29896   -8475.6689    16159.019    23561.235   -65147.261      15.2149      13.1765      28.7324    5760.2466 
   11500       11.489    203.78457    8.5082152   -472.80232    -464.2941   -8017.3607    17463.506    23952.886   -65468.475      15.2149      13.1765      28.7324    5760.2466 
   12000       11.989    200.14472    8.3562477   -472.64553   -464.28928   -8053.2158     17583.15    21619.418   -63362.215      15.2149      13.1765      28.7324    5760.2466 
   12500       12.489    201.04967    8.3940302   -472.67868   -464.28465   -8514.7781    15516.409     25646.83   -66707.573      15.2149      13.1765      28.7324    5760.2466 
   13000       12.989    217.72556    9.0902656   -473.36962   -464.27936   -8612.6279    14039.109    25932.512   -65809.505      15.2149      13.1765      28.7324    5760.2466 
   13500       13.489    209.38093    8.7418688   -473.01595   -464.27408   -8365.3463    17296.908    24238.924   -66631.871      15.2149      13.1765      28.7324    5760.2466 
   14000       13.989    200.71891    8.3802207   -472.64893   -464.26871   -8510.6733    18249.841    21597.395   -65379.255      15.2149      13.1765      28.7324    5760.2466 
   14500       14.489    209.62652    8.7521224   -473.01465   -464.26253   -9374.4885    16639.098    21129.043   -65891.606      15.2149      13.1765      28.7324    5760.2466 
   15000       14.989    208.22402    8.6935668   -472.94965   -464.25608   -8253.4453    17290.008    27450.788   -69501.132      15.2149      13.1765      28.7324    5760.2466 
   15500       15.489    215.31622    8.9896735   -473.24016   -464.25049   -8351.3927    16966.191    24627.889   -66648.259      15.2149      13.1765      28.7324    5760.2466 
   16000       15.989    214.43434    8.9528541    -473.1967   -464.24384   -8792.1987    15280.583    25182.528   -66839.707      15.2149      13.1765      28.7324    5760.2466 
   16500       16.489    205.05232    8.5611449   -472.79824    -464.2371   -7655.1637    18346.086    23907.112   -65218.689      15.2149      13.1765      28.7324    5760.2466 
   17000       16.989     210.2142    8.7766589   -473.00676    -464.2301   -8965.0148    15949.733    23591.835   -66436.612      15.2149      13.1765      28.7324    5760.2466 
   17500       17.489    207.89645    8.6798902   -472.90301   -464.22312   -7933.2369    15909.319    23538.352   -63247.381      15.2149      13.1765      28.7324    5760.2466 
   18000       17.989    210.45324     8.786639   -473.00326   -464.21662   -7336.9836    19852.553    25992.071   -67855.575      15.2149      13.1765      28.7324    5760.2466 
   18500       18.489    202.20054    8.4420801   -472.65087   -464.20879   -7844.2307    18699.775    25694.436   -67926.903      15.2149      13.1765      28.7324    5760.2466 
   19000       18.989    219.03532    9.1449495   -473.34675    -464.2018   -8313.9662    18034.424    23768.461   -66744.783      15.2149      13.1765      28.7324    5760.2466 
   19500       19.489    214.61592     8.960435   -473.15392   -464.19348   -7674.6175    18266.962    23126.973   -64417.788      15.2149      13.1765      28.7324    5760.2466 
   20000       19.989    214.18109    8.9422806    -473.1277   -464.18542    -7918.311    19007.599    26791.743   -69554.275      15.2149      13.1765      28.7324    5760.2466 
   20500       20.489     216.2769    9.0297826   -473.20715   -464.17737   -8079.9439    17484.661    25135.173   -66859.665      15.2149      13.1765      28.7324    5760.2466 
   21000       20.989    214.59843     8.959705     -473.129    -464.1693   -8053.0104     15737.38    23440.865   -63337.277      15.2149      13.1765      28.7324    5760.2466 
   21500       21.489    212.03154    8.8525344   -473.01285   -464.16031   -8303.3703    17795.188    27424.676   -70129.974      15.2149      13.1765      28.7324    5760.2466 
   22000       21.989    210.57795    8.7918457   -472.94306   -464.15121   -8361.8432    17892.857    24261.585   -67239.971      15.2149      13.1765      28.7324    5760.2466 
   22500       22.489    211.10971    8.8140473    -472.9567   -464.14266   -7515.2216    19406.665    24476.899   -66429.229      15.2149      13.1765      28.7324    5760.2466 
   23000       22.989    213.03233    8.8943186   -473.02784   -464.13353   -7757.2169     17884.34    25832.575   -66988.565      15.2149      13.1765      28.7324    5760.2466 
   23500       23.489    205.37874    8.5747733   -472.69898    -464.1242   -7791.2636    18210.622     24165.08   -65749.492      15.2149      13.1765      28.7324    5760.2466 
   24000       23.989    212.34521    8.8656306   -472.98006   -464.11443   -7851.0785     18669.46    25213.052   -67435.747      15.2149      13.1765      28.7324    5760.2466 
   24500       24.489    218.10468    9.1060945   -473.21095   -464.10485   -8149.0274    15724.501    23285.443   -63457.026      15.2149      13.1765      28.7324    5760.2466 
   25000       24.989    204.32455    8.5307597   -472.62534   -464.09458   -8048.6101    17910.397    26669.936   -68726.164      15.2149      13.1765      28.7324    5760.2466 
   25500       25.489    209.70168    8.7552606   -472.83975   -464.08449     -7005.08    16622.109    25223.782   -62861.132      15.2149      13.1765      28.7324    5760.2466 
   26000       25.989    200.20304    8.3586827   -472.43315   -464.07447   -8421.9276    18103.277    26295.437   -69664.497      15.2149      13.1765      28.7324    5760.2466 
   26500       26.489    210.43524    8.7858873   -472.84981   -464.06392    -8428.914    17109.144    24565.715   -66961.601      15.2149      13.1765      28.7324    5760.2466 
   27000       26.989    206.13921    8.6065235   -472.66022    -464.0537   -7560.0353    18727.038    25828.679   -67235.822      15.2149      13.1765      28.7324    5760.2466 
   27500       27.489     207.0298    8.6437066   -472.68682   -464.04311   -7711.3563    16551.541    24168.949   -63854.559      15.2149      13.1765      28.7324    5760.2466 
   28000       27.989     208.8773    8.7208419   -472.75299   -464.03215   -8311.8238    16711.461    25510.919   -67157.852      15.2149      13.1765      28.7324    5760.2466 
   28500       28.489    225.77782    9.4264559   -473.44817   -464.02172   -8106.0023    16326.116    24597.243   -65241.366      15.2149      13.1765      28.7324    5760.2466 
   29000       28.989    204.55279    8.5402892   -472.55044   -464.01015   -6823.8992    19842.281    25717.044   -66031.023      15.2149      13.1765      28.7324    5760.2466 
   29500       29.489    201.78823    8.4248656   -472.42329   -463.99843   -7758.0738    17784.379    23141.559    -64200.16      15.2149      13.1765      28.7324    5760.2466 
   30000       29.989    205.66464      8.58671   -472.57423   -463.98752   -8757.4643    15952.613    24149.842   -66374.848      15.2149      13.1765      28.7324    5760.2466 
   30500       30.489    222.04435    9.2705797   -473.24663   -463.97605   -7969.5436    16932.676    27174.165   -68015.472      15.2149      13.1765      28.7324    5760.2466 
   31000       30.989    213.20612    8.9015743   -472.86574   -463.96416   -8140.3808    18102.991    26363.221   -68887.354      15.2149      13.1765      28.7324    5760.2466 
   31500       31.489    215.07257    8.9795005    -472.9318    -463.9523   -7887.2508    16165.608    28139.418   -67966.779      15.2149      13.1765      28.7324    5760.2466 
   32000       31.989    213.14556    8.8990461   -472.83969   -463.94064   -7248.9453    17805.332     27502.08   -67054.249      15.2149      13.1765      28.7324    5760.2466 
   32500       32.489    220.11956    9.1902177   -473.11929   -463.92907   -7195.5298    16883.085    25754.086    -64223.76      15.2149      13.1765      28.7324    5760.2466 
   33000       32.989    229.15061    9.5672733   -473.48379   -463.91652   -8634.0643    15529.443    26423.662   -67855.298      15.2149      13.1765      28.7324    5760.2466 
   33500       33.489    207.22127    8.6517009   -472.55588   -463.90418   -8125.6738    18398.698    23000.336   -65776.056      15.2149      13.1765      28.7324    5760.2466 
   34000       33.989    213.73733    8.9237529   -472.81569   -463.89193   -7262.1693    17452.772     23216.12     -62455.4      15.2149      13.1765      28.7324    5760.2466 
   34500       34.489    210.04484    8.7695877   -472.64913   -463.87954   -8248.0009    15001.283     24653.92   -64399.206      15.2149      13.1765      28.7324    5760.2466 
   35000       34.989    218.70977    9.1313576   -472.99933   -463.86798    -8065.526    14722.976    25183.196    -64102.75      15.2149      13.1765      28.7324    5760.2466 
   35500       35.489    219.47041     9.163115   -473.01788   -463.85477   -9216.3471    16229.125    23655.675   -67533.841      15.2149      13.1765      28.7324    5760.2466 
   36000       35.989    209.09098    8.7297631   -472.57192   -463.84216    -8264.707    16763.998    23936.079   -65494.198      15.2149      13.1765      28.7324    5760.2466 
   36500       36.489    203.51273    8.4968655   -472.32653   -463.82966   -7844.3604    17318.452    25378.143   -66229.676      15.2149      13.1765      28.7324    5760.2466 
   37000       36.989    209.42426    8.7436777   -472.56095   -463.81728    -7538.542    17291.643    26434.053   -66341.322      15.2149      13.1765      28.7324    5760.2466 
   37500       37.489    219.68895    9.1722391   -472.97714    -463.8049    -7837.024    16262.427    23546.959   -63320.458      15.2149      13.1765      28.7324    5760.2466 
   38000       37.989    216.48259    9.0383704   -472.83064   -463.79227   -8415.1396    17662.952    25644.353   -68552.724      15.2149      13.1765      28.7324    5760.2466 
   38500       38.489    220.80581    9.2188693   -472.99835   -463.77948   -8137.8059    18041.335    23729.142   -66183.895      15.2149      13.1765      28.7324    5760.2466 
   39000       38.989    207.08305      8.64593   -472.41276   -463.76683    -7418.394    16253.091     25532.63   -64040.903      15.2149      13.1765      28.7324    5760.2466 
   39500       39.489    212.90259    8.8889017    -472.6429     -463.754   -6730.9649    18389.018    22242.257   -60824.169      15.2149      13.1765      28.7324    5760.2466 
   40000       39.989    206.37462    8.6163523   -472.35748   -463.74113   -8384.7155    18300.136    21859.387   -65313.669      15.2149      13.1765      28.7324    5760.2466 
   40500       40.489    204.73545    8.5479154   -472.27632    -463.7284   -7126.1516    19642.942    27760.466   -68781.862      15.2149      13.1765      28.7324    5760.2466 
   41000       40.989    216.71527    9.0480849     -472.764   -463.71592   -8489.5424    16077.074    27196.001   -68741.702      15.2149      13.1765      28.7324    5760.2466 
   41500       41.489    221.40848    9.2440315   -472.94782   -463.70378   -7598.2853    15213.268    28192.969   -66201.093      15.2149      13.1765      28.7324    5760.2466 
   42000       41.989    217.03135    9.0612815   -472.75164   -463.69036   -8539.5129    18085.295    23753.875   -67457.709      15.2149      13.1765      28.7324    5760.2466 
   42500       42.489    206.02398    8.6017128   -472.27957   -463.67786   -7641.2762     19423.54    25554.728   -67902.097      15.2149      13.1765      28.7324    5760.2466 
   43000       42.989    212.08034    8.8545721   -472.51955   -463.66498   -9102.6316    16018.852    22972.937   -66299.685      15.2149      13.1765      28.7324    5760.2466 
   43500       43.489    218.56905    9.1254822    -472.7778   -463.65231   -7323.1211    15702.707    25236.837   -62908.908      15.2149      13.1765      28.7324    5760.2466 
   44000       43.989    211.52133    8.8312326   -472.47172   -463.64049   -7849.3806     16532.81    26014.626   -66095.578      15.2149      13.1765      28.7324    5760.2466 
   44500       44.489    201.59186    8.4166673   -472.04452   -463.62785    -8368.075    21452.432    22909.441   -69466.098      15.2149      13.1765      28.7324    5760.2466 
   45000       44.989    206.50548    8.6218156   -472.23723   -463.61542   -7667.0075    17279.537     23479.54     -63760.1      15.2149      13.1765      28.7324    5760.2466 
   45500       45.489    226.41072      9.45288   -473.05611   -463.60323   -6952.1776    20130.782    23811.955    -64799.27      15.2149      13.1765      28.7324    5760.2466 
   46000       45.989    216.34015    9.0324234   -472.62315   -463.59073   -8948.4629    15115.507    23337.241   -65298.136      15.2149      13.1765      28.7324    5760.2466 
   46500       46.489    222.75846    9.3003943   -472.87868   -463.57829   -8613.5818    14850.688    25066.715   -65758.148      15.2149      13.1765      28.7324    5760.2466 
   47000       46.989    223.33619    9.3245154   -472.89083   -463.56631     -8009.99    17747.598     23126.82   -64904.387      15.2149      13.1765      28.7324    5760.2466 
   47500       47.489    217.66936    9.0879194   -472.64224   -463.55432   -8192.7554    17045.246    24186.263   -65809.775      15.2149      13.1765      28.7324    5760.2466 
   48000       47.989    220.67945    9.2135936    -472.7556     -463.542   -8798.1046    16421.825     24248.02   -67064.158      15.2149      13.1765      28.7324    5760.2466 
   48500       48.489    226.01268    9.4362616   -472.96617   -463.52991    -7402.033    19733.705    23672.049   -65611.853      15.2149      13.1765      28.7324    5760.2466 
   49000       48.989    212.12787    8.8565565   -472.37354   -463.51698   -7024.7492    19439.529    25557.172   -66070.949      15.2149      13.1765      28.7324    5760.2466 
   49500       49.489    214.88219    8.9715523   -472.47672   -463.50517   -8045.3798    15789.282    26842.631   -66768.052      15.2149      13.1765      28.7324    5760.2466 
   50000       49.989    222.03998    9.2703973   -472.76392   -463.49352    -6824.545    18983.761    24878.404     -64335.8      15.2149      13.1765      28.7324    5760.2466 
   50500       50.489    220.08537    9.1887901   -472.67003   -463.48124   -7795.2377    18438.554    22107.884   -63932.151      15.2149      13.1765      28.7324    5760.2466 
   51000       50.989    211.31701     8.822702   -472.29201    -463.4693   -7747.5221    16646.936    25961.044   -65850.547      15.2149      13.1765      28.7324    5760.2466 
   51500       51.489    219.89031    9.1806464   -472.63837   -463.45772   -7288.9486    19684.843    21343.089   -62894.778      15.2149      13.1765      28.7324    5760.2466 
   52000       51.989    214.13616    8.9404047   -472.38638   -463.44598   -8053.6428    17918.891    27902.939   -69982.759      15.2149      13.1765      28.7324    5760.2466 
   52500       52.489    210.16965    8.7747988   -472.20862   -463.43382   -8064.3855      17661.4    25871.269   -67725.825      15.2149      13.1765      28.7324    5760.2466 
   53000       52.989    221.51212    9.2483583   -472.67122   -463.42286   -6521.4248     19276.13    26807.565   -65647.969      15.2149      13.1765      28.7324    5760.2466 
   53500       53.489    228.92299    9.5577701   -472.96915   -463.41138   -8628.4557    17828.811     22715.17   -66429.348      15.2149      13.1765      28.7324    5760.2466 
   54000       53.989    217.52121    9.0817341   -472.48083   -463.39909   -8265.8111    17687.049    23992.186   -66476.669      15.2149      13.1765      28.7324    5760.2466 
   54500       54.489    215.02747    8.9776175   -472.36552   -463.38791   -7438.4128    16152.752    26830.992   -65298.983      15.2149      13.1765      28.7324    5760.2466 
   55000       54.989    216.20308    9.0267006   -472.40329   -463.37659   -7889.9958    18598.825    23942.175   -66210.987      15.2149      13.1765      28.7324    5760.2466 
   55500       55.489    211.17578    8.8168055   -472.18221   -463.36541   -7309.4413    17604.037    25835.016   -65367.377      15.2149      13.1765      28.7324    5760.2466 
   56000       55.989    209.90154    8.7636047   -472.11821    -463.3546   -8729.8609    16047.788    26234.489    -68471.86      15.2149      13.1765      28.7324    5760.2466 
   56500       56.489    221.66375    9.2546894   -472.59784   -463.34315   -7604.7012    17764.928    27165.833   -67744.865      15.2149      13.1765      28.7324    5760.2466 
   57000       56.989    221.39851    9.2436149    -472.5754   -463.33178   -8089.9046     17334.16     24959.55   -66563.423      15.2149      13.1765      28.7324    5760.2466 
   57500       57.489     217.2338    9.0697343   -472.39045   -463.32072   -7629.2882    16758.516    24817.427   -64463.807      15.2149      13.1765      28.7324    5760.2466 
   58000       57.989    202.98807    8.4749603   -471.78444   -463.30948   -7465.3299    17515.279    24413.773   -64325.041      15.2149      13.1765      28.7324    5760.2466 
   58500       58.489    224.63056    9.3785567   -472.67735   -463.29879   -6852.2093     19060.66      26139.7   -65756.987      15.2149      13.1765      28.7324    5760.2466 
   59000       58.989     222.7342    9.2993816   -472.58687   -463.28749   -7451.5227    14923.739    28073.882   -65352.189      15.2149      13.1765      28.7324    5760.2466 
   59500       59.489    209.59766    8.7509173   -472.02795   -463.27704    -7606.719    16836.052     29232.03   -68888.239      15.2149      13.1765      28.7324    5760.2466 
   60000       59.989    210.68459    8.7962981   -472.06222   -463.26592   -7550.1749    19733.478    24589.876   -66973.879      15.2149      13.1765      28.7324    5760.2466 
   60500       60.489    211.12632    8.8147407   -472.07031   -463.25557   -8464.9585    19416.129    23294.317   -68105.321      15.2149      13.1765      28.7324    5760.2466 
   61000       60.989    219.54699    9.1663121   -472.41105   -463.24473   -8006.9593    16946.327    24667.651   -65634.856      15.2149      13.1765      28.7324    5760.2466 
   61500       61.489    201.65321    8.4192285   -471.65247   -463.23325   -7767.2503    15743.559    29317.218   -68362.528      15.2149      13.1765      28.7324    5760.2466 
   62000       61.989    223.00223    9.3105722    -472.5345   -463.22393   -7871.7712    19756.814    22876.127   -66248.254      15.2149      13.1765      28.7324    5760.2466 
   62500       62.489    219.65641    9.1708807    -472.3838   -463.21292   -8533.6546     15599.21    27341.462   -68541.636      15.2149      13.1765      28.7324    5760.2466 
   63000       62.989    216.78565    9.0510234   -472.25323   -463.20221    -7890.884    16296.306    23486.964   -63455.922      15.2149      13.1765      28.7324    5760.2466 
   63500       63.489    224.08054    9.3555928   -472.54758   -463.19198   -7406.7884    18139.545    28370.507   -68730.417      15.2149      13.1765      28.7324    5760.2466 
   64000       63.989    212.44247    8.8696914   -472.05109    -463.1814    -8525.201    16746.709    22327.829   -64650.141      15.2149      13.1765      28.7324    5760.2466 
   64500       64.489    231.01177    9.6449786   -472.81611   -463.17113   -7979.5636     17676.69     21537.66   -63153.041      15.2149      13.1765      28.7324    5760.2466 
   65000       64.989    224.94116    9.3915244   -472.55219   -463.16066   -7947.3671    15574.646    24162.049   -63578.797      15.2149      13.1765      28.7324    5760.2466 
   65500       65.489    232.65397    9.7135422   -472.86427   -463.15072   -8229.6699    17255.698    25772.209   -67716.916      15.2149      13.1765      28.7324    5760.2466 
   66000       65.989    215.07457     8.979584   -472.11877   -463.13919   -7128.2923    18798.382    26689.377   -66872.636      15.2149      13.1765      28.7324    5760.2466 
   66500       66.489      207.311    8.6554471   -471.78411   -463.12866   -7538.3483    18130.575    25708.145   -66453.765      15.2149      13.1765      28.7324    5760.2466 
   67000       66.989    229.20089    9.5693724   -472.68851   -463.11913   -6311.2836    16984.731    27841.728    -63760.31      15.2149      13.1765      28.7324    5760.2466 
   67500       67.489    234.81497    9.8037662   -472.91189   -463.10813   -8564.0389     19348.21    23771.339   -68811.666      15.2149      13.1765      28.7324    5760.2466 
   68000       67.989    213.82701    8.9274973    -472.0251   -463.09761   -7233.1762    19498.546     23452.26   -64650.334      15.2149      13.1765      28.7324    5760.2466 
   68500       68.489    220.91144    9.2232797   -472.31064   -463.08736   -7920.5313    17167.972    26940.878   -67870.444      15.2149      13.1765      28.7324    5760.2466 
   69000       68.989    224.06703    9.3550284   -472.43175   -463.07672    -7663.471    16727.371    25229.768   -64947.553      15.2149      13.1765      28.7324    5760.2466 
   69500       69.489    231.03039    9.6457561   -472.71185   -463.06609   -6833.5447    18218.851    26623.785    -65343.27      15.2149      13.1765      28.7324    5760.2466 
   70000       69.989    219.03872    9.1450914   -472.20063   -463.05554   -8001.4397    17376.536     25051.47   -66432.325      15.2149      13.1765      28.7324    5760.2466 
   70500       70.489    219.55883    9.1668066   -472.21216   -463.04536   -7992.0958    16460.223    23359.625   -63796.135      15.2149      13.1765      28.7324    5760.2466 
   71000       70.989    222.68474    9.2973166    -472.3323   -463.03499   -8130.8206    15880.487    25443.182   -65716.131      15.2149      13.1765      28.7324    5760.2466 
   71500       71.489    227.51861    9.4991355    -472.5234   -463.02426   -7402.9525    18264.043     26063.54    -66536.44      15.2149      13.1765      28.7324    5760.2466 
   72000       71.989    222.19401    9.2768279   -472.29052    -463.0137   -7463.4787    17408.258    24726.178   -64524.873      15.2149      13.1765      28.7324    5760.2466 
   72500       72.489     230.5256    9.6246803   -472.62788    -463.0032   -8288.8936    18708.246    24892.003   -68466.929      15.2149      13.1765      28.7324    5760.2466 
   73000       72.989    206.93478    8.6397395   -471.63274     -462.993    -7235.056    18933.477    20471.345    -61109.99      15.2149      13.1765      28.7324    5760.2466 
   73500       73.489    224.13887    9.3580279   -472.34023    -462.9822   -7170.0532     15711.66    24846.218   -62068.037      15.2149      13.1765      28.7324    5760.2466 
   74000       73.989    218.96644    9.1420737   -472.11342   -462.97134   -6918.6468    16335.368     28137.37   -65228.679      15.2149      13.1765      28.7324    5760.2466 
   74500       74.489    218.74446     9.132806   -472.09382   -462.96101   -7452.4502    15732.569    26489.951   -64579.871      15.2149      13.1765      28.7324    5760.2466 
   75000       74.989    228.32692    9.5328834    -472.4827   -462.94982   -7239.7793    17523.759    24997.482   -64240.579      15.2149      13.1765      28.7324    5760.2466 
   75500       75.489    218.75637    9.1333029   -472.07251   -462.93921   -7508.7433    18971.284    25768.395   -67265.909      15.2149      13.1765      28.7324    5760.2466 
   76000       75.989    220.16482    9.1921075   -472.12112   -462.92901   -7138.7538    18710.413    25995.208   -66121.883      15.2149      13.1765      28.7324    5760.2466 
   76500       76.489    224.15217    9.3585832   -472.27612   -462.91753   -8328.8655    14593.042    27336.385   -66916.023      15.2149      13.1765      28.7324    5760.2466 
   77000       76.989    222.83642    9.3036494   -472.21037   -462.90672   -8049.7518    16914.478    26817.778   -67881.512      15.2149      13.1765      28.7324    5760.2466 
   77500       77.489    233.60578    9.7532811   -472.64958    -462.8963   -7633.2082    18466.566    23536.038   -64902.229      15.2149      13.1765      28.7324    5760.2466 
   78000       77.989    219.83053    9.1781502   -472.06313   -462.88498   -7088.7105    18818.645    25823.723     -65908.5      15.2149      13.1765      28.7324    5760.2466 
   78500       78.489    223.70742    9.3400145   -472.21401   -462.87399   -7092.3947    18751.391    27135.249   -67163.825      15.2149      13.1765      28.7324    5760.2466 
   79000       78.989    225.12311    9.3991212   -472.26264   -462.86352   -8529.4558    14881.548    23837.059   -64306.974      15.2149      13.1765      28.7324    5760.2466 
   79500       79.489     219.0919    9.1473116   -471.99921    -462.8519   -8510.2376    18535.535    24144.731   -68210.979      15.2149      13.1765      28.7324    5760.2466 
   80000       79.989    217.62843    9.0862104   -471.92731    -462.8411   -7310.5326    17395.177    27150.296   -66477.071      15.2149      13.1765      28.7324    5760.2466 
   80500       80.489    220.56246    9.2087091   -472.03887   -462.83016   -8176.2969    18449.459    23628.601   -66606.951      15.2149      13.1765      28.7324    5760.2466 
   81000       80.989    221.02616    9.2280692    -472.0468   -462.81873   -8212.8335    19163.603    25615.084   -69417.188      15.2149      13.1765      28.7324    5760.2466 
   81500       81.489     223.9953    9.3520337   -472.15995   -462.80792    -7950.423    19690.909    24356.647   -67898.825      15.2149      13.1765      28.7324    5760.2466 
   82000       81.989    229.41013    9.5781085   -472.37484   -462.79673    -6562.172    20525.363    23392.333   -63604.212      15.2149      13.1765      28.7324    5760.2466 
   82500       82.489    240.15523    10.026727   -472.81205   -462.78533   -7500.5801    14913.613    24916.843   -62332.197      15.2149      13.1765      28.7324    5760.2466 
   83000       82.989    218.27551    9.1132267   -471.88628   -462.77306   -6545.4006    21177.318    23447.726   -64261.245      15.2149      13.1765      28.7324    5760.2466 
   83500       83.489    230.45194     9.621605   -472.38366   -462.76206   -8242.8624    17214.973     26608.11   -68551.671      15.2149      13.1765      28.7324    5760.2466 
   84000       83.989    243.35728    10.160416   -472.91115   -462.75073   -7420.6653    17859.796    26387.056   -66508.848      15.2149      13.1765      28.7324    5760.2466 
   84500       84.489    227.67381    9.5056153   -472.24457   -462.73896   -7349.6979    18817.038    23347.819    -64213.95      15.2149      13.1765      28.7324    5760.2466 
   85000       84.989    230.22665     9.612199   -472.33929   -462.72709   -8008.4137    17442.256    24702.016   -66169.513      15.2149      13.1765      28.7324    5760.2466 
   85500       85.489    224.76055    9.3839837   -472.09989   -462.71591   -8533.3385    16256.692    24703.701   -66560.409      15.2149      13.1765      28.7324    5760.2466 
   86000       85.989    220.70166    9.2145211   -471.91814   -462.70362   -8200.0529    16044.269    28676.263   -69320.691      15.2149      13.1765      28.7324    5760.2466 
   86500       86.489    230.79914    9.6361012   -472.32879   -462.69269   -7691.4525    16096.695    24728.918    -63899.97      15.2149      13.1765      28.7324    5760.2466 
   87000       86.989    225.86164    9.4299552   -472.11013   -462.68017   -6741.8383     18825.07    23253.829   -62304.414      15.2149      13.1765      28.7324    5760.2466 
   87500       87.489    226.49487    9.4563936   -472.12474   -462.66834   -7193.4286    18851.859    25977.805    -66409.95      15.2149      13.1765      28.7324    5760.2466 
   88000       87.989    232.57011    9.7100408   -472.36603   -462.65599   -8027.5586    20554.226    22894.492   -67531.394      15.2149      13.1765      28.7324    5760.2466 
   88500       88.489     221.9054    9.2647783   -471.90937    -462.6446   -7705.0466    18155.857    23517.319   -64788.316      15.2149      13.1765      28.7324    5760.2466 
   89000       88.989    226.80883    9.4695017   -472.10211   -462.63261   -7922.1379    17641.112    26533.697   -67941.222      15.2149      13.1765      28.7324    5760.2466 
   89500       89.489    224.40782    9.3692568    -471.9897   -462.62044   -7318.0552    18471.683    24060.006   -64485.855      15.2149      13.1765      28.7324    5760.2466 
   90000       89.989     230.5383    9.6252107   -472.23357   -462.60836   -7374.0474    17953.267    24963.589   -65038.998      15.2149      13.1765      28.7324    5760.2466 
   90500       90.489    245.07371    10.232079   -472.82805   -462.59597   -7820.2227    20254.881    24465.457   -68181.007      15.2149      13.1765      28.7324    5760.2466 
   91000       90.989    228.81432    9.5532326   -472.13696   -462.58373    -6732.822    19145.055    26480.422   -65823.943      15.2149      13.1765      28.7324    5760.2466 
   91500       91.489    217.00656    9.0602469    -471.6315   -462.57126   -8227.9718    17021.956    25162.137   -66868.008      15.2149      13.1765      28.7324    5760.2466 
   92000       91.989    226.56349    9.4592585   -472.01787   -462.55861   -6908.6623     19046.46    24568.962   -64341.409      15.2149      13.1765      28.7324    5760.2466 
   92500       92.489    223.71321    9.3402561   -471.88639   -462.54613   -7880.3595    16346.799    24581.118   -64568.996      15.2149      13.1765      28.7324    5760.2466 
   93000       92.989    216.27255    9.0296011   -471.56347   -462.53387   -7086.2312    18763.878    24619.655   -64642.227      15.2149      13.1765      28.7324    5760.2466 
   93500       93.489    244.18398    10.194932   -472.71671   -462.52178   -7537.7888    18608.355      25544.3   -66766.021      15.2149      13.1765      28.7324    5760.2466 
   94000       93.989     227.5289    9.4995654   -472.00791   -462.50834   -8481.1643    16922.275    27362.046   -69727.814      15.2149      13.1765      28.7324    5760.2466 
   94500       94.489    234.17586    9.7770827   -472.27195   -462.49486   -7504.5835    17256.902    26909.943   -66680.596      15.2149      13.1765      28.7324    5760.2466 
   95000       94.989    233.26315    9.7389762   -472.22114   -462.48216    -7195.586    19834.698    22642.086   -64063.542      15.2149      13.1765      28.7324    5760.2466 
   95500       95.489    228.27578     9.530748    -472.0004   -462.46965   -6800.6664    19784.403    27554.482   -67740.884      15.2149      13.1765      28.7324    5760.2466 
   96000       95.989    227.01441    9.4780846   -471.93495   -462.45687   -6513.4895    20438.426    24740.591   -64719.486      15.2149      13.1765      28.7324    5760.2466 
   96500       96.489    224.19919    9.3605465   -471.80394   -462.44339   -7256.1204    16714.213    26019.318   -64501.892      15.2149      13.1765      28.7324    5760.2466 
   97000       96.989    226.91068    9.4737538   -471.90425    -462.4305   -7883.7842    20511.519    23574.668   -67737.539      15.2149      13.1765      28.7324    5760.2466 
   97500       97.489    230.02449    9.6037585    -472.0209   -462.41714   -7541.6963    18249.211    25278.361   -66152.661      15.2149      13.1765      28.7324    5760.2466 
   98000       97.989    232.08695    9.6898684   -472.09388   -462.40402   -7761.9004     18115.79      26313.8   -67715.291      15.2149      13.1765      28.7324    5760.2466 
   98500       98.489     227.4228    9.4951355   -471.88611   -462.39098   -7632.5794    18460.188    25368.512   -66726.438      15.2149      13.1765      28.7324    5760.2466 
   99000       98.989     226.3854    9.4518229   -471.82934   -462.37752   -7873.8928    17559.064    24836.204   -66016.947      15.2149      13.1765      28.7324    5760.2466 
   99500       99.489    225.15983    9.4006542   -471.76461   -462.36396   -6617.7188    19279.664    25810.613   -64943.434      15.2149      13.1765      28.7324    5760.2466 
  100000       99.989    232.19241    9.6942714    -472.0448   -462.35053   -7254.3187    18205.414    24001.533   -63969.903      15.2149      13.1765      28.7324    5760.2466 
  100500      100.489    242.67004    10.131723   -472.46898   -462.33725   -7335.1027      18259.4     24452.49   -64717.198      15.2149      13.1765      28.7324    5760.2466 
  101000      100.989    238.42942    9.9546732   -472.27921   -462.32454   -8460.0553    18788.079    22761.966   -66930.211      15.2149      13.1765      28.7324    5760.2466 
  101500      101.489    243.72101    10.175602   -472.48615   -462.31055   -6623.0712    15909.376    23332.124   -59110.714      15.2149      13.1765      28.7324    5760.2466 
  102000      101.989    230.40586    9.6196812   -471.91599   -462.29631   -6454.1353     19058.68    25425.605    -63846.69      15.2149      13.1765      28.7324    5760.2466 
  102500      102.489    231.54116    9.6670811   -471.95089   -462.28381   -7999.5328    15807.424     24533.31   -64339.332      15.2149      13.1765      28.7324    5760.2466 
  103000      102.989    232.97091    9.7267749   -471.99651   -462.26973   -6129.6115    16759.347    25800.942   -60949.123      15.2149      13.1765      28.7324    5760.2466 
  103500      103.489    234.32013    9.7831059   -472.03911   -462.25601   -7646.0705    17861.998    24861.326   -65661.536      15.2149      13.1765      28.7324    5760.2466 
  104000      103.989    237.75125    9.9263588   -472.16902   -462.24266   -6913.0525    18030.404    26860.994   -65630.555      15.2149      13.1765      28.7324    5760.2466 
  104500      104.489    241.87678    10.098604   -472.32718   -462.22857   -7295.2615    18185.566    24687.465   -64758.816      15.2149      13.1765      28.7324    5760.2466 
  105000      104.989    234.96968    9.8102253   -472.02494   -462.21471   -6720.1838    19291.265    25518.414    -64970.23      15.2149      13.1765      28.7324    5760.2466 
  105500      105.489    230.65121     9.629925   -471.83039   -462.20046   -6934.1201    16039.491     23312.34   -60154.191      15.2149      13.1765      28.7324    5760.2466 
  106000      105.989    229.09119    9.5647925   -471.75123   -462.18644   -6505.7382    20302.784    25159.599   -64979.598      15.2149      13.1765      28.7324    5760.2466 
  106500      106.489    243.95203    10.185248   -472.35848   -462.17323   -7534.2895    19210.517     25148.18   -66961.565      15.2149      13.1765      28.7324    5760.2466 
  107000      106.989    232.72862    9.7166587   -471.87546    -462.1588    -9005.554    14824.979    26479.438   -68321.079      15.2149      13.1765      28.7324    5760.2466 
  107500      107.489    242.37729    10.119501   -472.26417   -462.14466   -6881.2504    18944.358    22399.967   -61988.077      15.2149      13.1765      28.7324    5760.2466 
  108000      107.989    244.86819    10.223498   -472.35445   -462.13095   -7246.4486    17361.542     25632.39   -64733.278      15.2149      13.1765      28.7324    5760.2466 
  108500      108.489    245.42978    10.246945   -472.36298   -462.11603   -7126.6668    19082.551     23179.22   -63641.772      15.2149      13.1765      28.7324    5760.2466 
  109000      108.989    227.49231    9.4980377   -471.59971   -462.10168   -7688.2589    16009.987    26351.852   -65426.615      15.2149      13.1765      28.7324    5760.2466 
  109500      109.489     234.3251    9.7833137   -471.87059   -462.08727   -5917.6523    19618.817    26267.671   -63639.445      15.2149      13.1765      28.7324    5760.2466 
  110000      109.989    237.85672    9.9307622   -472.00377   -462.07301   -7622.2109    18166.873    25014.871   -66048.377      15.2149      13.1765      28.7324    5760.2466 
  110500      110.489     248.6073     10.37961   -472.43875   -462.05914   -7293.9183    19389.031    26701.357   -67972.142      15.2149      13.1765      28.7324    5760.2466 
  111000      110.989    238.56245    9.9602271   -472.00493    -462.0447    -7353.733    19301.835    26878.036    -68241.07      15.2149      13.1765      28.7324    5760.2466 
  111500      111.489    245.50249    10.249981   -472.28032   -462.03034    -7239.311    18179.139      23855.3   -63752.372      15.2149      13.1765      28.7324    5760.2466 
  112000      111.989    227.27074    9.4887868   -471.50417   -462.01539   -6141.8036    17970.713    28697.692   -65093.815      15.2149      13.1765      28.7324    5760.2466 
  112500      112.489    227.03427     9.478914   -471.47908   -462.00016   -6759.7425    17281.968     30244.23   -67805.425      15.2149      13.1765      28.7324    5760.2466 
  113000      112.989    239.03015    9.9797541   -471.96608   -461.98633   -7111.4536    18532.403    26814.625   -66681.389      15.2149      13.1765      28.7324    5760.2466 
  113500      113.489    231.61087    9.6699917   -471.64123   -461.97124   -6833.6998    17836.515    25911.509   -64249.123      15.2149      13.1765      28.7324    5760.2466 
  114000      113.989    251.05188    10.481674   -472.43933   -461.95766    -7500.497     18586.32    25473.026   -66560.837      15.2149      13.1765      28.7324    5760.2466 
  114500      114.489    232.02793    9.6874044   -471.62965   -461.94224   -6531.9284    17747.868     26251.97   -63595.624      15.2149      13.1765      28.7324    5760.2466 
  115000      114.989    241.53169    10.084196   -472.01178   -461.92758   -7121.2058    16344.631    23688.862    -61397.11      15.2149      13.1765      28.7324    5760.2466 
  115500      115.489    235.39205      9.82786   -471.74107   -461.91321   -7512.2624    19643.108    25553.854    -67733.75      15.2149      13.1765      28.7324    5760.2466 
  116000      115.989    229.85871    9.5968373   -471.49487   -461.89803   -6860.3481    18757.593    27387.424   -66726.062      15.2149      13.1765      28.7324    5760.2466 
  116500      116.489    240.38218    10.036203   -471.91961    -461.8834   -7614.1258     14950.12    27061.167   -64853.664      15.2149      13.1765      28.7324    5760.2466 
  117000      116.989    231.19963    9.6528219   -471.52046   -461.86764   -7449.9284    17449.024    26586.123   -66384.932      15.2149      13.1765      28.7324    5760.2466 
  117500      117.489    233.95966    9.7680562   -471.62151   -461.85345   -7035.4522    19055.657    24640.589   -64802.603      15.2149      13.1765      28.7324    5760.2466 
  118000      117.989    244.25674     10.19797   -472.03651   -461.83854   -7468.5121    16019.909    27551.482   -65976.927      15.2149      13.1765      28.7324    5760.2466 
  118500      118.489    231.29393    9.6567592   -471.47999   -461.82323   -8301.3037    18007.479    25886.788   -68798.178      15.2149      13.1765      28.7324    5760.2466 
  119000      118.989    239.08396    9.9820007   -471.79015   -461.80815   -6063.0349     18456.91    27535.409   -64181.423      15.2149      13.1765      28.7324    5760.2466 
  119500      119.489    254.62806    10.630983   -472.42516   -461.79418   -7606.2978    18260.129    26202.888    -67281.91      15.2149      13.1765      28.7324    5760.2466 
  120000      119.989    253.21438     10.57196   -472.35107   -461.77911   -7210.5111    18095.984    24996.568   -64724.085      15.2149      13.1765      28.7324    5760.2466 
  120500      120.489    250.01863    10.438534   -472.20282   -461.76428   -7080.8973    20012.255    25128.883    -66383.83      15.2149      13.1765      28.7324    5760.2466 
  121000      120.989    240.73364    10.050877   -471.79968   -461.74881    -6683.957    17825.836    23009.835   -60887.542      15.2149      13.1765      28.7324    5760.2466 
  121500      121.489    240.30236     10.03287   -471.76684   -461.73397   -7166.3795    19238.019    26375.266   -67112.424      15.2149      13.1765      28.7324    5760.2466 
  122000      121.989    239.68583     10.00713   -471.72553    -461.7184   -7013.2161     19157.64    25209.318   -65406.606      15.2149      13.1765      28.7324    5760.2466 
  122500      122.489    240.36849    10.035631   -471.73936   -461.70373   -7159.9974    16354.593    26384.936   -64219.521      15.2149      13.1765      28.7324    5760.2466 
  123000      122.989     238.0778    9.9399928   -471.62776   -461.68776   -7599.3918    16295.426    25692.565   -64786.167      15.2149      13.1765      28.7324    5760.2466 
  123500      123.489    226.48691     9.456061   -471.12943   -461.67337   -6919.2191    18383.351     25457.23   -64598.239      15.2149      13.1765      28.7324    5760.2466 
  124000      123.989    242.95324    10.143547   -471.80143   -461.65788   -7065.1037    16502.742     25675.68   -63373.733      15.2149      13.1765      28.7324    5760.2466 
  124500      124.489    247.11084    10.317131   -471.95956   -461.64242   -7007.7727    18965.502    24374.939   -64363.759      15.2149      13.1765      28.7324    5760.2466 
  125000      124.989     232.1364    9.6919331   -471.31954   -461.62761   -6983.7197    20693.273    24893.581   -66538.013      15.2149      13.1765      28.7324    5760.2466 
  125500      125.489    249.79091    10.429027    -472.0417   -461.61267   -7593.1927    19049.124    25454.469   -67283.171      15.2149      13.1765      28.7324    5760.2466 
  126000      125.989    242.99909    10.145462   -471.74227    -461.5968   -7407.9882    18598.446    24930.951   -65753.361      15.2149      13.1765      28.7324    5760.2466 
  126500      126.489    239.00847     9.978849   -471.55978   -461.58093   -6409.1672    20920.518     24358.56    -64506.58      15.2149      13.1765      28.7324    5760.2466 
  127000      126.989    242.21054    10.112539   -471.67882   -461.56628   -6629.7484    19054.272    22899.436   -61842.954      15.2149      13.1765      28.7324    5760.2466 
  127500      127.489     257.4075    10.747027   -472.29836   -461.55134   -7414.8777    15375.337    26803.273   -64423.243      15.2149      13.1765      28.7324    5760.2466 
  128000      127.989    228.00939    9.5196264    -471.0548   -461.53518   -6626.3438    18395.187     25506.23   -63780.449      15.2149      13.1765      28.7324    5760.2466 
  128500      128.489    249.47608    10.415883   -471.93608    -461.5202   -6171.3004    19749.937    25341.836   -63605.674      15.2149      13.1765      28.7324    5760.2466 
  129000      128.989    249.68913    10.424777   -471.92903   -461.50425   -7262.8905    18250.298    24495.918   -64534.888      15.2149      13.1765      28.7324    5760.2466 
  129500      129.489    231.61443    9.6701402   -471.15873   -461.48859   -7213.7295    16254.551    25314.809   -63210.549      15.2149      13.1765      28.7324    5760.2466 
  130000      129.989    251.09543    10.483492   -471.95701   -461.47351   -7242.5757    15264.876    26671.099   -63663.702      15.2149      13.1765      28.7324    5760.2466 
  130500      130.489    237.20611    9.9035985   -471.36124   -461.45764   -6791.1765    18880.162    25456.873   -64710.565      15.2149      13.1765      28.7324    5760.2466 
  131000      130.989     249.2039    10.404519   -471.84689   -461.44237   -7126.3476    17025.381    25523.701   -63928.125      15.2149      13.1765      28.7324    5760.2466 
  131500      131.489    246.83206    10.305492   -471.73331   -461.42782    -6913.016    20374.951    23649.301   -64763.299      15.2149      13.1765      28.7324    5760.2466 
  132000      131.989    245.95525    10.268884   -471.67996   -461.41107    -7750.683    14060.089    28792.066   -66104.204      15.2149      13.1765      28.7324    5760.2466 
  132500      132.489    242.82673    10.138266   -471.53369   -461.39542   -6800.7469    19077.289    26846.494   -66326.024      15.2149      13.1765      28.7324    5760.2466 
  133000      132.989    236.89674    9.8906821   -471.27039   -461.37971   -7290.3836    19130.057    24434.712   -65435.919      15.2149      13.1765      28.7324    5760.2466 
  133500      133.489    235.29164    9.8236675   -471.18775   -461.36408   -6047.6203    20325.229    27613.134   -66081.225      15.2149      13.1765      28.7324    5760.2466 
  134000      133.989    246.65547    10.298119   -471.64636   -461.34824   -6455.1309    21241.405    25301.073    -65907.87      15.2149      13.1765      28.7324    5760.2466 
  134500      134.489    260.77515     10.88763   -472.22118   -461.33355   -7028.9125    18478.809    26928.516   -66494.062      15.2149      13.1765      28.7324    5760.2466 
  135000      134.989    246.75058     10.30209   -471.61945   -461.31736   -6681.9435    17990.797    23930.318   -61966.945      15.2149      13.1765      28.7324    5760.2466 
  135500      135.489    248.03679    10.355791   -471.65749    -461.3017   -6772.3728    17806.554    27365.248    -65488.92      15.2149      13.1765      28.7324    5760.2466 
  136000      135.989    261.04134    10.898744   -472.18509   -461.28634   -8666.8221    16323.479    23482.908   -65806.854      15.2149      13.1765      28.7324    5760.2466 
  136500      136.489    241.07834    10.065268   -471.33501   -461.26975   -5352.6452    19143.628    27276.493   -62478.056      15.2149      13.1765      28.7324    5760.2466 
  137000      136.989    257.03067    10.731294   -471.98573   -461.25444   -6957.5926    18716.689    26311.511   -65900.978      15.2149      13.1765      28.7324    5760.2466 
  137500      137.489    249.85961    10.431895   -471.67051   -461.23862    -7275.904    17918.662    24882.792   -64629.166      15.2149      13.1765      28.7324    5760.2466 
  138000      137.989    248.25506    10.364904   -471.58813   -461.22323   -7446.6087    16535.877    27434.541   -66310.244      15.2149      13.1765      28.7324    5760.2466 
  138500      138.489    227.54916    9.5004111    -470.7067   -461.20629     -6312.26    19774.228    26434.462    -65145.47      15.2149      13.1765      28.7324    5760.2466 
  139000      138.989    265.83692    11.098964    -472.2905   -461.19154   -7644.5974    19558.626    23194.559   -65686.977      15.2149      13.1765      28.7324    5760.2466 
  139500      139.489    237.85901    9.9308577   -471.10572   -461.17486   -7452.7372     21657.16     26782.12   -70797.491      15.2149      13.1765      28.7324    5760.2466 
  140000      139.989    249.69241    10.424915   -471.58465   -461.15974   -5947.5752     19614.64    28951.261   -66408.626      15.2149      13.1765      28.7324    5760.2466 
  140500      140.489    241.56669    10.085657   -471.22867   -461.14301   -6088.1775    18452.047     25594.15   -62310.729      15.2149      13.1765      28.7324    5760.2466 
  141000      140.989    247.14888     10.31872   -471.44641   -461.12769    -6009.109    18258.522    25857.422   -62143.271      15.2149      13.1765      28.7324    5760.2466 
  141500      141.489    241.50993    10.083287   -471.19514   -461.11185   -6411.5387    18296.759    23748.809   -61280.185      15.2149      13.1765      28.7324    5760.2466 
  142000      141.989    259.73498    10.844202   -471.94038   -461.09617   -7094.7078    19039.385    23620.891     -63944.4      15.2149      13.1765      28.7324    5760.2466 
  142500      142.489    239.57257    10.002401   -471.08182   -461.07942   -7408.9245    18029.106    22807.624   -63063.504      15.2149      13.1765      28.7324    5760.2466 
  143000      142.989    252.64599     10.54823   -471.61212   -461.06389   -6160.3229    21079.474     23667.13   -63227.572      15.2149      13.1765      28.7324    5760.2466 
  143500      143.489    261.17226     10.90421   -471.95247   -461.04826   -6890.4843    16344.066    25503.932   -62519.451      15.2149      13.1765      28.7324    5760.2466 
  144000      143.989    251.22464    10.488887    -471.5207   -461.03181   -6086.5134    18332.794    26030.645   -62622.979      15.2149      13.1765      28.7324    5760.2466 
  144500      144.489    240.70493    10.049678   -471.06557   -461.01589   -6125.7506    20476.905    27937.574    -66791.73      15.2149      13.1765      28.7324    5760.2466 
  145000      144.989    254.66893    10.632689   -471.63252   -460.99983    -7907.017    19356.821    25771.348    -68849.22      15.2149      13.1765      28.7324    5760.2466 
  145500      145.489    261.33515    10.911011   -471.89468   -460.98367   -7683.6888     16522.32    22090.367   -61663.753      15.2149      13.1765      28.7324    5760.2466 
  146000      145.989    256.38467    10.704323    -471.6715   -460.96718   -6926.9833    19936.091    23501.174   -64218.215      15.2149      13.1765      28.7324    5760.2466 
  146500      146.489    250.89557    10.475148   -471.42698   -460.95183   -7378.3135    22600.127    23449.575   -68184.642      15.2149      13.1765      28.7324    5760.2466 
  147000      146.989    249.22505    10.405402   -471.34046   -460.93506   -6601.4084    18930.586     25163.44   -63898.251      15.2149      13.1765      28.7324    5760.2466 
  147500      147.489    264.93068    11.061128   -471.98063    -460.9195   -6862.2704    16046.335    28740.529   -65373.675      15.2149      13.1765      28.7324    5760.2466 
  148000      147.989    253.08859    10.566708   -471.46943   -460.90272   -6652.8295    18546.374    23948.666   -62453.529      15.2149      13.1765      28.7324    5760.2466 
  148500      148.489    263.17126     10.98767   -471.87392   -460.88625   -7152.8646    20437.923    24513.774   -66410.291      15.2149      13.1765      28.7324    5760.2466 
  149000      148.989    245.62774     10.25521   -471.12544   -460.87023    -6840.819    16013.912    28751.673   -65288.042      15.2149      13.1765      28.7324    5760.2466 
  149500      149.489    240.98986    10.061574   -470.91548    -460.8539   -6829.0234    20382.522    27024.682   -67894.274      15.2149      13.1765      28.7324    5760.2466 
  150000      149.989    256.09951    10.692418   -471.53065   -460.83823   -6944.7111    19064.992    26233.459   -66132.585      15.2149      13.1765      28.7324    5760.2466 
  150500      150.489    252.86328    10.557302   -471.37923   -460.82193   -6731.4166    19333.527    24505.274   -64033.051      15.2149      13.1765      28.7324    5760.2466 
  151000      150.989    251.92223    10.518012   -471.32402     -460.806   -7675.7456    18342.614    27189.826   -68559.677      15.2149      13.1765      28.7324    5760.2466 
  151500      151.489     249.5992    10.421023   -471.21061   -460.78958   -7828.1018    16519.969    23734.641   -63738.915      15.2149      13.1765      28.7324    5760.2466 
  152000      151.989    250.17992    10.445269   -471.21916   -460.77389   -6878.1951    19214.654    23944.669   -63793.908      15.2149      13.1765      28.7324    5760.2466 
  152500      152.489    253.30768    10.575856   -471.33368   -460.75782   -7219.1708    17743.349     23645.77   -63046.632      15.2149      13.1765      28.7324    5760.2466 
  153000      152.989    260.99188    10.896679   -471.63784   -460.74116   -7575.8636    21321.148    20603.066   -64651.805      15.2149      13.1765      28.7324    5760.2466 
  153500      153.489    260.58662    10.879759   -471.60406    -460.7243   -6463.0742    18897.386    29224.611    -67511.22      15.2149      13.1765      28.7324    5760.2466 
  154000      153.989    238.19493    9.9448829   -470.65315   -460.70826   -7357.7988      18829.5    24744.754   -65647.651      15.2149      13.1765      28.7324    5760.2466 
  154500      154.489    253.79021    10.596002   -471.28878   -460.69278   -5956.1422    20195.394     27195.79    -65259.61      15.2149      13.1765      28.7324    5760.2466 
  155000      154.989     256.9222    10.726766   -471.40288   -460.67611   -6567.5686     18356.96    25935.233   -63994.899      15.2149      13.1765      28.7324    5760.2466 
  155500      155.489    263.95856    11.020541   -471.68055   -460.66001   -6576.2565    17684.663    25670.871   -63084.304      15.2149      13.1765      28.7324    5760.2466 
  156000      155.989    241.24057    10.072042   -470.71502   -460.64298    -5534.158    19048.858    30079.822   -65731.154      15.2149      13.1765      28.7324    5760.2466 
  156500      156.489    249.71269    10.425761   -471.05242   -460.62666   -6346.0173    21484.447    25991.073   -66513.572      15.2149      13.1765      28.7324    5760.2466 
  157000      156.989    263.17686    10.987904   -471.59827   -460.61036   -7316.3565    17705.645    26424.827   -66079.542      15.2149      13.1765      28.7324    5760.2466 
  157500      157.489    258.89042    10.808941   -471.40255   -460.59361   -6906.1063    19969.711     25583.78   -66271.809      15.2149      13.1765      28.7324    5760.2466 
  158000      157.989    264.11837    11.027213   -471.60481   -460.57759   -7296.7491    19219.903    25077.873   -66188.024      15.2149      13.1765      28.7324    5760.2466 
  158500      158.489     248.7954    10.387463   -470.94726   -460.55979   -6776.8421    16412.428    22776.934   -59519.888      15.2149      13.1765      28.7324    5760.2466 
  159000      158.989    244.26426    10.198284   -470.74209    -460.5438   -6361.1022    19337.999    27365.952   -65787.258      15.2149      13.1765      28.7324    5760.2466 
  159500      159.489    247.46716    10.332008    -470.8592   -460.52719   -6571.5314    15254.103     26887.84   -61856.538      15.2149      13.1765      28.7324    5760.2466 
  160000      159.989    267.46181    11.166805   -471.67803   -460.51123   -7474.1946    19862.735    26352.611    -68637.93      15.2149      13.1765      28.7324    5760.2466 
  160500      160.489    251.63105    10.505855   -471.00005   -460.49419   -6334.5021    17809.458    29901.055   -66714.019      15.2149      13.1765      28.7324    5760.2466 
  161000      160.989    253.71247    10.592756   -471.07073   -460.47797   -5805.6104    21403.125    24836.054   -63656.011      15.2149      13.1765      28.7324    5760.2466 
  161500      161.489    248.91264    10.392358   -470.85442   -460.46207   -6573.9518     18821.52    24004.311   -62547.686      15.2149      13.1765      28.7324    5760.2466 
  162000      161.989    266.81817    11.139933   -471.58575   -460.44582   -6817.0683    19730.962     26339.26   -66521.426      15.2149      13.1765      28.7324    5760.2466 
  162500      162.489    263.77122    11.012719   -471.44168   -460.42896   -7636.1705    16341.581    25124.617   -64374.709      15.2149      13.1765      28.7324    5760.2466 
  163000      162.989    261.14846    10.903216   -471.31608   -460.41286   -6589.0475    19223.212    25015.952   -64006.306      15.2149      13.1765      28.7324    5760.2466 
  163500      163.489    244.22747    10.196748   -470.59218   -460.39544   -6867.0324    18297.651    26361.987   -65260.735      15.2149      13.1765      28.7324    5760.2466 
  164000      163.989     251.4978    10.500292   -470.87887   -460.37857   -6126.9478    21575.595    26709.283   -66665.721      15.2149      13.1765      28.7324    5760.2466 
  164500      164.489    250.48609    10.458051   -470.82019   -460.36214   -6944.4724    17412.134    26250.204   -64495.755      15.2149      13.1765      28.7324    5760.2466 
  165000      164.989    262.80324    10.972305   -471.31769   -460.34539   -6342.8137    16778.937    27554.944   -63362.322      15.2149      13.1765      28.7324    5760.2466 
  165500      165.489    256.68412    10.716826   -471.04512   -460.32829     -6750.15    15920.732    28528.857   -64700.039      15.2149      13.1765      28.7324    5760.2466 
  166000      165.989    256.23726    10.698169   -471.01017     -460.312   -7367.2786    20312.462    23936.702       -66351      15.2149      13.1765      28.7324    5760.2466 
  166500      166.489    254.95121    10.644475   -470.93912   -460.29465   -6411.7952    18408.926    26918.469    -64562.78      15.2149      13.1765      28.7324    5760.2466 
  167000      166.989     255.4443    10.665062   -470.94344   -460.27838   -6242.1241    19376.088    27724.637   -65827.097      15.2149      13.1765      28.7324    5760.2466 
  167500      167.489    265.81955    11.098239   -471.36004    -460.2618   -6864.7777    18236.587    24147.326   -62978.246      15.2149      13.1765      28.7324    5760.2466 
  168000      167.989     257.7779    10.762492   -471.00719    -460.2447   -6594.1365    20197.597    23381.765   -63361.771      15.2149      13.1765      28.7324    5760.2466 
  168500      168.489    252.35497    10.536079   -470.76382   -460.22774   -5714.3695    20588.314    27656.724   -65388.147      15.2149      13.1765      28.7324    5760.2466 
  169000      168.989    250.74355    10.468801   -470.67966   -460.21086   -6522.1473    20740.933    24425.238   -64732.613      15.2149      13.1765      28.7324    5760.2466 
  169500      169.489    251.68571    10.508137   -470.70189   -460.19376   -6042.8772    19084.872    27564.595   -64778.099      15.2149      13.1765      28.7324    5760.2466 
  170000      169.989    265.93019    11.102858   -471.28075   -460.17789   -6516.2278    19758.966    22872.866   -62180.515      15.2149      13.1765      28.7324    5760.2466 
  170500      170.489    253.96689    10.603379   -470.76327   -460.15989   -6541.6418     21778.62    24555.996   -65959.542      15.2149      13.1765      28.7324    5760.2466 
  171000      170.989    262.04272    10.940553   -471.08326   -460.14271   -5355.2835    20599.556     26614.45   -63279.856      15.2149      13.1765      28.7324    5760.2466 
  171500      171.489    251.15258    10.485878   -470.61155   -460.12567   -6427.5178    17805.449    29253.548    -66341.55      15.2149      13.1765      28.7324    5760.2466 
  172000      171.989    251.20408    10.488028    -470.5967   -460.10867    -5866.407    18494.868    25248.605   -61342.693      15.2149      13.1765      28.7324    5760.2466 
  172500      172.489    265.22635    11.073472   -471.16543   -460.09196    -8250.846    17337.072    22600.247   -64689.857      15.2149      13.1765      28.7324    5760.2466 
  173000      172.989    267.92323     11.18607   -471.26116   -460.07509   -6579.7522    16938.069    27215.061   -63892.386      15.2149      13.1765      28.7324    5760.2466 
  173500      173.489    263.87187    11.016921   -471.07455   -460.05763   -6310.1368    20388.191     25651.03    -64969.63      15.2149      13.1765      28.7324    5760.2466 
  174000      173.989    267.94147    11.186832   -471.22807   -460.04124   -5954.7862    19083.058    24962.373   -61909.789      15.2149      13.1765      28.7324    5760.2466 
  174500      174.489     266.4851    11.126027    -471.1503   -460.02427   -6877.0384    19738.328    26405.673   -66775.117      15.2149      13.1765      28.7324    5760.2466 
  175000      174.989    249.79891    10.429361   -470.43617   -460.00681    -7065.991    23269.775    21445.007   -65912.754      15.2149      13.1765      28.7324    5760.2466 
  175500      175.489    251.39747    10.496102   -470.48522   -459.98912   -7223.6077    19025.307    22624.265   -63320.395      15.2149      13.1765      28.7324    5760.2466 
  176000      175.989    262.72703    10.969123   -470.94243   -459.97331    -7391.669    19579.795    24623.502   -66378.304      15.2149      13.1765      28.7324    5760.2466 
  176500      176.489    265.05107    11.066154   -471.02277   -459.95662   -6772.7864    18792.047    26596.902   -65707.308      15.2149      13.1765      28.7324    5760.2466 
  177000      176.989      257.225    10.739408   -470.67877   -459.93936   -6832.9542    17375.388    26991.409    -64865.66      15.2149      13.1765      28.7324    5760.2466 
  177500      177.489    273.72378    11.428249   -471.35075    -459.9225   -6879.3385    19591.407    21368.613   -61598.036      15.2149      13.1765      28.7324    5760.2466 
  178000      177.989    251.74157    10.510469   -470.41537    -459.9049   -7672.1525     17097.44    25678.597   -65792.495      15.2149      13.1765      28.7324    5760.2466 
  178500      178.489     265.0963    11.068043   -470.95627   -459.88822   -6743.5238     20114.64    26987.125   -67332.336      15.2149      13.1765      28.7324    5760.2466 
  179000      178.989    259.37049    10.828984   -470.70032   -459.87134   -6789.8497    18949.286    26682.456   -66001.291      15.2149      13.1765      28.7324    5760.2466 
  179500      179.489    254.05069    10.606877   -470.46066   -459.85378    -6491.449    18492.715    26371.707   -64338.769      15.2149      13.1765      28.7324    5760.2466 
  180000      179.989    271.67561    11.342736   -471.17961   -459.83688   -7741.1066    21073.796    25347.964   -69645.079      15.2149      13.1765      28.7324    5760.2466 
  180500      180.489    275.81128    11.515404   -471.33561    -459.8202   -7016.5696    20075.867    24728.893   -65854.469      15.2149      13.1765      28.7324    5760.2466 
  181000      180.989    265.77775    11.096494   -470.89936   -459.80286   -7158.2506     17711.59    22647.188    -61833.53      15.2149      13.1765      28.7324    5760.2466 
  181500      181.489    262.12071    10.943809   -470.72895   -459.78514   -6597.3046    21245.325    21772.152   -62809.391      15.2149      13.1765      28.7324    5760.2466 
  182000      181.989    255.52749    10.668535    -470.4369   -459.76836   -6927.9381    18840.361    24195.234   -63819.409      15.2149      13.1765      28.7324    5760.2466 
  182500      182.489    260.70626    10.884754   -470.63583   -459.75108   -6514.4795    17654.769    30249.382    -67447.59      15.2149      13.1765      28.7324    5760.2466 
  183000      182.989    260.30421    10.867968   -470.60225   -459.73428   -6742.3261    19046.471     27562.03    -66835.48      15.2149      13.1765      28.7324    5760.2466 
  183500      183.489    253.62519    10.589112   -470.30597   -459.71686   -7568.8596    15747.685    25091.526    -63545.79      15.2149      13.1765      28.7324    5760.2466 
  184000      183.989    258.14215      10.7777   -470.47685   -459.69915   -5673.9583    21784.735    24534.974   -63341.584      15.2149      13.1765      28.7324    5760.2466 
  184500      184.489    263.60282    11.005689   -470.68825   -459.68256   -6502.4083    20033.196    27222.763   -66763.183      15.2149      13.1765      28.7324    5760.2466 
  185000      184.989    272.68569    11.384907   -471.05041    -459.6655   -6907.5307    21008.762    23402.738   -65134.093      15.2149      13.1765      28.7324    5760.2466 
  185500      185.489    270.26611    11.283888   -470.93232   -459.64843   -6698.5144    19267.262    26232.387   -65595.192      15.2149      13.1765      28.7324    5760.2466 
  186000      185.989    256.48639     10.70857   -470.33939   -459.63082   -6162.3523    19969.682     23161.08   -61617.819      15.2149      13.1765      28.7324    5760.2466 
  186500      186.489    267.09055    11.151305   -470.76465   -459.61334   -6592.9662    20826.642    25447.861   -66053.402      15.2149      13.1765      28.7324    5760.2466 
  187000      186.989    266.32782     11.11946   -470.71524   -459.59578   -6813.6351      18461.9    26432.891   -65335.697      15.2149      13.1765      28.7324    5760.2466 
  187500      187.489    275.89056    11.518714   -471.09731   -459.57859   -7529.6874    16899.165    26743.689   -66231.916      15.2149      13.1765      28.7324    5760.2466 
  188000      187.989    280.26864    11.701504   -471.26254   -459.56103   -7442.5081    17048.383    23604.769   -62980.677      15.2149      13.1765      28.7324    5760.2466 
  188500      188.489    253.37021    10.578466    -470.1225   -459.54404   -6768.4338    18019.773    27443.405    -65768.48      15.2149      13.1765      28.7324    5760.2466 
  189000      188.989    260.33535    10.869268   -470.39567    -459.5264   -6360.6875    20079.287    26317.157   -65478.506      15.2149      13.1765      28.7324    5760.2466 
  189500      189.489    258.43808    10.790055   -470.29887   -459.50881   -6861.4923    17686.861    24573.687   -62845.026      15.2149      13.1765      28.7324    5760.2466 
  190000      189.989     260.4146    10.872577   -470.36382   -459.49124   -7539.5359    16365.663    27514.354   -66498.624      15.2149      13.1765      28.7324    5760.2466 
  190500      190.489    275.13632    11.487224   -470.96203   -459.47481   -5849.3873    18859.719    24663.727   -61071.608      15.2149      13.1765      28.7324    5760.2466 
  191000      190.989    259.27234    10.824887   -470.28146   -459.45657   -6706.9966    18909.531    27243.585   -66274.106      15.2149      13.1765      28.7324    5760.2466 
  191500      191.489    277.49738    11.585801   -471.02565   -459.43985   -6447.8972    18385.713    29227.265    -66956.67      15.2149      13.1765      28.7324    5760.2466 
  192000      191.989    262.76196    10.970582   -470.39228    -459.4217   -6578.0896     19216.36    27570.487   -66521.115      15.2149      13.1765      28.7324    5760.2466 
  192500      192.489    263.43069    10.998502   -470.40316   -459.40466   -6278.2036    18012.504    26779.727   -63626.842      15.2149      13.1765      28.7324    5760.2466 
  193000      192.989     268.6371    11.215875    -470.6035   -459.38762   -6575.0824    19011.326    23890.817   -62627.391      15.2149      13.1765      28.7324    5760.2466 
  193500      193.489    268.40875    11.206341   -470.57623   -459.36989   -7188.4381    18449.219      22499.5   -62514.034      15.2149      13.1765      28.7324    5760.2466 
  194000      193.989    264.16259    11.029059   -470.38108   -459.35202    -6058.128    20105.558    25133.515   -63413.458      15.2149      13.1765      28.7324    5760.2466 
  194500      194.489    266.65739     11.13322    -470.4675   -459.33428   -5213.6342    19265.991    28961.976    -63868.87      15.2149      13.1765      28.7324    5760.2466 
  195000      194.989    262.69333    10.967716   -470.28445   -459.31674   -7049.4107    18110.316    23811.808   -63070.356      15.2149      13.1765      28.7324    5760.2466 
  195500      195.489    259.03907    10.815147   -470.11442   -459.29927   -5558.3124    17734.011    28064.753   -62473.701      15.2149      13.1765      28.7324    5760.2466 
  196000      195.989    266.42636    11.123574   -470.40494   -459.28137   -6141.8866    18779.494    26310.953   -63516.107      15.2149      13.1765      28.7324    5760.2466 
  196500      196.489    281.46576    11.751484   -471.01543   -459.26394   -6861.2042    16147.908    29594.733   -66326.254      15.2149      13.1765      28.7324    5760.2466 
  197000      196.989    282.97426    11.814466   -471.06113   -459.24666   -6259.3028    18771.523    27049.793   -64599.225      15.2149      13.1765      28.7324    5760.2466 
  197500      197.489    270.20432    11.281308   -470.50969   -459.22838   -6360.5068    18018.129    29448.102   -66547.751      15.2149      13.1765      28.7324    5760.2466 
  198000      197.989    269.89528    11.268405   -470.47991   -459.21151   -6254.3657    18769.214    26141.288   -63673.599      15.2149      13.1765      28.7324    5760.2466 
  198500      198.489    248.72617    10.384573   -469.57748    -459.1929    -6173.058    18821.258    29802.019   -67142.451      15.2149      13.1765      28.7324    5760.2466 
  199000      198.989    265.80126    11.097476   -470.27317   -459.17569   -5943.5281    19024.601    27589.001   -64444.187      15.2149      13.1765      28.7324    5760.2466 
  199500      199.489     276.0624    11.525889   -470.68309    -459.1572   -7933.9153    18227.005    23235.537   -65264.288      15.2149      13.1765      28.7324    5760.2466 
  200000      199.989    270.08342     11.27626   -470.41567   -459.13941   -5835.4367    20466.212    29103.599    -67076.12      15.2149      13.1765      28.7324    5760.2466 
  200500      200.489    269.00404    11.231195   -470.35266   -459.12147   -7085.2308    17051.804    28378.686   -66686.183      15.2149      13.1765      28.7324    5760.2466 
  201000      200.989     279.6021    11.673675   -470.77817    -459.1045   -5874.3282    16943.946    31057.714   -65624.645      15.2149      13.1765      28.7324    5760.2466 
  201500      201.489    278.38819    11.622993    -470.7101   -459.08711   -5594.6981    21778.062    25928.955   -64491.112      15.2149      13.1765      28.7324    5760.2466 
  202000      201.989     276.1489      11.5295   -470.59877   -459.06927   -7152.5982    17161.167    26786.461   -65405.423      15.2149      13.1765      28.7324    5760.2466 
  202500      202.489    265.76873    11.096117   -470.14668   -459.05057   -7310.3769    17659.278    27420.632    -67011.04      15.2149      13.1765      28.7324    5760.2466 
  203000      202.989    283.14378    11.821544   -470.85477   -459.03323   -5890.6193    17278.778    28287.647   -63238.283      15.2149      13.1765      28.7324    5760.2466 
  203500      203.489    286.40476    11.957693   -470.97355   -459.01586   -6255.1579    19928.294    27662.937   -66356.705      15.2149      13.1765      28.7324    5760.2466 
  204000      203.989    269.20328    11.239513   -470.23715   -458.99764   -6814.5139     19112.08    24743.618    -64299.24      15.2149      13.1765      28.7324    5760.2466 
  204500      204.489    262.51807    10.960399   -469.93954   -458.97914   -5613.4192    20606.125    26642.259   -64088.641      15.2149      13.1765      28.7324    5760.2466 
  205000      204.989    280.34165    11.704552    -470.6666   -458.96205   -6681.6932    21912.875    29326.895    -71284.85      15.2149      13.1765      28.7324    5760.2466 
  205500      205.489    284.12701    11.862594   -470.80642   -458.94383   -5825.6588    20625.341    25965.988   -64068.305      15.2149      13.1765      28.7324    5760.2466 
  206000      205.989    274.67316    11.467887   -470.39343   -458.92554   -7028.8606    18647.504    24660.026   -64394.111      15.2149      13.1765      28.7324    5760.2466 
  206500      206.489    270.95758    11.312757   -470.22005   -458.90729   -6706.6929    20687.122    22708.234   -63515.434      15.2149      13.1765      28.7324    5760.2466 
  207000      206.989    273.45401    11.416986   -470.30705   -458.89006   -6166.0256     20110.79    27469.531   -66078.398      15.2149      13.1765      28.7324    5760.2466 
  207500      207.489     263.8101    11.014343   -469.88647   -458.87213   -6360.7624    20066.204    25007.716   -64156.207      15.2149      13.1765      28.7324    5760.2466 
  208000      207.989    270.82737    11.307321   -470.16146   -458.85414   -5823.0173    20800.434    29997.605   -68267.091      15.2149      13.1765      28.7324    5760.2466 
  208500      208.489    282.12783    11.779127   -470.61599   -458.83686    -6720.134     19103.77    29528.112   -68792.284      15.2149      13.1765      28.7324    5760.2466 
  209000      208.989    275.34836    11.496077   -470.31451   -458.81844   -5183.3105    20759.964    24836.357   -61146.252      15.2149      13.1765      28.7324    5760.2466 
  209500      209.489    269.67115    11.259047    -470.0589   -458.79985   -5643.9206    21417.788    27838.195   -66187.745      15.2149      13.1765      28.7324    5760.2466 
  210000      209.989    272.90914    11.394237   -470.17593   -458.78169   -5978.1091     18801.09    27696.994   -64432.412      15.2149      13.1765      28.7324    5760.2466 
  210500      210.489    260.92196     10.89376   -469.65779   -458.76403   -7601.3929    19421.692    26194.402   -68420.272      15.2149      13.1765      28.7324    5760.2466 
  211000      210.989    292.26539     12.20238   -470.94893   -458.74655   -7045.1103    18387.043    26089.245   -65611.619      15.2149      13.1765      28.7324    5760.2466 
  211500      211.489    302.53068    12.630967   -471.35975   -458.72878   -6656.1935    18826.456    24812.541   -63607.578      15.2149      13.1765      28.7324    5760.2466 
  212000      211.989    262.50095    10.959684   -469.66905   -458.70937     -6001.19    17752.824    27977.179   -63733.573      15.2149      13.1765      28.7324    5760.2466 
[...]
  948500      948.489    365.01425     15.23972   -466.11655   -450.87683   -2938.6741    23787.242    33658.365    -66261.63      15.2149      13.1765      28.7324    5760.2466 
  949000      948.989    383.91873    16.029001   -466.90426   -450.87526   -3986.1471    24058.698    29410.485   -65427.624      15.2149      13.1765      28.7324    5760.2466 
  949500      949.489    387.28735    16.169645   -467.04542   -450.87578   -4024.9645    22838.395    29519.033   -64432.321      15.2149      13.1765      28.7324    5760.2466 
  950000      949.989    371.61396    15.515264   -466.38899   -450.87372   -3881.3235    21320.476    30541.047   -63505.493      15.2149      13.1765      28.7324    5760.2466 
  950500      950.489    366.95549    15.320769   -466.19298   -450.87221   -3680.1436    27221.997    30269.045   -68531.473      15.2149      13.1765      28.7324    5760.2466 
  951000      950.989    381.84932    15.942601   -466.81376   -450.87116   -3550.1981    20779.238    30669.614   -62099.446      15.2149      13.1765      28.7324    5760.2466 
  951500      951.489    375.77894    15.689157   -466.55825   -450.86909   -4571.2616    19674.788    30938.329   -64326.902      15.2149      13.1765      28.7324    5760.2466 
  952000      951.989    359.53205    15.010832   -465.87889   -450.86806   -4676.9607    19292.733    30026.314   -63349.929      15.2149      13.1765      28.7324    5760.2466 
  952500      952.489    382.77089    15.981078   -466.84752   -450.86645   -4521.7425    19979.429    32372.541   -65917.197      15.2149      13.1765      28.7324    5760.2466 
  953000      952.989    362.37199    15.129403   -465.99354   -450.86413   -2630.7119    25108.714    32756.782   -65757.632      15.2149      13.1765      28.7324    5760.2466 
  953500      953.489    354.18533    14.787601   -465.65066   -450.86306     -3239.19    23311.471    30517.817   -63546.858      15.2149      13.1765      28.7324    5760.2466 
  954000      953.989    381.70755    15.936682   -466.79794   -450.86126   -4297.7361     22224.21    33483.329   -68600.748      15.2149      13.1765      28.7324    5760.2466 
  954500      954.489     379.7122    15.853374   -466.71405   -450.86068   -2254.7972    23090.802    30713.884   -60569.078      15.2149      13.1765      28.7324    5760.2466 
  955000      954.989    384.57747    16.056504   -466.91616   -450.85966   -4418.3629     20874.34    33248.663   -67378.092      15.2149      13.1765      28.7324    5760.2466 
  955500      955.489    378.54101    15.804476   -466.66202   -450.85754   -3454.8489    22791.991    33115.859   -66272.397      15.2149      13.1765      28.7324    5760.2466 
  956000      955.989    383.35421    16.005432   -466.86195   -450.85652   -3416.3566    22866.413    25440.415   -58555.898      15.2149      13.1765      28.7324    5760.2466 
  956500      956.489    350.13015    14.618293   -465.47134   -450.85305   -4665.2344    19389.522    30616.029   -64001.254      15.2149      13.1765      28.7324    5760.2466 
  957000      956.989    363.04335    15.157432   -466.00876   -450.85132   -4241.2207    18505.949    32702.549   -63932.161      15.2149      13.1765      28.7324    5760.2466 
  957500      957.489    353.56155    14.761558   -465.61123   -450.84967   -3588.0547    21795.795     32340.97   -64900.929      15.2149      13.1765      28.7324    5760.2466 
  958000      957.989    378.80922    15.815674   -466.66475   -450.84907   -3186.4275    20527.992    32523.269   -62610.543      15.2149      13.1765      28.7324    5760.2466 
  958500      958.489    375.79359    15.689768   -466.53762   -450.84785   -3882.7212    22359.264     29175.61   -63183.038      15.2149      13.1765      28.7324    5760.2466 
  959000      958.989    383.47472    16.010463   -466.85488   -450.84441   -2458.9023    25119.427    32558.923   -65055.057      15.2149      13.1765      28.7324    5760.2466 
  959500      959.489    402.98037    16.824844   -467.66818   -450.84334   -4196.4883    23710.713    25484.362    -61784.54      15.2149      13.1765      28.7324    5760.2466 
  960000      959.989    374.51537    15.636401   -466.47719   -450.84079   -4075.7773    22564.792    32716.842   -67508.966      15.2149      13.1765      28.7324    5760.2466 
  960500      960.489    382.73547    15.979599   -466.81871   -450.83911   -3309.9657    21509.551    32689.419   -64128.867      15.2149      13.1765      28.7324    5760.2466 
  961000      960.989    372.90877    15.569324   -466.40558   -450.83626   -3833.9661    20833.431    32542.231   -64877.561      15.2149      13.1765      28.7324    5760.2466 
  961500      961.489    366.41569    15.298231   -466.13186   -450.83363   -3023.4189    19772.171    29374.175   -58216.603      15.2149      13.1765      28.7324    5760.2466 
  962000      961.989    383.47277    16.010382   -466.84137   -450.83099   -4052.4797    23779.686    30447.455    -66384.58      15.2149      13.1765      28.7324    5760.2466 
  962500      962.489    370.79661    15.481139   -466.31029   -450.82915   -3815.0098    22644.804     28864.62   -62954.453      15.2149      13.1765      28.7324    5760.2466 
  963000      962.989    363.49654    15.176354   -466.00243   -450.82608   -4399.8547    24136.083    28142.832   -65478.479      15.2149      13.1765      28.7324    5760.2466 
  963500      963.489    389.93789    16.280307   -467.10624   -450.82593   -3143.1031    20190.081    33169.263   -62788.653      15.2149      13.1765      28.7324    5760.2466 
  964000      963.989    369.88039    15.442886    -466.2656   -450.82271   -4008.3573    24559.233     31128.06   -67712.365      15.2149      13.1765      28.7324    5760.2466 
  964500      964.489    375.98953    15.697949    -466.5188   -450.82085     -4376.48    22185.345    30107.534   -65422.319      15.2149      13.1765      28.7324    5760.2466 
  965000      964.989    365.13403    15.244721   -466.06267   -450.81795   -3557.9343    24164.033    27726.855   -62564.692      15.2149      13.1765      28.7324    5760.2466 
  965500      965.489    362.47538    15.133719   -465.94915   -450.81543   -5236.8566    22100.709    26942.546   -64753.825      15.2149      13.1765      28.7324    5760.2466 
  966000      965.989    373.95644    15.613066   -466.42558   -450.81251   -4131.6776    21083.176    31062.313   -64540.522      15.2149      13.1765      28.7324    5760.2466 
  966500      966.489    359.15887    14.995252   -465.80661   -450.81136   -3160.1552    24799.567    28288.268   -62568.301      15.2149      13.1765      28.7324    5760.2466 
  967000      966.989    388.42967    16.217338   -467.02667   -450.80933   -4942.2083    20341.162    27273.096   -62440.883      15.2149      13.1765      28.7324    5760.2466 
  967500      967.489    369.37214    15.421666   -466.22694   -450.80528   -3391.8543    21603.574    30997.644    -62776.78      15.2149      13.1765      28.7324    5760.2466 
  968000      967.989    375.23505    15.666449   -466.46949   -450.80304   -2765.1802    26258.309    29041.491   -63595.341      15.2149      13.1765      28.7324    5760.2466 
  968500      968.489    387.26166    16.168572   -466.96931   -450.80074   -4360.5275    19573.944    31099.225   -63754.751      15.2149      13.1765      28.7324    5760.2466 
  969000      968.989    366.22857    15.290419   -466.08802    -450.7976   -2579.3031    24267.516    31058.517   -63063.943      15.2149      13.1765      28.7324    5760.2466 
  969500      969.489    349.82609    14.605598   -465.39984   -450.79424   -4149.6396     25074.93    26522.265   -64046.114      15.2149      13.1765      28.7324    5760.2466 
  970000      969.989     357.8137    14.939089   -465.73074   -450.79165   -3751.2966    21952.825    31330.948   -64537.663      15.2149      13.1765      28.7324    5760.2466 
  970500      970.489    378.02833    15.783071    -466.5728   -450.78973   -4242.0378    25097.108     26942.92   -64766.141      15.2149      13.1765      28.7324    5760.2466 
  971000      970.989    378.38439    15.797937   -466.58432   -450.78639   -3943.3507    21700.911    30397.492   -63928.455      15.2149      13.1765      28.7324    5760.2466 
  971500      971.489    366.61791    15.306674    -466.0889   -450.78222   -4233.5307    24927.714     28708.17   -66336.476      15.2149      13.1765      28.7324    5760.2466 
  972000      971.989    357.96834    14.945546   -465.72496   -450.77941   -3333.1308    22884.038    32022.248   -64905.678      15.2149      13.1765      28.7324    5760.2466 
  972500      972.489    391.42013    16.342192   -467.12008   -450.77789   -4000.4818    24462.391    28317.981   -64781.818      15.2149      13.1765      28.7324    5760.2466 
  973000      972.989    373.91489    15.611331   -466.38481   -450.77348   -4256.9629    19726.119    34248.443   -66745.451      15.2149      13.1765      28.7324    5760.2466 
  973500      973.489    357.35112    14.919776    -465.6895   -450.76972   -4019.8152    25363.615    26137.638   -63560.699      15.2149      13.1765      28.7324    5760.2466 
  974000      973.989    378.03152    15.783204   -466.55071    -450.7675    -3727.608    20448.241    26683.253   -58314.317      15.2149      13.1765      28.7324    5760.2466 
  974500      974.489    376.91326    15.736516   -466.50018   -450.76367   -2577.2707    22853.408    28116.645   -58701.865      15.2149      13.1765      28.7324    5760.2466 
  975000      974.989    374.57741    15.638991   -466.39903   -450.76004   -4428.2131    24411.142     27882.41   -65578.192      15.2149      13.1765      28.7324    5760.2466 
  975500      975.489    386.73038     16.14639   -466.90425   -450.75786   -4479.3633    20547.511    25007.884   -58993.485      15.2149      13.1765      28.7324    5760.2466 
  976000      975.989    382.59387    15.973687    -466.7289   -450.75522   -4053.6174    20113.862    28841.694   -61116.409      15.2149      13.1765      28.7324    5760.2466 
  976500      976.489    389.06169    16.243725   -466.99439   -450.75067    -2634.737    22108.086    31114.615   -61126.912      15.2149      13.1765      28.7324    5760.2466 
  977000      976.989    368.32414    15.377911   -466.12542   -450.74751   -3233.4649    23197.513    31765.604   -64663.512      15.2149      13.1765      28.7324    5760.2466 
  977500      977.489    366.23634    15.290743   -466.03529   -450.74455   -4355.0198    21522.285    29389.488   -63976.832      15.2149      13.1765      28.7324    5760.2466 
  978000      977.989    369.16969    15.413213   -466.15359   -450.74037   -3486.1812    24006.968    29868.361   -64333.873      15.2149      13.1765      28.7324    5760.2466 
  978500      978.489    381.30129     15.91972    -466.6572   -450.73748   -3565.8151    22102.801    33959.531   -66759.777      15.2149      13.1765      28.7324    5760.2466 
  979000      978.989    380.28219    15.877172   -466.61246   -450.73529   -3664.1025    23058.543    29636.762   -63687.613      15.2149      13.1765      28.7324    5760.2466 
  979500      979.489    337.97267    14.110706   -464.84042   -450.72971   -3063.4821    20818.978    34288.545    -64297.97      15.2149      13.1765      28.7324    5760.2466 
  980000      979.989    370.68251    15.476375   -466.20326   -450.72689   -3779.9462    22925.123    28673.352   -62938.313      15.2149      13.1765      28.7324    5760.2466 
  980500      980.489    369.41827    15.423592   -466.14688   -450.72328    -3363.777    23442.133    32743.396    -66276.86      15.2149      13.1765      28.7324    5760.2466 
  981000      980.989    377.46727    15.759646   -466.47995    -450.7203   -2370.0333    23803.971    30712.619    -61626.69      15.2149      13.1765      28.7324    5760.2466 
  981500      981.489    390.24538    16.293145   -467.01083   -450.71768   -3439.9658    24101.222    29244.221   -63665.341      15.2149      13.1765      28.7324    5760.2466 
  982000      981.989    378.06337    15.784534   -466.49725   -450.71272   -4305.3815    20659.965    26267.601   -59843.711      15.2149      13.1765      28.7324    5760.2466 
  982500      982.489    361.82703     15.10665   -465.81508   -450.70843   -3616.6514    24226.986    33220.105   -68297.046      15.2149      13.1765      28.7324    5760.2466 
  983000      982.989     361.3476    15.086633   -465.79087   -450.70424   -2807.3311    21622.447    31339.055   -61383.495      15.2149      13.1765      28.7324    5760.2466 
  983500      983.489    396.78919    16.566356   -467.26809   -450.70173   -4300.7293    21610.271    32090.493   -66602.952      15.2149      13.1765      28.7324    5760.2466 
  984000      983.989    360.79437    15.063535    -465.7594   -450.69587    -2838.885    23557.044    27836.955   -59910.654      15.2149      13.1765      28.7324    5760.2466 
  984500      984.489    378.07425    15.784988   -466.47733   -450.69234   -3182.9785    20778.265    33651.037   -63978.237      15.2149      13.1765      28.7324    5760.2466 
  985000      984.989    405.46636    16.928637   -467.61696   -450.68833   -3223.8421    22760.388    29384.705   -61816.619      15.2149      13.1765      28.7324    5760.2466 
  985500      985.489     354.0265     14.78097   -465.46352   -450.68255   -3767.6952    26454.389    29060.914   -66818.389      15.2149      13.1765      28.7324    5760.2466 
  986000      985.989    364.89601    15.234783   -465.91452   -450.67974   -2696.7197    26741.866    28115.709   -62947.734      15.2149      13.1765      28.7324    5760.2466 
  986500      986.489    362.17504     15.12118   -465.79557   -450.67439   -3634.7421    23049.938     27919.19   -61873.354      15.2149      13.1765      28.7324    5760.2466 
  987000      986.989    373.72498    15.603402   -466.27372   -450.67031   -2457.4845    26756.437    28371.468   -62500.359      15.2149      13.1765      28.7324    5760.2466 
  987500      987.489    379.39034    15.839936   -466.50668   -450.66675   -2823.5265    21822.739    33885.286   -64178.604      15.2149      13.1765      28.7324    5760.2466 
  988000      987.989    379.82476    15.858074   -466.52059   -450.66252   -4003.8606    23342.319    28590.399   -63944.299      15.2149      13.1765      28.7324    5760.2466 
  988500      988.489    369.18759    15.413961   -466.07239   -450.65843   -2804.4864    22541.619    33201.471   -64156.549      15.2149      13.1765      28.7324    5760.2466 
  989000      988.989    368.72739    15.394747     -466.048   -450.65326   -3846.2191    23444.227    34252.058   -69234.942      15.2149      13.1765      28.7324    5760.2466 
  989500      989.489    369.86095    15.442074   -466.09078    -450.6487    -2896.242    24868.702     35563.21   -69120.638      15.2149      13.1765      28.7324    5760.2466 
  990000      989.989    391.79018    16.357642   -467.00251   -450.64487   -4921.7913    23835.587    28739.617   -67340.578      15.2149      13.1765      28.7324    5760.2466 
  990500      990.489    381.71384    15.936945   -466.57635   -450.63941   -3552.7817     16270.93    28658.446   -55587.722      15.2149      13.1765      28.7324    5760.2466 
  991000      990.989    365.74034    15.270035   -465.90575   -450.63571   -3162.3063    22794.648    33293.958   -65575.525      15.2149      13.1765      28.7324    5760.2466 
  991500      991.489    378.84429    15.817138   -466.44799   -450.63085   -4188.4537    20908.495    30247.759   -63721.615      15.2149      13.1765      28.7324    5760.2466 
  992000      991.989    398.61441    16.642561   -467.26915   -450.62659   -3628.8704    23599.185    31929.883   -66415.679      15.2149      13.1765      28.7324    5760.2466 
  992500      992.489    378.73685    15.812653   -466.43448   -450.62183   -4280.7906    21858.035    27894.854   -62595.261      15.2149      13.1765      28.7324    5760.2466 
  993000      992.989    403.82083    16.859934   -467.47711   -450.61717   -4398.8028    23244.471     27497.67   -63938.549      15.2149      13.1765      28.7324    5760.2466 
  993500      993.489    372.04713     15.53335   -466.14464   -450.61129   -3738.3127    22877.894    31662.366   -65755.197      15.2149      13.1765      28.7324    5760.2466 
  994000      993.989    383.50066    16.011546   -466.61896   -450.60741    -3465.866    29182.911    24076.176   -63656.685      15.2149      13.1765      28.7324    5760.2466 
  994500      994.489    392.75691    16.398004   -467.00059   -450.60259   -3624.3508    23813.039    30136.341   -64822.433      15.2149      13.1765      28.7324    5760.2466 
  995000      994.989    369.91552    15.444353   -466.04069   -450.59634   -4075.9368     22054.74     27290.57    -61573.12      15.2149      13.1765      28.7324    5760.2466 
  995500      995.489    396.59279    16.558156   -467.15022   -450.59207   -3125.5593    24634.687    29392.838   -63404.202      15.2149      13.1765      28.7324    5760.2466 
  996000      995.989    388.25793    16.210167   -466.79783   -450.58766   -3830.5188    21664.172    27570.897   -60726.625      15.2149      13.1765      28.7324    5760.2466 
  996500      996.489    384.27067    16.043695   -466.62752   -450.58383   -4422.5767    21876.092     30573.07   -65716.892      15.2149      13.1765      28.7324    5760.2466 
  997000      996.989    349.75453    14.602611   -465.17888   -450.57627   -3828.9588    22695.351    28565.304   -62747.531      15.2149      13.1765      28.7324    5760.2466 
  997500      997.489    381.29628    15.919511   -466.49336   -450.57385   -4096.4007    22281.416     27903.76   -62474.378      15.2149      13.1765      28.7324    5760.2466 
  998000      997.989    377.35109    15.754795    -466.3231   -450.56831   -2786.7868        24753    30827.665   -63941.025      15.2149      13.1765      28.7324    5760.2466 
  998500      998.489    357.86837    14.941372   -465.50471   -450.56333   -3557.3907      21536.7    30443.313   -62652.186      15.2149      13.1765      28.7324    5760.2466 
  999000      998.989     399.5852    16.683092   -467.24077   -450.55768   -4205.8944    22998.187    30844.229   -66460.099      15.2149      13.1765      28.7324    5760.2466 
  999500      999.489    368.87449    15.400889   -465.95171   -450.55082   -3225.6581    25621.889    28798.512   -64097.376      15.2149      13.1765      28.7324    5760.2466 
 1000000      999.989    375.82232    15.690968   -466.23706   -450.54609    -1925.955    22459.558     31775.07   -60012.493      15.2149      13.1765      28.7324    5760.2466 
 1000011         1000    384.88705     16.06943   -466.61593    -450.5465   -2206.9595    21301.989    32330.786   -60253.653      15.2149      13.1765      28.7324    5760.2466 
Loop time of 898.402 on 28 procs for 1000000 steps with 324 atoms

Performance: 96.171 ns/day, 0.250 hours/ns, 1113.087 timesteps/s
87.9% CPU use with 28 MPI tasks x no OpenMP threads

MPI task timing breakdown:
Section |  min time  |  avg time  |  max time  |%varavg| %total
---------------------------------------------------------------
Pair    | 737.56     | 781.62     | 822.51     |  92.3 | 87.00
Neigh   | 0          | 0          | 0          |   0.0 |  0.00
Comm    | 65.465     | 103.75     | 147.67     | 249.2 | 11.55
Output  | 0.099179   | 0.10168    | 0.12088    |   1.2 |  0.01
Modify  | 4.9836     | 7.8403     | 11.659     |  81.2 |  0.87
Other   |            | 5.091      |            |       |  0.57

Nlocal:    11.5714 ave 15 max 9 min
Histogram: 5 6 0 3 0 6 2 0 2 4
Nghost:    665.071 ave 715 max 626 min
Histogram: 4 4 2 5 3 2 0 2 2 4
Neighs:    724.286 ave 983 max 523 min
Histogram: 3 4 2 3 5 4 1 2 2 2
FullNghs:  1448.57 ave 1891 max 1099 min
Histogram: 5 4 2 3 1 5 1 1 2 4

Total # of neighbors = 40560
Ave neighs/atom = 125.185
Neighbor list builds = 0
Dangerous builds = 0

write_restart   POSCAR_1x1x1.rest

#unfix    1
#undump   1
Total wall time: 0:14:58
