LAMMPS (7 Dec 2015)
#----------- Initialize Simulation ------------ restart01
#processors	2 2 2
units		metal
boundary	p p p     ## periodic boundary condition  on x y z axis ##
atom_style atomic
#atom_modify map array sort 0 0.0

read_data	POSCAR_1x1x1.lammps
  triclinic box = (0 0 0) to (14.88 12.8865 28.7324) with tilt (-7.44 0 0)
  2 by 2 by 7 MPI processor grid
  reading atoms ...
  319 atoms

#----------- Define Potential -----------------
pair_style meam
pair_coeff * * MgAlZn.library.meam Mg Al Zn MgAlZn.parameter.meam Mg Al Zn 	#1=Mg 2=Al 3=Zn	#atoms/mass

#----------- Neighbor List --------------------
neighbor 2.0 bin
neigh_modify delay 10 check yes

#--------------  Run a simulation (minimization) ---------------------------------------
minimize       1.0e-4   1.0e-6   100   1000          #結構優化的條件
WARNING: Resetting reneighboring criteria during minimization (../min.cpp:168)
Neighbor list info ...
  2 neighbor list requests
  update every 1 steps, delay 0 steps, check yes
  max neighbors/atom: 2000, page size: 100000
  master list distance cutoff = 8
  ghost atom cutoff = 8
  binsize = 4 -> bins = 6 4 8
Memory usage per processor = 8.66629 Mbytes
Step Temp E_pair E_mol TotEng Press 
       0            0   -397.75802            0   -397.75802    29117.221 
      89            0   -435.89092            0   -435.89092    10981.968 
Loop time of 0.147774 on 28 procs for 89 steps with 319 atoms

86.8% CPU use with 28 MPI tasks x no OpenMP threads

Minimization stats:
  Stopping criterion = energy tolerance
  Energy initial, next-to-last, final = 
        -397.758019959     -435.856312179     -435.890924848
  Force two-norm initial, final = 19.3001 1.01572
  Force max component initial, final = 2.645 0.202333
  Final line search alpha, max atom move = 0.257432 0.052087
  Iterations, force evaluations = 89 162

MPI task timing breakdown:
Section |  min time  |  avg time  |  max time  |%varavg| %total
---------------------------------------------------------------
Pair    | 0.11957    | 0.12484    | 0.13287    |   0.8 | 84.48
Neigh   | 0.00010282 | 0.00014457 | 0.00025728 |   0.2 |  0.10
Comm    | 0.010619   | 0.018806   | 0.023693   |   2.1 | 12.73
Output  | 0          | 0          | 0          |   0.0 |  0.00
Modify  | 0          | 0          | 0          |   0.0 |  0.00
Other   |            | 0.003987   |            |       |  2.70

Nlocal:    11.3929 ave 16 max 6 min
Histogram: 1 1 2 0 4 6 7 1 4 2
Nghost:    673.071 ave 724 max 629 min
Histogram: 4 4 4 0 4 4 0 0 5 3
Neighs:    707.179 ave 1036 max 357 min
Histogram: 1 2 1 3 5 5 5 4 1 1
FullNghs:  1414.36 ave 2001 max 743 min
Histogram: 1 1 2 4 5 4 5 2 2 2

Total # of neighbors = 39602
Ave neighs/atom = 124.144
Neighbor list builds = 2
Dangerous builds = 0
velocity all  create 600.0 4928459 #rot yes dist gaussian

#--------------  Run a simulation (Relaxation)  ----------------------------------------
fix  1  all  nvt   temp  600.0  600.0  100				#damping constant
#fix  2  all  npt   temp  393.0  393.0  50 iso 0.0 0.0 1000.0
fix  2  all deform 1 x final 0 15.6906 y final 0 13.5884 z final 0 25.2339 xy final -7.8452 units lattice
#fix  3  all  npt   temp  393.0  393.0  50 z 0.0 0.0 1000.0

#variable b equal 1
#fix 2 all efield  0.0  0.0  v_b
#compute pot all pe/atom


#----------- Output --------------------------
thermo	 500
timestep  0.001		#1.0 fs
thermo_style	custom step time temp ke pe etotal press pxx pyy pzz lx ly lz vol

dump 1 all custom 10000 dump.eq id type x y z
dump_modify 1 sort  id

run        1000000	#1000 ps
Neighbor list info ...
  2 neighbor list requests
  update every 1 steps, delay 10 steps, check yes
  max neighbors/atom: 2000, page size: 100000
  master list distance cutoff = 8
  ghost atom cutoff = 8
  binsize = 4 -> bins = 6 4 8
Memory usage per processor = 7.57224 Mbytes
Step Time Temp KinEng PotEng TotEng Press Pxx Pyy Pzz Lx Ly Lz Volume 
      89            0          600    24.662836   -435.89092   -411.22809    15763.356    39222.607     44988.47   -36921.007        14.88    12.886458     28.73238    5509.4482 
     500        0.411    361.72565    14.868634   -426.10591   -411.23727    21120.178    47239.233    59674.946   -43553.643    14.880333    12.886747    28.730942    5509.4191 
    1000        0.911    410.03759    16.854483   -428.10929   -411.25481    20341.979    48209.869    52281.425   -39465.357    14.880739    12.887098    28.729193    5509.3838 
    1500        1.411    393.33658    16.167993   -427.43986   -411.27186    20927.134    50192.718    49478.694    -36890.01    14.881144    12.887449    28.727444    5509.3484 
    2000        1.911    412.56146    16.958226    -428.2462   -411.28797    20249.086    47271.691    52200.691   -38725.124    14.881549      12.8878    28.725694     5509.313 
    2500        2.411    428.96372    17.632436   -428.93698   -411.30454     19635.71    45891.489    46315.806   -33300.165    14.881954     12.88815    28.723945    5509.2776 
    3000        2.911    442.54758    18.190797   -429.51012   -411.31933    16541.803    49139.119    42387.193   -41900.902     14.88236    12.888501    28.722196    5509.2422 
    3500        3.411    452.91562    18.616973   -429.95117    -411.3342     18304.32    49467.565    44198.595     -38753.2    14.882765    12.888852    28.720447    5509.2067 
    4000        3.911    436.03267    17.923003   -429.27115   -411.34814    17466.124    50738.811     43251.27    -41591.71     14.88317    12.889203    28.718697    5509.1712 
    4500        4.411    469.90061    19.315136   -430.67811   -411.36297    17959.684    49501.927    45822.115   -41444.991    14.883576    12.889554    28.716948    5509.1357 
    5000        4.911    439.65379    18.071849   -429.44835   -411.37651    19277.306    49770.914    44045.486    -35984.48    14.883981    12.889905    28.715199    5509.1001 
    5500        5.411    458.91221    18.863461   -430.25342   -411.38996    19930.801    51763.457     48019.92   -39990.974    14.884386    12.890256     28.71345    5509.0645 
    6000        5.911    449.51551    18.477212   -429.88223   -411.40502    20163.795    51466.799    47527.304   -38502.718    14.884792    12.890607      28.7117    5509.0289 
    6500        6.411    453.62653    18.646194   -430.06441   -411.41822     18522.54    47937.815    46457.709   -38827.905    14.885197    12.890958    28.709951    5508.9932 
    7000        6.911    430.64769    17.701655   -429.13293   -411.43128    20177.287    50198.636    46899.353   -36566.127    14.885602    12.891309    28.708202    5508.9576 
    7500        7.411    444.43086    18.268209   -429.71343   -411.44522    19275.792    53214.284    46677.328   -42064.236    14.886007     12.89166    28.706453    5508.9218 
    8000        7.911    444.79271    18.283083   -429.74163   -411.45855    19745.208    49714.294    46016.624   -36495.294    14.886413    12.892011    28.704703    5508.8861 
    8500        8.411    476.93345    19.604219   -431.07556   -411.47134    18662.279    48818.047    46097.479    -38928.69    14.886818    12.892362    28.702954    5508.8504 
    9000        8.911    462.56039    19.013418   -430.49748   -411.48406    19493.915    50395.644    47465.944   -39379.842    14.887223    12.892713    28.701205    5508.8146 
    9500        9.411    451.96432     18.57787   -430.07302   -411.49515    18331.112    47481.312    48164.471   -40652.448    14.887629    12.893064    28.699456    5508.7787 
   10000        9.911    466.08101    19.158132   -430.66616   -411.50803    18855.584    47492.183    47831.378   -38756.809    14.888034    12.893415    28.697706    5508.7429 
   10500       10.411     452.2975    18.591565   -430.11119   -411.51963    19305.052    50626.702    47089.811   -39801.358    14.888439    12.893766    28.695957     5508.707 
   11000       10.911    487.63316    20.044028   -431.57561   -411.53158    19438.763    49172.855    48666.799   -39523.365    14.888845    12.894117    28.694208    5508.6711 
   11500       11.411    461.19803    18.957419   -430.49948   -411.54206    19626.592    47206.928    49945.054   -38272.207     14.88925    12.894468    28.692459    5508.6352 
   12000       11.911    456.21443    18.752569   -430.30619   -411.55362    18904.463    49778.767    46828.362   -39893.741    14.889655    12.894819     28.69071    5508.5992 
   12500       12.411    451.89063     18.57484   -430.13904    -411.5642    18420.957    44587.865     49598.01   -38923.004     14.89006     12.89517     28.68896    5508.5632 
   13000       12.911    449.35739    18.470712    -430.0456   -411.57489    20437.775    48034.344    49442.405   -36163.424    14.890466    12.895521    28.687211    5508.5272 
   13500       13.411    448.71016    18.444108   -430.02965   -411.58554    18908.252    46968.342    47616.178   -37859.763    14.890871    12.895872    28.685462    5508.4912 
   14000       13.911    453.88796     18.65694   -430.25242   -411.59548    17782.678    47662.374    47874.174   -42188.515    14.891276    12.896223    28.683713    5508.4551 
   14500       14.411    474.97612    19.523763   -431.12952   -411.60575    17587.427    44569.538    48083.392   -39890.649    14.891682    12.896574    28.681963     5508.419 
   15000       14.911    451.07529    18.541326   -430.15672   -411.61539    18468.386    45565.339    47260.366   -37420.548    14.892087    12.896925    28.680214    5508.3829 
   15500       15.411    464.68965    19.100941   -430.72567   -411.62473    17800.881    46942.875    46516.871   -40057.104    14.892492    12.897276    28.678465    5508.3467 
   16000       15.911    452.89593    18.616163    -430.2498   -411.63364    18101.135    47633.128    46156.583   -39486.307    14.892898    12.897627    28.676716    5508.3105 
   16500       16.411    447.11393    18.378496   -430.02074   -411.64224    19591.137    48327.938    46570.065   -36124.592    14.893303    12.897978    28.674966    5508.2743 
   17000       16.911    468.38447    19.252815   -430.90461    -411.6518    17527.574    44423.576    44475.496    -36316.35    14.893708    12.898329    28.673217    5508.2381 
   17500       17.411    450.09594     18.50107   -430.16013   -411.65905    19253.708    44640.459    47651.368   -34530.702    14.894113     12.89868    28.671468    5508.2018 
   18000       17.911    484.87013    19.930454   -431.59779   -411.66734     18148.83    43908.132    47108.546   -36570.189    14.894519    12.899031    28.669719    5508.1655 
   18500       18.411    448.08108     18.41825   -430.09228   -411.67403    18484.469    45635.762    47572.397   -37754.753    14.894924    12.899382    28.667969    5508.1292 
   19000       18.911     454.5805    18.685407   -430.36716   -411.68175    17346.019    45893.189    43078.662   -36933.794    14.895329    12.899733     28.66622    5508.0928 
   19500       19.411    448.52316    18.436422   -430.12621   -411.68979    18203.302    44425.437    48335.614   -38151.144    14.895735    12.900084    28.664471    5508.0564 
   20000       19.911    477.08364    19.610392   -431.30789   -411.69749    18450.916    45780.709    45878.996   -36306.958     14.89614    12.900434    28.662722      5508.02 
   20500       20.411    455.87534    18.738631   -430.44202   -411.70339    17969.969    46975.986    42995.657   -36061.737    14.896545    12.900785    28.660972    5507.9836 
   21000       20.911    474.07665    19.486791   -431.19745   -411.71066    18638.583    47413.389    49147.874   -40645.513    14.896951    12.901136    28.659223    5507.9471 
   21500       21.411    436.69307    17.950149   -429.66596   -411.71581    19735.374    46212.723    44681.678   -31688.278    14.897356    12.901487    28.657474    5507.9106 
   22000       21.911    487.00679    20.018281   -431.74039   -411.72211    17704.976    46643.617    42760.446   -36289.135    14.897761    12.901838    28.655725    5507.8741 
   22500       22.411    466.99433    19.195674    -430.9236   -411.72793    19408.534    46734.177    45312.159   -33820.735    14.898166    12.902189    28.653975    5507.8375 
   23000       22.911    460.34401    18.922314   -430.65584   -411.73353    18161.972    49207.868    45003.758    -39725.71    14.898572     12.90254    28.652226    5507.8009 
   23500       23.411    432.85111    17.792226   -429.53078   -411.73855    18774.501    51471.786    44940.064   -40088.345    14.898977    12.902891    28.650477    5507.7643 
   24000       23.911    448.27819    18.426352   -430.17023   -411.74388    20124.141    47654.648    47072.401   -34354.627    14.899382    12.903242    28.648728    5507.7277 
   24500       24.411    470.17903     19.32658   -431.07665   -411.75007    18448.376    46892.482    45460.817   -37008.171    14.899788    12.903593    28.646979     5507.691 
   25000       24.911    446.15545    18.339097   -430.09254   -411.75345    18811.955    49100.054    49540.994   -42205.182    14.900193    12.903944    28.645229    5507.6543 
   25500       25.411    471.82053    19.394054   -431.15246    -411.7584    19656.905     48906.72    44794.988   -34730.993    14.900598    12.904295     28.64348    5507.6176 
   26000       25.911    452.89871    18.616277   -430.37905   -411.76277    20391.335    46799.283    47263.119   -32888.396    14.901004    12.904646    28.641731    5507.5808 
   26500       26.411    462.85501    19.025529   -430.79289   -411.76736    17370.473    45391.068    41083.659   -34363.307    14.901409    12.904997    28.639982     5507.544 
   27000       26.911    472.82406    19.435303   -431.20543   -411.77013    18333.465    48090.169    46069.044   -39158.816    14.901814    12.905348    28.638232    5507.5072 
   27500       27.411    467.24213     19.20586   -430.97981   -411.77395    18910.034    49571.336    44895.516   -37736.749    14.902219    12.905699    28.636483    5507.4704 
   28000       27.911    463.34186     19.04554   -430.82318   -411.77764      17439.3     44189.38    44519.494   -36390.974    14.902625     12.90605    28.634734    5507.4335 
   28500       28.411    466.69639    19.183427   -430.96454   -411.78111    18535.086    49245.282    45072.457   -38712.481     14.90303    12.906401    28.632985    5507.3966 
   29000       28.911    477.98355    19.647383   -431.43246   -411.78508    17847.447    47347.521    44525.789   -38330.968    14.903435    12.906752    28.631235    5507.3597 
   29500       29.411    483.29359    19.865651   -431.65291   -411.78726    17538.145    46557.259    44388.557   -38331.381    14.903841    12.907103    28.629486    5507.3227 
   30000       29.911    461.43957    18.967347   -430.75693   -411.78958    18056.846    46971.334    43675.619   -36476.416    14.904246    12.907454    28.627737    5507.2857 
   30500       30.411    479.25945    19.699829   -431.49214   -411.79231    18153.464    48337.755    44316.191   -38193.553    14.904651    12.907805    28.625988    5507.2487 
   31000       30.911     472.2286    19.410827   -431.20499   -411.79416    18111.307    45038.376    47601.062   -38305.518    14.905057    12.908156    28.624238    5507.2117 
   31500       31.411     498.0565    20.472476    -432.2689   -411.79643    18175.113    48038.496    46450.184   -39963.339    14.905462    12.908507    28.622489    5507.1746 
   32000       31.911    460.37945    18.923771   -430.72093   -411.79716     18469.68    47393.008    46944.627   -38928.596    14.905867    12.908858     28.62074    5507.1375 
   32500       32.411    458.46794    18.845199   -430.64467   -411.79947    18804.124    47303.512    43612.776   -34503.915    14.906272    12.909209    28.618991    5507.1004 
   33000       32.911     472.5124    19.422493   -431.22314   -411.80065    18423.867    44161.996    46835.472   -35725.867    14.906678     12.90956    28.617241    5507.0632 
   33500       33.411    476.33709    19.579705   -431.38115   -411.80145    19680.077     49277.09    45033.118   -35269.976    14.907083    12.909911    28.615492     5507.026 
   34000       33.911    435.18652    17.888223   -429.68956   -411.80133     17852.16     47537.99    42266.769   -36248.279    14.907488    12.910262    28.613743    5506.9888 
   34500       34.411    493.31954    20.277765   -432.08051   -411.80274    18888.831    48446.271    42244.052    -34023.83    14.907894    12.910613    28.611994    5506.9516 
   35000       34.911    478.10833    19.652512   -431.45484   -411.80233    17815.855    47737.059    44116.527   -38406.022    14.908299    12.910964    28.610244    5506.9143 
   35500       35.411    460.84445    18.942885   -430.74539   -411.80251    19415.207    45693.163    45820.879   -33268.421    14.908704    12.911315    28.608495     5506.877 
   36000       35.911    495.35542    20.361449   -432.16415    -411.8027    17422.587    43950.511    46748.926   -38431.676     14.90911    12.911666    28.606746    5506.8397 
   36500       36.411    465.18847    19.121445   -430.92493   -411.80348    18839.519    49404.612    42720.044   -35606.098    14.909515    12.912017    28.604997    5506.8023 
   37000       36.911    464.73469    19.102792   -430.90769    -411.8049    17655.189    46857.839    41967.226   -35859.498     14.90992    12.912367    28.603248     5506.765 
   37500       37.411    453.50876    18.641354   -430.44449   -411.80314    18323.551    48273.186    44189.386   -37491.918    14.910325    12.912718    28.601498    5506.7275 
   38000       37.911    467.13283    19.201367   -431.00455   -411.80318    17699.559    43482.116    44638.553   -35021.991    14.910731    12.913069    28.599749    5506.6901 
   38500       38.411    435.65609    17.907524   -429.70865   -411.80112    18514.096    46193.114    45196.409   -35847.236    14.911136     12.91342       28.598    5506.6526 
   39000       38.911    477.51814    19.628252   -431.42932   -411.80106    18884.587    48842.667    45147.653   -37336.558    14.911541    12.913771    28.596251    5506.6151 
   39500       39.411    485.57177    19.959295     -431.759   -411.79971    16945.033    47993.069    42101.813   -39259.784    14.911947    12.914122    28.594501    5506.5776 
   40000       39.911    467.46247    19.214917     -431.013   -411.79808    18595.943     45481.24     45641.06   -35334.471    14.912352    12.914473    28.592752    5506.5401 
   40500       40.411    476.40888    19.582657   -431.38048   -411.79783    16813.906    45036.866    42264.693   -36859.841    14.912757    12.914824    28.591003    5506.5025 
   41000       40.911    483.10048    19.857713   -431.65362   -411.79591    18523.212    45001.589    45337.836   -34769.789    14.913163    12.915175    28.589254    5506.4649 
   41500       41.411    468.11389    19.241693   -431.03641   -411.79472    17815.479    45257.976    42051.876   -33863.415    14.913568    12.915526    28.587504    5506.4272 
   42000       41.911    460.54182    18.930445    -430.7227   -411.79225    19401.395    46715.352    45193.918   -33705.086    14.913973    12.915877    28.585755    5506.3896 
   42500       42.411    463.51672    19.052728   -430.84343    -411.7907    18373.958    44483.067    44703.176   -34064.369    14.914378    12.916228    28.584006    5506.3519 
   43000       42.911    479.59745    19.713722   -431.50306   -411.78934    17679.034    43477.917    42938.017   -33378.834    14.914784    12.916579    28.582257    5506.3141 
   43500       43.411     486.3133    19.989775   -431.77674   -411.78696     17920.14    44743.847    47104.312   -38087.738    14.915189     12.91693    28.580507    5506.2764 
   44000       43.911    465.81947    19.147382   -430.93127   -411.78389    18708.876    45725.375     46665.38   -36264.127    14.915594    12.917281    28.578758    5506.2386 
   44500       44.411    476.66933    19.593362   -431.37547   -411.78211     17810.32     44053.78    45282.812   -35905.633       14.916    12.917632    28.577009    5506.2008 
   45000       44.911    480.12039    19.735217   -431.51418   -411.77896    18041.549    47413.037    41337.112   -34625.503    14.916405    12.917983     28.57526     5506.163 
   45500       45.411    447.38871     18.38979   -430.16488   -411.77509    19166.678    46566.175    44807.288   -33873.429     14.91681    12.918334     28.57351    5506.1251 
   46000       45.911    458.18277    18.833477   -430.60614   -411.77266    18509.412    46951.827    43954.359   -35377.949    14.917216    12.918685    28.571761    5506.0872 
   46500       46.411    477.92052    19.644792    -431.4145   -411.76971    19149.986    45658.923    44943.278   -33152.243    14.917621    12.919036    28.570012    5506.0493 
   47000       46.911    510.44561    20.981727   -432.74945   -411.76773    17832.065    47226.549    41600.688   -35331.043    14.918026    12.919387    28.568263    5506.0113 
   47500       47.411    449.50274    18.476687   -430.23938   -411.76269    18964.479    48771.062    42712.708   -34590.332    14.918431    12.919738    28.566513    5505.9733 
   48000       47.911    440.25726    18.096654   -429.85553   -411.75888    18656.792    41549.238    45923.865   -31502.728    14.918837    12.920089    28.564764    5505.9353 
   48500       48.411    450.49476    18.517464   -430.27361   -411.75614    18099.786    43419.636    44299.715   -33419.994    14.919242     12.92044    28.563015    5505.8973 
   49000       48.911    491.22654    20.191732    -431.9455   -411.75377    17821.987    44440.669     44820.46   -35795.168    14.919647    12.920791    28.561266    5505.8592 
   49500       49.411    458.46788    18.845197   -430.59523   -411.75004    18192.296     45812.88    43190.136   -34426.128    14.920053    12.921142    28.559517    5505.8211 
   50000       49.911    473.73003    19.472543   -431.21969   -411.74715    18074.345    45021.713    43857.829   -34656.507    14.920458    12.921493    28.557767     5505.783 
   50500       50.411    491.66041    20.209566   -431.95423   -411.74467     17965.87    48638.107    42373.409   -37113.907    14.920863    12.921844    28.556018    5505.7449 
   51000       50.911    461.33269    18.962954   -430.70294   -411.73999    18710.192    46889.698    44854.368    -35613.49    14.921269    12.922195    28.554269    5505.7067 
   51500       51.411    469.33455    19.291868   -431.02829   -411.73642    18554.812    49233.139     45205.53   -38774.232    14.921674    12.922546     28.55252    5505.6685 
   52000       51.911    456.18044    18.751172   -430.48411   -411.73294    17706.546    43440.192     46742.86   -37063.415    14.922079    12.922897     28.55077    5505.6302 
   52500       52.411    481.84329    19.806037   -431.53492   -411.72889    18865.502    46299.965    43670.141   -33373.601    14.922484    12.923248    28.549021     5505.592 
   53000       52.911    465.57809     19.13746   -430.86264   -411.72518    18120.309    42442.404    45845.868   -33927.346     14.92289    12.923599    28.547272    5505.5537 
   53500       53.411    455.46701    18.721847   -430.44294   -411.72109    18489.105    46422.238    44172.935   -35127.858    14.923295     12.92395    28.545523    5505.5153 
   54000       53.911    483.36504    19.868587     -431.586   -411.71741    18436.654    47009.555     45260.14   -36959.732      14.9237      12.9243    28.543773     5505.477 
   54500       54.411    498.64072     20.49649   -432.21023   -411.71374    17664.979     45706.11    43658.176    -36369.35    14.924106    12.924651    28.542024    5505.4386 
   55000       54.911    469.32967    19.291668   -431.00086   -411.70919    18159.481    44700.387    45706.808   -35928.751    14.924511    12.925002    28.540275    5505.4002 
   55500       55.411    463.56011    19.054511   -430.75976   -411.70524    19091.331     48913.22    43954.371   -35593.597    14.924916    12.925353    28.538526    5505.3618 
   56000       55.911     463.5927    19.055851   -430.75646   -411.70061     19061.38    50757.975    42793.138   -36366.974    14.925322    12.925704    28.536776    5505.3233 
   56500       56.411    496.33368     20.40166   -432.09896    -411.6973    18210.285    47598.989    41995.711   -34963.844    14.925727    12.926055    28.535027    5505.2848 
   57000       56.911    489.55442       20.123   -431.81573   -411.69273    18160.948    43555.597    42274.601   -31347.353    14.926132    12.926406    28.533278    5505.2463 
   57500       57.411    509.33368    20.936021   -432.62511   -411.68909    16992.109    43300.142    42404.138   -34727.953    14.926537    12.926757    28.531529    5505.2077 
   58000       57.911    484.12837    19.899964   -431.58519   -411.68522    17732.836    45946.244    42659.329   -35407.065    14.926943    12.927108    28.529779    5505.1692 
   58500       58.411    462.35532    19.004989   -430.68545   -411.68046    18668.817    46316.352    43867.078   -34176.978    14.927348    12.927459     28.52803    5505.1305 
   59000       58.911    479.47448    19.708667   -431.38565   -411.67698     17932.16    46911.311    44747.462   -37862.292    14.927753     12.92781    28.526281    5505.0919 
   59500       59.411    472.46341    19.420479   -431.09299   -411.67251    19104.582    46259.736     45420.32   -34366.309    14.928159    12.928161    28.524532    5505.0532 
   60000       59.911    479.75972    19.720392   -431.38948   -411.66909     18159.73    48165.992    41987.554   -35674.357    14.928564    12.928512    28.522782    5505.0145 
   60500       60.411    483.64678    19.880169   -431.54481   -411.66464    19894.937    47293.763    42677.516   -30286.469    14.928969    12.928863    28.521033    5504.9758 
   61000       60.911    483.27764    19.864995   -431.52516   -411.66017    19206.584    45714.038    43566.472   -31660.757    14.929375    12.929214    28.519284    5504.9371 
   61500       61.411    490.37807    20.156856   -431.81254   -411.65568    18269.293     43806.41     45872.65   -34871.182     14.92978    12.929565    28.517535    5504.8983 
   62000       61.911    470.97877    19.359453   -431.01028   -411.65083    18003.333    43261.937    44506.025   -33757.963    14.930185    12.929916    28.515786    5504.8595 
   62500       62.411    452.08693     18.58291   -430.22897   -411.64606    19791.738    47772.868     46173.01   -34570.665     14.93059    12.930267    28.514036    5504.8207 
   63000       62.911    493.78702     20.29698   -431.94122   -411.64424     18535.46    45547.904    44422.062   -34363.586    14.930996    12.930618    28.512287    5504.7818 
   63500       63.411    457.47459    18.804368   -430.44453   -411.64016    18597.139    47106.615    44124.685   -35439.883    14.931401    12.930969    28.510538    5504.7429 
   64000       63.911    476.26088    19.576573   -431.21225   -411.63568    17411.138     45110.06    43204.187   -36080.834    14.931806     12.93132    28.508789     5504.704 
   64500       64.411    514.55463    21.150627   -432.78328   -411.63265    18856.656    45392.315    44522.063    -33344.41    14.932212    12.931671    28.507039     5504.665 
   65000       64.911    453.73078    18.650479    -430.2782   -411.62772      20216.9    47789.184     42067.92   -29206.405    14.932617    12.932022     28.50529     5504.626 
   65500       65.411    503.82638    20.709645   -432.33568   -411.62603    16495.827    44322.024    42017.764   -36852.306    14.933022    12.932373    28.503541     5504.587 
   66000       65.911    493.25238    20.275004   -431.89637   -411.62136      20081.1     46702.48     46450.87   -32910.051    14.933428    12.932724    28.501792     5504.548 
   66500       66.411    476.31479    19.578789   -431.19706   -411.61827    18395.874    46649.583    43628.721   -35090.682    14.933833    12.933075    28.500042    5504.5089 
   67000       66.911    480.90573    19.767498   -431.38288   -411.61538     18950.68    45786.233    43828.503   -32762.694    14.934238    12.933426    28.498293    5504.4698 
   67500       67.411     504.5061    20.737585   -432.35018    -411.6126    18655.532    44230.832    44478.964   -32743.199    14.934643    12.933777    28.496544    5504.4307 
   68000       67.911    459.21177    18.875774   -430.48334   -411.60757    18925.205    42651.555     46984.92   -32860.861    14.935049    12.934128    28.494795    5504.3916 
   68500       68.411    487.19648    20.026078   -431.63209   -411.60601    18115.772    43235.054    40316.106   -29203.845    14.935454    12.934479    28.493045    5504.3524 
   69000       68.911    504.39201    20.732895   -432.33579   -411.60289    18366.591    47207.484     42425.06   -34532.772    14.935859     12.93483    28.491296    5504.3132 
   69500       69.411    472.35238    19.415915   -431.01478   -411.59887    17764.562    45117.205     42454.77   -34278.289    14.936265    12.935181    28.489547    5504.2739 
   70000       69.911    493.86726    20.300278   -431.89512   -411.59485    17715.245    45840.736    42158.115   -34853.117     14.93667    12.935532    28.487798    5504.2347 
   70500       70.411    471.31698    19.373356   -430.96477   -411.59141    18876.743    45024.973    41893.399   -30288.142    14.937075    12.935883    28.486048    5504.1954 
   71000       70.911    454.07227    18.664516   -430.25281   -411.58829    20016.283    45455.571    43355.194   -28761.917    14.937481    12.936234    28.484299    5504.1561 
   71500       71.411    487.92683    20.056099   -431.64283   -411.58673    18215.665    47702.121    42224.379   -35279.505    14.937886    12.936584     28.48255    5504.1167 
   72000       71.911     498.3996    20.486579   -432.07034   -411.58377    17594.522    44194.238    40820.135   -32230.808    14.938291    12.936935    28.480801    5504.0773 
   72500       72.411    473.55042     19.46516    -431.0462   -411.58104    19334.159    42890.393    46364.488   -31252.405    14.938696    12.937286    28.479051    5504.0379 
   73000       72.911    499.54836    20.533799   -432.11342   -411.57962    17953.249    43653.627    43873.147   -33667.028    14.939102    12.937637    28.477302    5503.9985 
   73500       73.411    484.32841    19.908186   -431.48468   -411.57649    18181.748    45279.982    41061.559   -31796.296    14.939507    12.937988    28.475553     5503.959 
   74000       73.911    478.22702     19.65739   -431.23114   -411.57375    19393.862    45328.994    41518.798   -28666.207    14.939912    12.938339    28.473804    5503.9195 
   74500       74.411    488.81008    20.092404   -431.66433   -411.57193     18659.81    44984.385    41176.351   -30181.306    14.940318     12.93869    28.472055      5503.88 
   75000       74.911    485.16923    19.942749   -431.51173   -411.56898    16064.202    45403.556    39292.369    -36503.32    14.940723    12.939041    28.470305    5503.8404 
   75500       75.411    465.16566    19.120507   -430.68652   -411.56601    18928.408     45519.81    43867.147   -32601.733    14.941128    12.939392    28.468556    5503.8009 
   76000       75.911    481.52105    19.792791   -431.35701   -411.56422    17812.757    44882.442    42858.763   -34302.934    14.941534    12.939743    28.466807    5503.7613 
   76500       76.411    509.62897    20.948159   -432.51143   -411.56327     18080.88    43445.928    44286.411   -33489.699    14.941939    12.940094    28.465058    5503.7216 
   77000       76.911    510.89337    21.000132   -432.56138   -411.56125    18476.401    43575.035    42608.134   -30753.966    14.942344    12.940445    28.463308     5503.682 
   77500       77.411    482.93016    19.850712   -431.41004   -411.55933    19389.496    45560.775    41360.248   -28752.534    14.942749    12.940796    28.461559    5503.6423 
   78000       77.911     500.0833    20.555787   -432.11224   -411.55645    19208.311    45828.738    42039.352   -30243.156    14.943155    12.941147     28.45981    5503.6025 
   78500       78.411    487.37677    20.033489   -431.58873   -411.55524    19001.813    46059.372    42910.779   -31964.712     14.94356    12.941498    28.458061    5503.5628 
   79000       78.911    488.98053    20.099411    -431.6525   -411.55309    17718.927    39726.786    45553.526   -32123.531    14.943965    12.941849    28.456311     5503.523 
   79500       79.411    501.94863    20.632461   -432.18537   -411.55291    18019.867    43677.246    43507.713   -33125.359    14.944371      12.9422    28.454562    5503.4832 
   80000       79.911    494.00037     20.30575   -431.85695    -411.5512    18966.694    44280.606    46117.577   -33498.101    14.944776    12.942551    28.452813    5503.4434 
   80500       80.411    459.84557    18.901826   -430.44929   -411.54746    19025.387    43286.238    44644.387   -30854.465    14.945181    12.942902    28.451064    5503.4035 
   81000       80.911    469.25844     19.28874   -430.83534   -411.54661    19121.555    42928.735    45371.683   -30935.752    14.945587    12.943253    28.449314    5503.3636 
   81500       81.411    469.31645    19.291124   -430.83587   -411.54474    19631.561    44789.553    44237.402   -30132.273    14.945992    12.943604    28.447565    5503.3237 
   82000       81.911     501.3118    20.606284   -432.15011   -411.54383    19620.543    44149.825    43306.794    -28594.99    14.946397    12.943955    28.445816    5503.2837 
   82500       82.411     482.3868    19.828377   -431.37048    -411.5421    18357.889    46516.189     42120.88   -33563.403    14.946802    12.944306    28.444067    5503.2437 
   83000       82.911    491.17172    20.189479   -431.72984   -411.54036    17923.875    44340.892    41095.764   -31665.031    14.947208    12.944657    28.442317    5503.2037 
   83500       83.411    488.84852    20.093984   -431.63292   -411.53894     18469.13    46938.218    39863.065   -31393.892    14.947613    12.945008    28.440568    5503.1637 
   84000       83.911    493.19908    20.272813   -431.81141   -411.53859    18484.618    45650.329    39597.275   -29793.751    14.948018    12.945359    28.438819    5503.1236 
   84500       84.411    480.20058    19.738513   -431.27562   -411.53711    17565.684    44716.548    43010.862   -35030.358    14.948424     12.94571     28.43707    5503.0835 
   85000       84.911    485.07732     19.93897   -431.47526   -411.53629    17830.133    43490.155     40954.33   -30954.086    14.948829    12.946061     28.43532    5503.0434 
   85500       85.411    494.09348    20.309577   -431.84507   -411.53549     18408.26    45428.718    40654.015   -30857.952    14.949234    12.946412    28.433571    5503.0033 
   86000       85.911    514.21391    21.136622   -432.67219   -411.53557    17369.341    43586.272    41390.789   -32869.039     14.94964    12.946763    28.431822    5502.9631 
   86500       86.411    480.64447    19.756759   -431.29128   -411.53452    18562.158     46618.24    41996.104    -32927.87    14.950045    12.947114    28.430073    5502.9229 
   87000       86.911    505.30001    20.770219   -432.30446   -411.53424    18374.182     40422.04    43195.411   -28494.906     14.95045    12.947465    28.428324    5502.8826 
   87500       87.411    475.11431    19.529444    -431.0625   -411.53305    18974.053    43074.019      42835.4   -28987.261    14.950855    12.947816    28.426574    5502.8424 
   88000       87.911     482.5456    19.834905   -431.36751   -411.53261    18868.658    44482.353    42345.412   -30221.791    14.951261    12.948167    28.424825    5502.8021 
   88500       88.411    503.71211    20.704949    -432.2376   -411.53266    17100.078    43417.464     40635.96   -32753.189    14.951666    12.948517    28.423076    5502.7618 
   89000       88.911    480.58016    19.754116   -431.28589   -411.53177    18437.888    47123.349      41276.4   -33086.087    14.952071    12.948868    28.421327    5502.7214 
   89500       89.411    508.90211    20.918282   -432.45033   -411.53205    19455.376    43673.711    38796.541   -24104.123    14.952477    12.949219    28.419577     5502.681 
   90000       89.911    462.85218    19.025412   -430.55538   -411.52997    16021.287     42226.29    38418.351   -32580.782    14.952882     12.94957    28.417828    5502.6406 
   90500       90.411    479.82792    19.723195   -431.25397   -411.53077    16656.052    41214.645     39886.21   -31132.698    14.953287    12.949921    28.416079    5502.6002 
   91000       90.911    489.59961    20.124858   -431.65467   -411.52981     19108.61    45688.374    42577.615    -30940.16    14.953693    12.950272     28.41433    5502.5597 
   91500       91.411    503.68784    20.703951   -432.23384   -411.52989    18215.734    45048.874    39662.078    -30063.75    14.954098    12.950623     28.41258    5502.5192 
   92000       91.911     490.9648    20.180974   -431.71017    -411.5292    18247.159    45336.902    42350.161   -32945.586    14.954503    12.950974    28.410831    5502.4787 
   92500       92.411    507.44806    20.858514   -432.38832    -411.5298    17122.823    44963.439    38681.256   -32276.226    14.954908    12.951325    28.409082    5502.4381 
   93000       92.911    490.92669    20.179407   -431.70864   -411.52923     17969.23    43140.865    41858.898   -31092.075    14.955314    12.951676    28.407333    5502.3975 
   93500       93.411    469.88413    19.314458   -430.84243   -411.52797    19155.066    41332.683     43159.31   -27026.795    14.955719    12.952027    28.405583    5502.3569 
   94000       93.911    454.45471    18.680236   -430.20776   -411.52752    19218.692    45814.387    44145.607   -32303.919    14.956124    12.952378    28.403834    5502.3163 
   94500       94.411    488.60286    20.083887   -431.61209    -411.5282    18237.037    44855.586    42859.261   -33003.735     14.95653    12.952729    28.402085    5502.2756 
   95000       94.911    497.35494    20.443638    -431.9726   -411.52897    19284.164    44069.851    42989.772   -29207.131    14.956935     12.95308    28.400336    5502.2349 
   95500       95.411    503.07128    20.678607   -432.20604   -411.52743    18436.292    42457.675    40216.347   -27365.147     14.95734    12.953431    28.398586    5502.1942 
   96000       95.911    484.14859    19.900795   -431.42825   -411.52746    16985.896    42581.454    43073.735     -34697.5    14.957746    12.953782    28.396837    5502.1535 
   96500       96.411     495.0615    20.349367   -431.87623   -411.52686    18825.909    40813.558     44757.48   -29093.312    14.958151    12.954133    28.395088    5502.1127 
   97000       96.911    490.54074    20.163543   -431.69039   -411.52685    17323.649    41247.125    45899.898   -35176.074    14.958556    12.954484    28.393339    5502.0719 
   97500       97.411    493.91312    20.302164   -431.82889   -411.52673    18982.153    45857.039    43138.164   -32048.745    14.958961    12.954835    28.391589     5502.031 
   98000       97.911    482.40781    19.829241   -431.35623   -411.52698    17905.348    40174.534    42694.208   -29152.697    14.959367    12.955186     28.38984    5501.9902 
   98500       98.411    508.77836    20.913195   -432.44119     -411.528     17189.35    45346.076     40986.27   -34764.298    14.959772    12.955537    28.388091    5501.9493 
   99000       98.911    507.68251    20.868151   -432.39603   -411.52787    18402.921    41975.991    40963.771       -27731    14.960177    12.955888    28.386342    5501.9083 
   99500       99.411    477.09414    19.610824     -431.138   -411.52718    19350.086    40469.149    41912.624   -24331.513    14.960583    12.956239    28.384593    5501.8674 
  100000       99.911    505.11923    20.762788   -432.29012   -411.52733    17611.985    44202.125    39616.974   -30983.144    14.960988     12.95659    28.382843    5501.8264 
  100500      100.411    478.08714    19.651641   -431.17918   -411.52754    19117.774    44659.952    44998.527   -32305.156    14.961393    12.956941    28.381094    5501.7854 
  101000      100.911     475.3931    19.540903   -431.06766   -411.52676    20299.282    45791.259    42239.672   -27133.084    14.961799    12.957292    28.379345    5501.7443 
  101500      101.411     511.2784    21.015959   -432.54343   -411.52747    18769.831    44682.121    42507.218   -30879.846    14.962204    12.957643    28.377596    5501.7033 
  102000      101.911    502.64255    20.660984   -432.18799   -411.52701     17023.01    41088.149    43437.701    -33456.82    14.962609    12.957994    28.375846    5501.6622 
  102500      102.411    490.45571    20.160047   -431.68681   -411.52676    17630.796    41092.282    43426.214   -31626.107    14.963014    12.958345    28.374097    5501.6211 
  103000      102.911     519.1738    21.340497   -432.86767   -411.52717    18477.133    44377.316     39970.62   -28916.538     14.96342    12.958696    28.372348    5501.5799 
  103500      103.411    474.11436    19.488341    -431.0147   -411.52636    18374.756     42046.73    41756.303   -28678.767    14.963825    12.959047    28.370599    5501.5387 
  104000      103.911    487.25762    20.028591   -431.55487   -411.52628    19478.761    42643.094    41970.289     -26177.1     14.96423    12.959398    28.368849    5501.4975 
  104500      104.411    512.72137    21.075272   -432.60174   -411.52647    18805.484    41358.273    42165.134   -27106.955    14.964636    12.959749      28.3671    5501.4563 
  105000      104.911    479.47232    19.708578   -431.23398    -411.5254    17784.467    42225.623    41699.778       -30572    14.965041      12.9601    28.365351     5501.415 
  105500      105.411    516.76876    21.241638   -432.76673    -411.5251    18733.257    44472.146    43815.531   -32087.907    14.965446    12.960451    28.363602    5501.3737 
  106000      105.911    476.70886    19.594987   -431.12048   -411.52549    18479.686    42174.181    44490.695   -31225.817    14.965852    12.960801    28.361852    5501.3324 
  106500      106.411    499.21077    20.519922    -432.0457   -411.52578    17765.007     39809.48    38505.561   -25020.019    14.966257    12.961152    28.360103     5501.291 
  107000      106.911    494.81397    20.339193   -431.86357   -411.52438    19240.336    45422.397    42284.808   -29986.196    14.966662    12.961503    28.358354    5501.2496 
  107500      107.411    486.42307    19.994287    -431.5183   -411.52401    18173.465    43551.304    41955.333   -30986.244    14.967067    12.961854    28.356605    5501.2082 
  108000      107.911    492.14001     20.22928   -431.75216   -411.52288    17011.135    44634.767    38204.519   -31805.881    14.967473    12.962205    28.354855    5501.1668 
  108500      108.411    498.28523    20.481878   -432.00385   -411.52197    18590.272    43600.927    41792.041   -29622.151    14.967878    12.962556    28.353106    5501.1253 
  109000      108.911      506.018    20.799731   -432.32201   -411.52228    17992.062    41011.979    42511.559   -29547.352    14.968283    12.962907    28.351357    5501.0838 
  109500      109.411    503.29378    20.687753   -432.20908   -411.52133    17187.302    38540.067    42948.394   -29926.555    14.968689    12.963258    28.349608    5501.0423 
  110000      109.911    509.03982    20.923942   -432.44417   -411.52022    18079.149     44953.06    40673.624   -31389.237    14.969094    12.963609    28.347858    5501.0007 
  110500      110.411    482.89673    19.849338   -431.36816   -411.51882    18276.598    41512.644    41437.248   -28120.099    14.969499     12.96396    28.346109    5500.9591 
  111000      110.911      478.871    19.683861   -431.20226    -411.5184    19919.843    43363.411    45554.346   -29158.229    14.969905    12.964311     28.34436    5500.9175 
  111500      111.411    483.57933    19.877396   -431.39478   -411.51738    18224.136    41972.391     42947.54   -30247.524     14.97031    12.964662    28.342611    5500.8759 
  112000      111.911    507.56068    20.863143   -432.38015   -411.51701    16548.696     42290.18    39699.619    -32343.71    14.970715    12.965013    28.340862    5500.8342 
  112500      112.411    509.27135    20.933459   -432.44919   -411.51573    18380.826    41945.077    38963.416   -25766.014     14.97112    12.965364    28.339112    5500.7925 
  113000      112.911    490.47888       20.161   -431.67703   -411.51603    17957.204    42860.984    41414.836   -30404.209    14.971526    12.965715    28.337363    5500.7508 
  113500      113.411     480.3672    19.745362   -431.25952   -411.51416    18740.316    43793.281    39641.298    -27213.63    14.971931    12.966066    28.335614     5500.709 
  114000      113.911    484.59544    19.919163   -431.43344   -411.51428    19170.058     45007.87    40222.483    -27720.18    14.972336    12.966417    28.333865    5500.6672 
  114500      114.411     507.0867     20.84366    -432.3563   -411.51264    18069.153    42354.976    40412.218   -28559.736    14.972742    12.966768    28.332115    5500.6254 
  115000      114.911    511.44123    21.022652    -432.5344   -411.51174    17838.588    43527.216    37606.627   -27618.078    14.973147    12.967119    28.330366    5500.5836 
  115500      115.411    507.26131    20.850837   -432.36052   -411.50969    17649.667    42181.608    39538.994   -28771.602    14.973552     12.96747    28.328617    5500.5417 
  116000      115.911    489.33738    20.114079   -431.62231   -411.50823     18759.02    41792.138    38321.306   -23836.383    14.973958    12.967821    28.326868    5500.4998 
  116500      116.411    463.71634    19.060933   -430.56705   -411.50611     18284.86    41377.497    40995.859   -27518.775    14.974363    12.968172    28.325118    5500.4579 
  117000      116.911    503.23334    20.685269   -432.19039   -411.50512    18186.466    42597.117    41807.537   -29845.255    14.974768    12.968523    28.323369    5500.4159 
  117500      117.411    532.51562    21.888909   -433.39359   -411.50468    16687.599    40323.523    40718.181   -30978.908    14.975173    12.968874     28.32162    5500.3739 
  118000      117.911    516.53762    21.232138   -432.73517   -411.50303     17396.36    41507.558    38570.021   -27888.499    14.975579    12.969225    28.319871    5500.3319 
  118500      118.411     502.3471     20.64884   -432.15151   -411.50267    18109.091    43038.642     39498.28   -28209.651    14.975984    12.969576    28.318121    5500.2899 
  119000      118.911    498.03252    20.471491   -431.97229    -411.5008    16798.923    38727.476     38063.24   -26393.946    14.976389    12.969927    28.316372    5500.2478 
  119500      119.411    501.13438    20.598991   -432.09798   -411.49899    18075.125    42470.825    40293.631   -28539.082    14.976795    12.970278    28.314623    5500.2057 
  120000      119.911    496.31335    20.400824   -431.89884   -411.49802     19236.21     43511.94    43345.337   -29148.648      14.9772    12.970629    28.312874    5500.1636 
  120500      120.411    484.96419     19.93432   -431.43075   -411.49643    17657.356    39987.804    40235.757   -27251.493    14.977605     12.97098    28.311124    5500.1214 
  121000      120.911    474.56012    19.506664   -431.00066     -411.494    18884.528    44947.474    39199.298   -27493.188    14.978011    12.971331    28.309375    5500.0792 
  121500      121.411    471.67665    19.388139   -430.87974    -411.4916    18970.552    43489.997     41019.91   -27598.252    14.978416    12.971682    28.307626     5500.037 
  122000      121.911    476.16186    19.572503   -431.06217   -411.48967    19415.837     44652.46    39656.367   -26061.316    14.978821    12.972033    28.305877    5499.9948 
  122500      122.411    500.16013    20.558945   -432.04658   -411.48764    18838.513    43096.649    41480.516   -28061.626    14.979226    12.972384    28.304127    5499.9525 
  123000      122.911    535.62411    22.016683   -433.50315   -411.48647    17976.697    40883.529    40820.468   -27773.907    14.979632    12.972734    28.302378    5499.9102 
  123500      123.411    492.44732    20.241912   -431.72435   -411.48244    17501.765    40736.562    41161.228   -29392.495    14.980037    12.973085    28.300629    5499.8679 
  124000      123.911    500.57234    20.575889   -432.05705   -411.48117    18526.163    43426.516    39439.817   -27287.845    14.980442    12.973436     28.29888    5499.8255 
  124500      124.411    512.36852    21.060768   -432.53999   -411.47922    20066.361    42414.795    42308.588   -24524.301    14.980848    12.973787    28.297131    5499.7831 
  125000      124.911    493.86795    20.300307   -431.77774   -411.47743    17674.196    43033.889    41109.654   -31120.955    14.981253    12.974138    28.295381    5499.7407 
  125500      125.411    524.23567    21.548564   -433.02485   -411.47629    17737.659     40944.84    43532.739   -31264.602    14.981658    12.974489    28.293632    5499.6982 
  126000      125.911    482.06558    19.815174   -431.28866   -411.47348    18422.679    39715.466    38799.626   -23247.055    14.982064     12.97484    28.291883    5499.6558 
  126500      126.411     546.8783    22.479283    -433.9512   -411.47192    16786.214    38800.469    41016.567   -29458.394    14.982469    12.975191    28.290134    5499.6133 
  127000      126.911    533.07746    21.912003   -433.38165   -411.46965    17327.001    38212.096    43080.799   -29311.892    14.982874    12.975542    28.288384    5499.5707 
  127500      127.411    522.19295    21.464598    -432.9339    -411.4693    16847.946    43277.528    39387.909   -32121.599    14.983279    12.975893    28.286635    5499.5282 
  128000      127.911    510.71847    20.992943   -432.45817   -411.46523    18199.041    40310.792    40266.599   -25980.268    14.983685    12.976244    28.284886    5499.4856 
  128500      128.411    517.30211    21.263561   -432.72557   -411.46201    17993.282    42114.618    41842.401   -29977.173     14.98409    12.976595    28.283137     5499.443 
  129000      128.911    496.74178    20.418435   -431.87731   -411.45887    18080.356    40602.488    38258.728   -24620.146    14.984495    12.976946    28.281387    5499.4003 
  129500      129.411    475.52262    19.546227   -431.00333    -411.4571    19709.419    44095.322    39409.558   -24376.623    14.984901    12.977297    28.279638    5499.3576 
  130000      129.911    511.16932    21.011475   -432.46587   -411.45439    18168.356    39898.411    41458.885   -26852.228    14.985306    12.977648    28.277889    5499.3149 
  130500      130.411    534.25355    21.960346   -433.41259   -411.45224    17289.853    41865.945    37731.636   -27728.023    14.985711    12.977999     28.27614    5499.2722 
  131000      130.911    482.15351    19.818788   -431.26696   -411.44818    17013.414    42137.669    39532.213   -30629.639    14.986117     12.97835     28.27439    5499.2294 
  131500      131.411    509.94125    20.960996   -432.40679   -411.44579    18869.086    43753.017    40033.662   -27179.421    14.986522    12.978701    28.272641    5499.1866 
  132000      131.911     487.6699    20.045538   -431.48872   -411.44318    16616.796    40289.248    39314.309   -29753.169    14.986927    12.979052    28.270892    5499.1438 
  132500      132.411    493.92459    20.302635   -431.74327   -411.44063    18668.645    39861.988    40025.995   -23882.047    14.987332    12.979403    28.269143     5499.101 
  133000      132.911    507.12114    20.845075   -432.28276   -411.43768    16490.639    39852.899     39029.36   -29410.343    14.987738    12.979754    28.267393    5499.0581 
  133500      133.411    525.70612    21.609006   -433.04439   -411.43539    17430.765    40728.063    37879.847   -26315.616    14.988143    12.980105    28.265644    5499.0152 
  134000      133.911     541.7101    22.266845   -433.69945    -411.4326     16308.88    40797.691    39117.817    -30988.87    14.988548    12.980456    28.263895    5498.9723 
  134500      134.411    511.31602    21.017505   -432.44622   -411.42872    16509.354    39043.644     38941.35   -28456.932    14.988954    12.980807    28.262146    5498.9293 
  135000      134.911    486.93987     20.01553   -431.44084   -411.42531    18218.054    40465.723    36635.309   -22446.871    14.989359    12.981158    28.260396    5498.8863 
  135500      135.411    505.37348    20.773239   -432.19416   -411.42092    17272.909    39933.871     38997.96   -27113.105    14.989764    12.981509    28.258647    5498.8433 
  136000      135.911    520.84449     21.40917   -432.82728   -411.41811    17789.341    41744.237     38863.62   -27239.834     14.99017     12.98186    28.256898    5498.8002 
  136500      136.411    497.39494    20.445283   -431.85883   -411.41355    16082.772    38987.496    40605.775   -31344.956    14.990575    12.982211    28.255149    5498.7571 
  137000      136.911    511.37536    21.019944   -432.42925    -411.4093    18199.507    39207.664     41520.65   -26129.794     14.99098    12.982562      28.2534     5498.714 
  137500      137.411    488.69129    20.087522   -431.49338   -411.40586    17465.657    39230.058    39564.536   -26397.623    14.991385    12.982913     28.25165    5498.6709 
  138000      137.911    498.66708    20.497574   -431.89949   -411.40191    16051.516    42314.986    34198.121   -28358.559    14.991791    12.983264    28.249901    5498.6277 
  138500      138.411    527.22483    21.671432   -433.07054    -411.3991    16377.574     39844.79    35974.578   -26686.644    14.992196    12.983615    28.248152    5498.5845 
  139000      138.911    504.49336    20.737062   -432.13176    -411.3947    17535.155    38935.999     38222.06   -24552.595    14.992601    12.983966    28.246403    5498.5413 
  139500      139.411    504.44214    20.734956   -432.12452   -411.38956    19393.699    44530.378    42225.212   -28574.494    14.993007    12.984317    28.244653    5498.4981 
  140000      139.911    533.05891    21.911241   -433.29736   -411.38612    16429.212    39491.947     38758.95   -28963.262    14.993412    12.984667    28.242904    5498.4548 
  140500      140.411    494.15564    20.312132   -431.69377   -411.38164    18120.989    40557.572    39366.631   -25561.238    14.993817    12.985018    28.241155    5498.4115 
  141000      140.911    510.88636    20.999844   -432.37752   -411.37767    17360.976     36727.52    40420.384   -25064.978    14.994223    12.985369    28.239406    5498.3681 
  141500      141.411    513.06549    21.089417   -432.46303   -411.37361    18248.397    42922.111    38439.196   -26616.116    14.994628     12.98572    28.237656    5498.3248 
  142000      141.911    534.21349    21.958699   -433.32837   -411.36967    16559.632    36998.138    38204.093   -25523.336    14.995033    12.986071    28.235907    5498.2814 
  142500      142.411    520.82742    21.408468   -432.77332   -411.36485    17362.426    36330.727    38551.365   -22794.813    14.995438    12.986422    28.234158    5498.2379 
  143000      142.911    508.30613    20.893784   -432.25396   -411.36018    19176.012    39841.469     40988.81   -23302.245    14.995844    12.986773    28.232409    5498.1945 
  143500      143.411    495.52907    20.368587   -431.72472   -411.35613    18929.834    38850.234    42237.017   -24297.748    14.996249    12.987124    28.230659     5498.151 
  144000      143.911    501.26314    20.604284   -431.95629   -411.35201    17621.603    42321.183    36975.604   -26431.979    14.996654    12.987475     28.22891    5498.1075 
  144500      144.411    514.65706    21.154837   -432.50202   -411.34718    18513.607    40515.439    38199.273   -23173.891     14.99706    12.987826    28.227161     5498.064 
  145000      144.911     520.9912    21.415201   -432.75811   -411.34291    18927.005    41211.802    39974.154   -24404.942    14.997465    12.988177    28.225412    5498.0204 
  145500      145.411    490.20896    20.149905    -431.4878    -411.3379    19107.879    41537.487    42112.002   -26325.852     14.99787    12.988528    28.223662    5497.9768 
  146000      145.911    498.92507    20.508178   -431.84027   -411.33209    17621.464    41936.553    38971.968    -28044.13    14.998276    12.988879    28.221913    5497.9332 
  146500      146.411    524.32743    21.552336   -432.88019   -411.32786    17692.968    36633.821    42589.563   -26144.479    14.998681     12.98923    28.220164    5497.8895 
  147000      146.911    513.10223    21.090927   -432.41424   -411.32332    17696.995    38665.781    39675.801   -25250.596    14.999086    12.989581    28.218415    5497.8458 
  147500      147.411    499.94029    20.549909   -431.86651    -411.3166    18990.873    38096.555    41907.485   -23031.421    14.999491    12.989932    28.216665    5497.8021 
  148000      147.911    501.93197    20.631776   -431.94421   -411.31243    18311.937     39098.32     36579.57   -20742.079    14.999897    12.990283    28.214916    5497.7584 
  148500      148.411    508.42034    20.898479   -432.20659   -411.30811    17588.514    41938.891    36303.485   -25476.836    15.000302    12.990634    28.213167    5497.7146 
  149000      148.911    518.35481    21.306833   -432.60979   -411.30296    17333.457    40721.371    36115.148   -24836.147    15.000707    12.990985    28.211418    5497.6708 
  149500      149.411    512.75068    21.076476   -432.37392   -411.29744    17672.037    38826.732    40829.621   -26640.242    15.001113    12.991336    28.209669     5497.627 
  150000      149.911     511.0583    21.006912   -432.29905   -411.29214    18197.264    38515.729    41206.115   -25130.053    15.001518    12.991687    28.207919    5497.5831 
  150500      150.411    494.89191    20.342396   -431.62903   -411.28663    19769.885    44069.006    42186.646   -26945.998    15.001923    12.992038     28.20617    5497.5392 
  151000      150.911    500.53115    20.574196   -431.85574   -411.28154    18290.125    38524.528    41085.043   -24739.197    15.002329    12.992389    28.204421    5497.4953 
  151500      151.411     520.1634    21.381174   -432.65835   -411.27717    18517.314    42745.427    37445.298   -24638.781    15.002734     12.99274    28.202672    5497.4514 
  152000      151.911    525.43615    21.597909   -432.86914   -411.27123    18967.694    42359.202    38101.825   -23557.945    15.003139    12.993091    28.200922    5497.4074 
  152500      152.411    522.85267    21.491716    -432.7585   -411.26678    17176.934    36964.178    40106.078   -25539.456    15.003544    12.993442    28.199173    5497.3634 
  153000      152.911    520.96022    21.413927   -432.67545   -411.26152    17938.963    39684.282    40538.292   -26405.684     15.00395    12.993793    28.197424    5497.3194 
  153500      153.411    537.55366    22.095996   -433.35341   -411.25742    16730.746     39114.38    37508.769   -26430.911    15.004355    12.994144    28.195675    5497.2753 
  154000      153.911     536.8282    22.066176   -433.31736   -411.25118    17500.688     37994.21    37091.695    -22583.84     15.00476    12.994495    28.193925    5497.2312 
  154500      154.411    504.31346    20.729667   -431.97403   -411.24437    19870.985    40727.735    39467.541   -20582.322    15.005166    12.994846    28.192176    5497.1871 
  155000      154.911    544.21945    22.369992   -433.60973   -411.23974    16074.085    38978.796    37548.524   -28305.066    15.005571    12.995197    28.190427     5497.143 
  155500      155.411    501.24316    20.603463   -431.83686    -411.2334    17788.128    40877.031    38148.178   -25660.826    15.005976    12.995548    28.188678    5497.0988 
  156000      155.911    532.47683    21.887314   -433.11469   -411.22738    16697.566     36520.35    38032.331   -24459.981    15.006382    12.995899    28.186928    5497.0546 
  156500      156.411    505.20974    20.766508   -431.98695   -411.22044    18856.818     41163.24    39016.636   -23609.421    15.006787     12.99625    28.185179    5497.0104 
  157000      156.911    509.63444    20.948384   -432.16383   -411.21545    18230.307    39452.534    39771.693   -24533.306    15.007192    12.996601     28.18343    5496.9661 
  157500      157.411    512.70983    21.074797   -432.28398   -411.20918     18178.55    41578.924    38926.658   -25969.932    15.007597    12.996951    28.181681    5496.9218 
  158000      157.911     530.5017    21.806127   -433.00963   -411.20351    18085.274    40571.132    40754.999   -27070.309    15.008003    12.997302    28.179931    5496.8775 
  158500      158.411     517.7779    21.283119   -432.48075   -411.19763    18107.757    41443.802    37891.118   -25011.648    15.008408    12.997653    28.178182    5496.8331 
  159000      158.911    522.62858    21.482505   -432.67409   -411.19159    17344.699     41467.01    36621.578    -26054.49    15.008813    12.998004    28.176433    5496.7888 
  159500      159.411    536.15229    22.038393   -433.22417   -411.18577    18218.549    41304.046    36715.719   -23364.119    15.009219    12.998355    28.174684    5496.7444 
  160000      159.911    483.51373      19.8747   -431.05356   -411.17886     19953.06    44336.739    40382.893   -24860.452    15.009624    12.998706    28.172934    5496.6999 
  160500      160.411    510.42552    20.980901   -432.15476   -411.17386    17164.949    38187.176    39788.418   -26480.748    15.010029    12.999057    28.171185    5496.6555 
  161000      160.911    540.82022    22.230267   -433.39806   -411.16779    17458.885    39634.995    38003.927   -25262.267    15.010435    12.999408    28.169436     5496.611 
  161500      161.411    504.07558    20.719889   -431.88142   -411.16153      17952.8    39272.223     37337.56   -22751.384     15.01084    12.999759    28.167687    5496.5665 
  162000      161.911    536.49608    22.052524   -433.20758   -411.15505    17637.376    38517.737    38545.193   -24150.801    15.011245     13.00011    28.165938    5496.5219 
  162500      162.411    515.82941    21.203027   -432.35334   -411.15032    18886.855    41839.614    36196.601   -21375.649     15.01165    13.000461    28.164188    5496.4773 
  163000      162.911    517.31932    21.264269   -432.40849   -411.14422    17052.134    37704.768    38763.029   -25311.395    15.012056    13.000812    28.162439    5496.4327 
  163500      163.411    486.38145    19.992576   -431.13182   -411.13925    17911.425    40489.099    39579.856   -26334.679    15.012461    13.001163     28.16069    5496.3881 
  164000      163.911    541.05826    22.240052    -433.3731   -411.13305    19011.656    36986.444    41665.808   -21617.285    15.012866    13.001514    28.158941    5496.3434 
  164500      164.411    539.64643    22.182019    -433.3087   -411.12668    16870.138    38660.968    35337.138   -23387.693    15.013272    13.001865    28.157191    5496.2987 
  165000      164.911    531.28994    21.838528   -432.95822   -411.11969    18203.239    40166.774     39657.83   -25214.889    15.013677    13.002216    28.155442     5496.254 
  165500      165.411    527.92988    21.700413   -432.81468   -411.11426     17119.68    38079.423    35073.478   -21793.861    15.014082    13.002567    28.153693    5496.2093 
  166000      165.911    529.03457    21.745821   -432.85313    -411.1073    18084.642    40282.211    38228.704    -24256.99    15.014488    13.002918    28.151944    5496.1645 
  166500      166.411     526.4872    21.641112   -432.74136   -411.10025    17110.125    39198.945    40407.145   -28275.713    15.014893    13.003269    28.150194    5496.1197 
  167000      166.911    503.93373    20.714058   -431.80755   -411.09349    17448.514    40166.902    36648.073   -24469.433    15.015298     13.00362    28.148445    5496.0748 
  167500      167.411    527.09896    21.666258    -432.7529   -411.08664    16857.964    36161.522     38810.32   -24397.952    15.015703    13.003971    28.146696      5496.03 
  168000      167.911    508.04754    20.883155   -431.96301   -411.07986    18344.431    36975.492    37670.621   -19612.821    15.016109    13.004322    28.144947    5495.9851 
  168500      168.411    508.88102    20.917415   -431.99135   -411.07394    19295.415    41137.726    39650.626   -22902.108    15.016514    13.004673    28.143197    5495.9402 
  169000      168.911    518.15423    21.298588   -432.36564   -411.06705     18544.08    41320.226     36381.55   -22069.536    15.016919    13.005024    28.141448    5495.8952 
  169500      169.411    527.92334    21.700144   -432.76078   -411.06064    17062.725    35625.796    40813.768   -25251.388    15.017325    13.005375    28.139699    5495.8502 
  170000      169.911    511.65217    21.031322   -432.08329   -411.05197    17096.521    36631.865    41206.649   -26548.949     15.01773    13.005726     28.13795    5495.8052 
  170500      170.411    523.34502    21.511954   -432.55781   -411.04585    18536.303    44440.696     35571.06   -24402.847    15.018135    13.006077      28.1362    5495.7602 
  171000      170.911    505.49718    20.778323   -431.81597   -411.03764    18752.248    38989.707    37238.918   -19971.879    15.018541    13.006428    28.134451    5495.7151 
  171500      171.411    548.47405    22.544876   -433.57699   -411.03211    17541.682    38433.095    36397.127   -22205.175    15.018946    13.006779    28.132702      5495.67 
  172000      171.911     521.4727    21.434993   -432.45954   -411.02455    17161.136    37680.024    38527.892   -24724.508    15.019351     13.00713    28.130953    5495.6249 
  172500      172.411    510.16664     20.97026   -431.98707   -411.01681    18572.938    41094.408    38712.255   -24087.849    15.019756    13.007481    28.129203    5495.5797 
  173000      172.911    497.52423    20.450597    -431.4607   -411.01011    17209.527     39360.56    38880.512   -26612.491    15.020162    13.007832    28.127454    5495.5345 
  173500      173.411    517.68786    21.279418   -432.28319   -411.00377     18345.37    40788.178    37479.967   -23232.035    15.020567    13.008183    28.125705    5495.4893 
  174000      173.911    521.37601    21.431018   -432.42751   -410.99649    16902.322    41327.846     35929.06    -26549.94    15.020972    13.008534    28.123956    5495.4441 
  174500      174.411     551.9581    22.688086   -433.67801   -410.98992    18382.214    39057.602    37469.046   -21380.006    15.021378    13.008884    28.122207    5495.3988 
  175000      174.911    526.41526    21.638155    -432.6208   -410.98264    18713.353    41676.259    37536.602   -23072.802    15.021783    13.009235    28.120457    5495.3535 
  175500      175.411    536.41293    22.049106   -433.02436   -410.97526    17343.345    38551.241    35841.836   -22363.043    15.022188    13.009586    28.118708    5495.3082 
  176000      175.911    535.52343    22.012544   -432.98146   -410.96891    18243.426    38261.384    36442.041   -19973.145    15.022594    13.009937    28.116959    5495.2628 
  176500      176.411    540.35668    22.211213   -433.17301    -410.9618    16742.277    36095.709    38287.722     -24156.6    15.022999    13.010288     28.11521    5495.2174 
  177000      176.911    486.84274    20.011537   -430.96507   -410.95353    18942.661    40242.169    38576.426   -21990.612    15.023404    13.010639     28.11346     5495.172 
  177500      177.411    524.31895    21.551987   -432.49891   -410.94693    16746.858    37226.391    34410.301   -21396.118    15.023809     13.01099    28.111711    5495.1266 
  178000      177.911    521.78141    21.447682   -432.38641   -410.93873    17936.028    37665.542    41145.454   -25002.913    15.024215    13.011341    28.109962    5495.0811 
  178500      178.411    529.49986    21.764947   -432.69632   -410.93138    17756.075    37152.645    37688.023   -21572.443     15.02462    13.011692    28.108213    5495.0356 
  179000      178.911    534.51583    21.971127   -432.89465   -410.92352    17672.043    34865.645    36500.552   -18350.067    15.025025    13.012043    28.106463    5494.9901 
  179500      179.411    509.50545    20.943082   -431.85932   -410.91623    18102.134    39185.029    37999.816   -22878.443    15.025431    13.012394    28.104714    5494.9445 
  180000      179.911    558.25736    22.947016   -433.85693   -410.90991     16924.95    38545.632    38380.893   -26151.676    15.025836    13.012745    28.102965    5494.8989 
  180500      180.411     534.5913    21.974229    -432.8759   -410.90167    17398.753    40117.319    40031.195   -27952.254    15.026241    13.013096    28.101216    5494.8533 
  181000      180.911    567.41936    23.323617   -434.21879   -410.89518    17127.697    34764.103    39447.792   -22828.804    15.026647    13.013447    28.099466    5494.8077 
  181500      181.411    515.09731    21.172934   -432.05953    -410.8866    17217.357    36031.381    41114.629    -25493.94    15.027052    13.013798    28.097717     5494.762 
  182000      181.911    532.33773    21.881596   -432.76093   -410.87933    17166.754    38407.668    33763.586   -20670.991    15.027457    13.014149    28.095968    5494.7163 
  182500      182.411    529.57219     21.76792   -432.63881   -410.87089    17822.813    40360.024    35174.639   -22066.224    15.027862      13.0145    28.094219    5494.6706 
  183000      182.911    500.78869    20.584782   -431.44801   -410.86323    20814.248    39151.634     38922.95    -15631.84    15.028268    13.014851    28.092469    5494.6248 
  183500      183.411    528.25321    21.713704   -432.56926   -410.85556    17774.519    38029.498    37034.557   -21740.497    15.028673    13.015202     28.09072     5494.579 
  184000      183.911    504.22575    20.726061   -431.57473   -410.84867    18485.347    37468.714    41206.946   -23219.617    15.029078    13.015553    28.088971    5494.5332 
  184500      184.411     500.6595    20.579472   -431.42118    -410.8417    18676.519    38536.726    38338.235   -20845.403    15.029484    13.015904    28.087222    5494.4873 
  185000      184.911    539.64738    22.182058   -433.01695    -410.8349    17825.512    35606.404    38205.656   -20335.525    15.029889    13.016255    28.085472    5494.4415 
  185500      185.411    553.99427    22.771783   -433.59873   -410.82695    19695.111    42825.137    37596.717    -21336.52    15.030294    13.016606    28.083723    5494.3956 
  186000      185.911    548.74702    22.556096   -433.37577   -410.81968    16957.877    34698.557     36319.08   -20144.006      15.0307    13.016957    28.081974    5494.3496 
  186500      186.411    532.85673     21.90293   -432.71362   -410.81069     18320.07    37334.963    40446.614   -22821.366    15.031105    13.017308    28.080225    5494.3037 
  187000      186.911    506.31609    20.811984   -431.61419   -410.80221     17452.42    38407.725    40203.034     -26253.5     15.03151    13.017659    28.078476    5494.2577 
  187500      187.411    524.95683    21.578207   -432.37284   -410.79463    19246.102    41891.705    35679.574   -19832.974    15.031915     13.01801    28.076726    5494.2116 
  188000      187.911    558.12949     22.94176   -433.72904   -410.78728    17032.801    36728.064    34293.694   -19923.354    15.032321    13.018361    28.074977    5494.1656 
  188500      188.411    505.98486    20.798369   -431.57612   -410.77775    18608.898    35696.902    37122.654   -16992.861    15.032726    13.018712    28.073228    5494.1195 
  189000      188.911    537.64385    22.099703   -432.87054   -410.77084     17815.01     42464.63    33298.693   -22318.293    15.033131    13.019063    28.071479    5494.0734 
  189500      189.411    521.61969    21.441034   -432.20346   -410.76243    18271.705    38265.197    37423.119     -20873.2    15.033537    13.019414    28.069729    5494.0273 
  190000      189.911    554.09613     22.77597   -433.53042   -410.75445     16696.74    34201.023     37203.54   -21314.342    15.033942    13.019765     28.06798    5493.9811 
  190500      190.411    499.49145    20.531459   -431.27839   -410.74693    18374.215    40388.972    35409.283   -20675.611    15.034347    13.020116    28.066231    5493.9349 
  191000      190.911    523.16129    21.504402   -432.24381   -410.73941    18982.236    39020.297    37189.679   -19263.267    15.034753    13.020467    28.064482    5493.8887 
  191500      191.411    569.30632     23.40118    -434.1339   -410.73272    16960.782      38159.6    37593.442   -24870.695    15.035158    13.020818    28.062732    5493.8424 
  192000      191.911     517.7491    21.281935   -432.00567   -410.72374     17510.72    35899.806    38121.843   -21489.491    15.035563    13.021168    28.060983    5493.7961 
  192500      192.411    526.21881     21.63008   -432.34661   -410.71653    18913.427    37845.383    39232.055   -20337.157    15.035968    13.021519    28.059234    5493.7498 
  193000      192.911    528.26544    21.714206   -432.42267   -410.70847    18184.559    39941.288    37773.232   -23160.844    15.036374     13.02187    28.057485    5493.7035 
  193500      193.411    529.38391    21.760181   -432.46047   -410.70029    16282.839    38313.183    31698.209   -21162.875    15.036779    13.022221    28.055735    5493.6571 
  194000      193.911    570.04018    23.431345   -434.12445   -410.69311     17325.48    32250.915    38263.037   -18537.512    15.037184    13.022572    28.053986    5493.6107 
  194500      194.411      529.658    21.771447   -432.45573   -410.68429    18094.615    37488.418    39277.372   -22481.945     15.03759    13.022923    28.052237    5493.5643 
  195000      194.911    545.40857     22.41887   -433.09445   -410.67558    16841.856    36640.507    35342.307   -21457.246    15.037995    13.023274    28.050488    5493.5178 
  195500      195.411    545.95264    22.441234   -433.10827   -410.66704    17454.799    38379.667    36227.313   -22242.584      15.0384    13.023625    28.048738    5493.4714 
  196000      195.911    531.48353    21.846485   -432.50484   -410.65835    16294.101    38912.746    35850.654   -25881.097    15.038806    13.023976    28.046989    5493.4248 
  196500      196.411    552.24577    22.699911   -433.35148   -410.65157    16116.256     41312.85    30182.057   -23146.139    15.039211    13.024327     28.04524    5493.3783 
  197000      196.911    523.80292    21.530776   -432.17286   -410.64208    17896.602    40891.046    33357.463   -20558.704    15.039616    13.024678    28.043491    5493.3317 
  197500      197.411    547.98806    22.524899   -433.15948   -410.63458    16953.491    40983.639    33505.794   -23628.959    15.040021    13.025029    28.041741    5493.2851 
  198000      197.911    534.24282    21.959905   -432.58638   -410.62647    17898.228    41538.123    32508.374   -20351.812    15.040427     13.02538    28.039992    5493.2385 
  198500      198.411    516.21876    21.219031   -431.83686   -410.61783    17975.031    42256.417    35847.504   -24178.828    15.040832    13.025731    28.038243    5493.1918 
  199000      198.911    534.20226    21.958238   -432.56862   -410.61038    17459.201    39066.194    31298.279    -17986.87    15.041237    13.026082    28.036494    5493.1451 
  199500      199.411    556.04377    22.856027   -433.45927   -410.60324    17517.839    41921.742    34285.379   -23653.604    15.041643    13.026433    28.034745    5493.0984 
  200000      199.911    557.90617     22.93258   -433.52772   -410.59514      16505.8    40089.284    33058.065    -23629.95    15.042048    13.026784    28.032995    5493.0517 
  200500      200.411    560.99838    23.059685   -433.64614   -410.58645    16784.643    38832.218    31837.102   -20315.391    15.042453    13.027135    28.031246    5493.0049 
  201000      200.911    534.97659    21.990066   -432.56845   -410.57838    17916.516    41089.916    33916.315   -21256.684    15.042859    13.027486    28.029497    5492.9581 
  201500      201.411    542.86675    22.314389    -432.8855   -410.57111    17379.632    40041.556    34014.021    -21916.68    15.043264    13.027837    28.027748    5492.9113 
  202000      201.911    518.76338    21.323627   -431.88584   -410.56222    19359.558     42637.57    32836.811   -17395.708    15.043669    13.028188    28.025998    5492.8644 
  202500      202.411     535.5028    22.011696    -432.5665    -410.5548    18475.947    40147.838    34994.381   -19714.378    15.044074    13.028539    28.024249    5492.8175 
  203000      202.911    524.90235    21.575967   -432.12346    -410.5475    18212.632    39680.336    33892.041   -18934.482     15.04448     13.02889      28.0225    5492.7706 
  203500      203.411    535.90569    22.028257   -432.56594   -410.53768    16867.338    39958.523    34352.471   -23708.979    15.044885    13.029241    28.020751    5492.7237 
  204000      203.911    551.15241    22.654969    -433.1857   -410.53074    16500.288    37481.841    31471.781   -19452.757     15.04529    13.029592    28.019001    5492.6767 
  204500      204.411    560.32455    23.031987   -433.55505   -410.52306    17959.674    40156.756    32993.708   -19271.442    15.045696    13.029943    28.017252    5492.6297 
  205000      204.911    542.38607    22.294631   -432.80907   -410.51444    17016.549    39048.012    34202.204   -22200.569    15.046101    13.030294    28.015503    5492.5826 
  205500      205.411    486.78472    20.009153   -430.51391   -410.50476    20631.158    44687.569     32644.51   -15438.606    15.046506    13.030645    28.013754    5492.5356 
  206000      205.911    541.06986    22.240528   -432.73855   -410.49802     16099.17    38076.863    35482.852   -25262.204    15.046912    13.030996    28.012004    5492.4885 
  206500      206.411      585.355    24.060857   -434.55236    -410.4915    17319.242    39278.683    34090.871   -21411.829    15.047317    13.031347    28.010255    5492.4414 
  207000      206.911    551.04696    22.650634   -433.13404    -410.4834    15624.558    37955.483    29867.522    -20949.33    15.047722    13.031698    28.008506    5492.3942 
  207500      207.411    555.29875    22.825403   -433.30026   -410.47486    16109.382    37557.885    35644.164   -24873.902    15.048127    13.032049    28.006757     5492.347 
  208000      207.911    535.15012    21.997199   -432.46408   -410.46688    17803.644    40071.672    33466.976   -20127.715    15.048533      13.0324    28.005007    5492.2998 
  208500      208.411    516.97305    21.250035   -431.70917   -410.45914    19663.659    39894.581    34367.519   -15271.124    15.048938    13.032751    28.003258    5492.2526 
  209000      208.911    531.65879    21.853689   -432.30476   -410.45107    17346.589    40809.201     30571.75   -19341.184    15.049343    13.033101    28.001509    5492.2053 
  209500      209.411    506.61897    20.824434   -431.26696   -410.44253    19444.975    42215.569    34116.805   -17997.449    15.049749    13.033452     27.99976     5492.158 
  210000      209.911     548.7023    22.554258   -432.98819   -410.43393    16773.151    39148.429    34332.819   -23161.795    15.050154    13.033803     27.99801    5492.1107 
  210500      210.411    523.01596    21.498428   -431.92418   -410.42575     18778.38    42060.179    33684.386   -19409.425    15.050559    13.034154    27.996261    5492.0633 
  211000      210.911    526.43518    21.638974   -432.05718    -410.4182     18636.34    37144.561    36336.561   -17572.102    15.050965    13.034505    27.994512    5492.0159 
  211500      211.411    546.58892    22.467388   -432.87886   -410.41148    17157.218    34755.019    34382.794   -17666.161     15.05137    13.034856    27.992763    5491.9685 
  212000      211.911    548.67936    22.553315   -432.95658   -410.40327    17715.539    38394.372    34272.719   -19520.474    15.051775    13.035207    27.991014    5491.9211 
[...]
  948500      948.411    561.61906    23.085197   -432.67709    -409.5919     25218.67   -2254.6833   -717.67585     78628.37    15.648782    13.552188    25.414383    5389.7611 
  949000      948.911    620.83151    25.519109   -435.09421    -409.5751    24338.991    -1167.682    855.89115    73328.764    15.649187    13.552538    25.412634    5389.6693 
  949500      949.411    633.33041    26.032873   -435.59258   -409.55971    24254.784   -881.24446   -2152.6923    75798.288    15.649593    13.552889    25.410885    5389.5774 
  950000      949.911    635.12511    26.106644   -435.65018   -409.54353    22639.954   -2559.3181    621.50827    69857.671    15.649998     13.55324    25.409135    5389.4856 
  950500      950.411    623.82715    25.642244   -435.16807   -409.52583    24286.984   -1430.1596   -3033.8782    77324.991    15.650403    13.553591    25.407386    5389.3936 
  951000      950.911    592.45473     24.35269   -433.86224   -409.50955     26965.22   -1006.8644   -1385.3497    83287.874    15.650808    13.553942    25.405637    5389.3017 
  951500      951.411    576.73697    23.706615   -433.19919   -409.49258    27742.643    2439.8581   -2737.1769    83525.248    15.651214    13.554293    25.403888    5389.2097 
  952000      951.911    590.37817    24.267333   -433.74282   -409.47548    26119.063   -1012.9734   -3107.7265    82477.888    15.651619    13.554644    25.402138    5389.1178 
  952500      952.411    585.89249     24.08295   -433.53972   -409.45677    25348.766   -2851.9914    1017.0016    77881.289    15.652024    13.554995    25.400389    5389.0257 
  953000      952.911    574.02853    23.595285   -433.03883   -409.44355    26680.795    1710.2715    3129.4983    75202.615     15.65243    13.555346     25.39864    5388.9337 
  953500      953.411     601.5992     24.72857   -434.15684   -409.42827     25894.95    550.21647   -1259.3199    78393.954    15.652835    13.555697    25.396891    5388.8416 
  954000      953.911    620.43371    25.502758   -434.91575   -409.41299     24491.86   -5031.3492    2700.8514    75806.079     15.65324    13.556048    25.395141    5388.7495 
  954500      954.411    597.20608    24.547992   -433.94371   -409.39572    24338.842   -2202.0533   -3734.3004    78952.879    15.653646    13.556399    25.393392    5388.6573 
  955000      954.911    590.04856    24.253784   -433.63004   -409.37626    25358.292    -2458.869    454.33943    78079.406    15.654051     13.55675    25.391643    5388.5651 
  955500      955.411     601.5593     24.72693   -434.08553    -409.3586    26377.472     2210.638   -3638.7884    80560.566    15.654456    13.557101    25.389894    5388.4729 
  956000      955.911    613.39975    25.213629   -434.55382   -409.34019     25522.94   -3530.0137   -2224.6247    82323.459    15.654861    13.557452    25.388144    5388.3807 
  956500      956.411    615.51408    25.300538    -434.6216   -409.32107    25591.117   -3918.3547    943.61509    79748.092    15.655267    13.557803    25.386395    5388.2884 
  957000      956.911    601.87206    24.739786   -434.03985   -409.30006    23907.407   -577.63448    244.78429     72055.07    15.655672    13.558154    25.384646    5388.1961 
  957500      957.411     598.4744    24.600126   -433.88486   -409.28473     24905.04   -3608.6142   -390.69494    78714.428    15.656077    13.558505    25.382897    5388.1037 
  958000      957.911    602.64932    24.771735   -434.04003   -409.26829    26834.002    2034.6348    3290.5032    75176.868    15.656483    13.558856    25.381148    5388.0114 
  958500      958.411    642.26831    26.400263   -435.64945   -409.24919    23468.799   -2989.2734   -4392.7693     77788.44    15.656888    13.559207    25.379398    5387.9189 
  959000      958.911    607.70112    24.979388   -434.21095   -409.23156    24996.971   -6511.3293    553.14999    80949.092    15.657293    13.559558    25.377649    5387.8265 
  959500      959.411    582.29851    23.935221   -433.15122     -409.216    25461.258   -1995.0559    551.71675    77827.113    15.657699    13.559909      25.3759     5387.734 
  960000      959.911    595.82142    24.491076   -433.68835   -409.19728     23628.44   -6211.6499    1001.0889    76095.881    15.658104     13.56026    25.374151    5387.6416 
  960500      960.411    577.92063    23.755269   -432.93435   -409.17908    25448.198   -2231.1786    1442.4103    77133.363    15.658509    13.560611    25.372401     5387.549 
  961000      960.911    573.84162    23.587603   -432.75285   -409.16525    25329.818    -3053.023    1150.6679     77891.81    15.658914    13.560962    25.370652    5387.4565 
  961500      961.411     606.8159    24.943002   -434.09173   -409.14873    24922.814   -5750.8029   -1073.3422    81592.588     15.65932    13.561313    25.368903    5387.3639 
  962000      961.911    568.68813     23.37577   -432.50974   -409.13397    27072.909    2233.6277   -3332.6695    82317.768    15.659725    13.561664    25.367154    5387.2713 
  962500      962.411    614.62663    25.264059    -434.3834   -409.11934    23948.093   -1257.6528   -1796.8021    74898.734     15.66013    13.562015    25.365404    5387.1786 
  963000      962.911    596.60379    24.523235   -433.62388   -409.10065    25700.982    2029.5793   -3268.0564    78341.422    15.660536    13.562366    25.363655    5387.0859 
  963500      963.411    616.82649    25.354484    -434.4361   -409.08162     26425.78    -1535.064   -2846.9592    83659.362    15.660941    13.562717    25.361906    5386.9932 
  964000      963.911    571.28702    23.482597   -432.54636   -409.06376    26801.608    101.03974     2544.901    77758.883    15.661346    13.563068    25.360157    5386.9005 
  964500      964.411    595.22366    24.466506   -433.51102   -409.04451    25489.705    1721.6961   -3988.0941    78735.513    15.661752    13.563419    25.358407    5386.8077 
  965000      964.911    583.00747    23.964363   -432.99217   -409.02781    25508.681   -627.46215    272.81078    76880.696    15.662157     13.56377    25.356658    5386.7149 
  965500      965.411    606.13796    24.915135   -433.92424   -409.00911    26410.544    1100.8118   -4278.9031    82409.724    15.662562    13.564121    25.354909     5386.622 
  966000      965.911    585.53565    24.068283    -433.0601   -408.99182    26199.928   -2667.1058   -166.61618    81433.507    15.662967    13.564472     25.35316    5386.5292 
  966500      966.411    595.81112    24.490653   -433.46614   -408.97549    26889.032   -1382.7866    152.24352    81897.638    15.663373    13.564822     25.35141    5386.4363 
  967000      966.911    568.82177    23.381263   -432.34031   -408.95905    26215.538    3269.6535   -6763.9568    82140.918    15.663778    13.565173    25.349661    5386.3433 
  967500      967.411    575.20185    23.643514   -432.58556   -408.94204     24987.73   -531.50298    3143.4126    72351.281    15.664183    13.565524    25.347912    5386.2504 
  968000      967.911    609.39069    25.048837   -433.97345   -408.92461    23387.097   -7061.0004   -1256.8752    78479.167    15.664589    13.565875    25.346163    5386.1574 
  968500      968.411    575.47291    23.654656   -432.56104   -408.90638    26206.301    -530.9946    2121.7632    77028.133    15.664994    13.566226    25.344413    5386.0643 
  969000      968.911    600.09627    24.666793   -433.55722   -408.89043    26264.914   -3388.7472   -1310.5077    83493.996    15.665399    13.566577    25.342664    5385.9713 
  969500      969.411    622.16406    25.573883   -434.44607   -408.87219    26088.699   -3876.3994   -2004.4565    84146.954    15.665805    13.566928    25.340915    5385.8782 
  970000      969.911    571.27288    23.482015   -432.33326   -408.85124    25811.243   -4101.5441    2420.5267    79114.745     15.66621    13.567279    25.339166    5385.7851 
  970500      970.411    601.47289    24.723378   -433.55709   -408.83371    26038.595   -764.84218    3114.1923    75766.436    15.666615     13.56763    25.337417    5385.6919 
  971000      970.911    566.04635     23.26718   -432.08296   -408.81578    26497.261   -893.32771    931.44334    79453.669     15.66702    13.567981    25.335667    5385.5987 
  971500      971.411    636.07171    26.145554   -434.94831   -408.80276    24422.986   -3345.0201    1189.1904    75424.787    15.667426    13.568332    25.333918    5385.5055 
  972000      971.911    579.23275    23.809203   -432.59268   -408.78348    26423.854   -839.86373     2106.262    78005.163    15.667831    13.568683    25.332169    5385.4123 
  972500      972.411    603.50607    24.806952   -433.57546   -408.76851     26269.57   -1947.9397   -1546.2224    82302.872    15.668236    13.569034     25.33042     5385.319 
  973000      972.911    580.15918    23.847284   -432.59738    -408.7501    25474.236    -5275.528   -973.75598    82671.993    15.668642    13.569385     25.32867    5385.2257 
  973500      973.411    588.03588    24.171054    -432.9026   -408.73154    24617.449   -4492.1247    -964.6528    79309.124    15.669047    13.569736    25.326921    5385.1323 
  974000      973.911    645.10586      26.5169   -435.23344   -408.71654    25919.395   -3624.9888    1130.1354    80253.039    15.669452    13.570087    25.325172     5385.039 
  974500      974.411    604.69058     24.85564   -433.55373   -408.69809    28206.901   -3343.7295    4018.2499    83946.183    15.669858    13.570438    25.323423    5384.9456 
  975000      974.911     579.9396    23.838259   -432.51731   -408.67905    26403.322   -5377.7444    1644.5481    82943.162    15.670263    13.570789    25.321673    5384.8521 
  975500      975.411    587.84663    24.163275   -432.82557   -408.66229    26650.151     -566.484    4199.8513    76317.087    15.670668     13.57114    25.319924    5384.7587 
  976000      975.911    599.45007    24.640231   -433.28335   -408.64312    25779.603   -2232.1728   -2393.0612    81964.044    15.671073    13.571491    25.318175    5384.6652 
  976500      976.411    611.18634    25.122647   -433.74858   -408.62593     26562.18    -1855.163    2300.1452    79241.558    15.671479    13.571842    25.316426    5384.5716 
  977000      976.911    566.24912    23.275515    -431.8834   -408.60788    28850.422    820.55259    2562.8223    83167.891    15.671884    13.572193    25.314676    5384.4781 
  977500      977.411    581.94178    23.920557   -432.51065    -408.5901    27498.221   -5418.6692    4842.7434    83070.588    15.672289    13.572544    25.312927    5384.3845 
  978000      977.911    568.70265    23.376367    -431.9471   -408.57073    27612.376   -3930.0615   -1858.4474    88625.636    15.672695    13.572895    25.311178    5384.2909 
  978500      978.411    621.56351    25.549198   -434.10117   -408.55197    25088.958   -2025.0068   -1774.8991    79066.779      15.6731    13.573246    25.309429    5384.1972 
  979000      978.911    559.56271    23.000672   -431.53267   -408.53199    26394.629   -1603.1737   -4526.4684    85313.528    15.673505    13.573597    25.307679    5384.1035 
  979500      979.411    563.44142    23.160105   -431.67387   -408.51376    25684.596   -1877.4107   -3549.7351    82480.934    15.673911    13.573948     25.30593    5384.0098 
  980000      979.911    571.91872    23.508562   -432.00347   -408.49491    25195.242   -3943.4483   -1837.4087    81366.582    15.674316    13.574299    25.304181    5383.9161 
  980500      980.411    571.21267    23.479541   -431.95627   -408.47673    26287.776    -1537.806   -1401.8716    81803.005    15.674721     13.57465    25.302432    5383.8223 
  981000      980.911    588.73496    24.199789   -432.65727   -408.45748    26095.405   -1415.9026   -278.18749    79980.305    15.675126    13.575001    25.300682    5383.7285 
  981500      981.411    590.68833    24.280082   -432.72151   -408.44143     24480.64   -3745.8877    -1999.116    79186.924    15.675532    13.575352    25.298933    5383.6346 
  982000      981.911    591.18334    24.300429   -432.72351   -408.42308    22480.524   -1696.6242   -799.42149    69937.618    15.675937    13.575703    25.297184    5383.5408 
  982500      982.411    571.06835    23.473608   -431.88074   -408.40713    25395.225    263.73586   -1922.5967    77844.537    15.676342    13.576054    25.295435    5383.4469 
  983000      982.911    606.93598    24.947937   -433.33836   -408.39042     24723.77   -3572.8618    4186.1229    73558.048    15.676748    13.576405    25.293686    5383.3529 
  983500      983.411    614.98987     25.27899    -433.6523   -408.37331     24379.44   -5093.2267    325.33881    77906.208    15.677153    13.576755    25.291936     5383.259 
  984000      983.911    588.17671    24.176843    -432.5313   -408.35445    23896.017    -2182.218   -3710.7401     77581.01    15.677558    13.577106    25.290187     5383.165 
  984500      984.411    596.86725    24.534065   -432.87276    -408.3387    22923.441   -2570.7624   -924.54666    72265.633    15.677964    13.577457    25.288438    5383.0709 
  985000      984.911    590.83558    24.286135   -432.60686   -408.32073    24490.982   -2480.5812     1494.877    74458.651    15.678369    13.577808    25.286689    5382.9769 
  985500      985.411    569.21564    23.397453   -431.69766   -408.30021    24932.755    882.17766   -1645.8556    75561.942    15.678774    13.578159    25.284939    5382.8828 
  986000      985.911     583.0464    23.965963   -432.24897   -408.28301    23328.511   -3087.3101    -1644.314    74717.158    15.679179     13.57851     25.28319    5382.7887 
  986500      986.411    581.77488    23.913697   -432.17968   -408.26599     23529.46   -4026.9873    857.11569    73758.252    15.679585    13.578861    25.281441    5382.6945 
  987000      986.911    576.57804    23.700082   -431.95187   -408.25179    25030.944    3111.7252   -417.90743    72399.016     15.67999    13.579212    25.279692    5382.6003 
  987500      987.411    596.74113    24.528881   -432.76424   -408.23536    24018.891   -2342.2079    1170.6948    73228.186    15.680395    13.579563    25.277942    5382.5061 
  988000      987.911    589.92619    24.248755   -432.46816   -408.21941    24979.883   -2071.4098    3065.1547    73945.903    15.680801    13.579914    25.276193    5382.4118 
  988500      988.411    598.70498    24.609604   -432.81298   -408.20337    23197.111    -1808.142    1017.4919    70381.984    15.681206    13.580265    25.274444    5382.3176 
  989000      988.911    625.09334    25.694291   -433.88159    -408.1873    23892.454   -548.86478    144.22397    72082.002    15.681611    13.580616    25.272695    5382.2233 
  989500      989.411    572.47211    23.531309   -431.70303   -408.17172    24916.936   -2309.7795    842.54578    76218.042    15.682017    13.580967    25.270945    5382.1289 
  990000      989.911    606.19985    24.917679   -433.07469   -408.15702    22736.681   -4110.4578    1591.2485    70729.251    15.682422    13.581318    25.269196    5382.0345 
  990500      990.411    591.07995     24.29618   -432.43925   -408.14307    23725.582   -4771.9729    591.93778     75356.78    15.682827    13.581669    25.267447    5381.9401 
  991000      990.911    606.46477    24.928568   -433.05625   -408.12768    23272.117   -4452.2058    1179.3359    73089.221    15.683232     13.58202    25.265698    5381.8457 
  991500      991.411    581.75202    23.912758   -432.02749   -408.11473    23740.187   -2263.7845    3602.9928    69881.353    15.683638    13.582371    25.263948    5381.7512 
  992000      991.911    602.27959    24.756538   -432.85428   -408.09775    23072.015   -6654.3764     2757.271    73113.151    15.684043    13.582722    25.262199    5381.6567 
  992500      992.411    601.89131    24.740578   -432.82541   -408.08483    23755.848   -2045.2114    1723.0899    71589.667    15.684448    13.583073     25.26045    5381.5622 
  993000      992.911    600.97055     24.70273    -432.7682   -408.06547    21787.922   -4532.4564   -181.33557    70077.559    15.684854    13.583424    25.258701    5381.4676 
  993500      993.411    633.93684      26.0578   -434.10362   -408.04582    23586.152   -2213.9724    1693.4972    71278.933    15.685259    13.583775    25.256951     5381.373 
  994000      993.911    593.32802    24.388586   -432.41704   -408.02846    24354.747   -1883.8545   -2891.0516    77839.147    15.685664    13.584126    25.255202    5381.2784 
  994500      994.411    587.01105    24.128928   -432.14068   -408.01175    25203.362   -6644.7066   -1296.5307    83551.322     15.68607    13.584477    25.253453    5381.1838 
  995000      994.911    626.71734    25.761045   -433.75596   -407.99492    24649.766   -485.81518    645.50115    73789.613    15.686475    13.584828    25.251704    5381.0891 
  995500      995.411    608.70298    25.020569   -432.99685   -407.97628    24005.513   -6282.4198    2986.7176    75312.242     15.68688    13.585179    25.249955    5380.9944 
  996000      995.911    610.03379    25.075272   -433.03605   -407.96077     22533.59    -3282.127   -5433.3897    76316.288    15.687285     13.58553    25.248205    5380.8996 
  996500      996.411    607.42654    24.968102   -432.91038   -407.94228    23953.302   -2606.4385   -4033.6123    78499.958    15.687691    13.585881    25.246456    5380.8048 
  997000      996.911    588.99578     24.21051    -432.1329   -407.92239    27881.292   -3890.7728    2107.8082     85426.84    15.688096    13.586232    25.244707      5380.71 
  997500      997.411    569.08027    23.391889   -431.29664   -407.90475    25749.524   -2489.4273   -1505.9506    81243.949    15.688501    13.586583    25.242958    5380.6152 
  998000      997.911    578.70542    23.787528   -431.67293    -407.8854    26091.739   -4081.0761     3726.587    78629.708    15.688907    13.586934    25.241208    5380.5203 
  998500      998.411    603.48343    24.806021   -432.67713   -407.87111    25350.825    -2309.501    3278.2896    75083.687    15.689312    13.587285    25.239459    5380.4254 
  999000      998.911    617.25633    25.372152   -433.22584   -407.85368    24827.716   -3296.5879    838.35339    76941.382    15.689717    13.587636     25.23771    5380.3305 
  999500      999.411    598.22735    24.589971    -432.4261   -407.83612    22873.558   -8153.6125    3752.3601    73021.928    15.690123    13.587987    25.235961    5380.2355 
 1000000      999.911    608.56482     25.01489   -432.83347   -407.81858    23893.851     75.94213   -2909.3117    74514.923    15.690528    13.588338    25.234211    5380.1405 
 1000089         1000    585.65729    24.073282   -431.88736   -407.81408    25879.253   -3975.3258    1207.5721    80405.512      15.6906      13.5884      25.2339    5380.1236 
Loop time of 932.725 on 28 procs for 1000000 steps with 319 atoms

Performance: 92.632 ns/day, 0.259 hours/ns, 1072.128 timesteps/s
87.9% CPU use with 28 MPI tasks x no OpenMP threads

MPI task timing breakdown:
Section |  min time  |  avg time  |  max time  |%varavg| %total
---------------------------------------------------------------
Pair    | 776.87     | 807.76     | 844.02     |  51.4 | 86.60
Neigh   | 0.019115   | 0.027848   | 0.036537   |   2.7 |  0.00
Comm    | 77.653     | 112.02     | 142.2      | 131.1 | 12.01
Output  | 0.1019     | 0.10462    | 0.12638    |   1.3 |  0.01
Modify  | 5.6196     | 7.3039     | 9.3534     |  39.8 |  0.78
Other   |            | 5.51       |            |       |  0.59

Nlocal:    11.3929 ave 16 max 6 min
Histogram: 3 0 3 2 4 2 1 4 5 4
Nghost:    674 ave 723 max 649 min
Histogram: 7 7 3 2 1 4 0 0 0 4
Neighs:    726.071 ave 1063 max 354 min
Histogram: 3 0 4 4 3 0 5 3 3 3
FullNghs:  1452.14 ave 2055 max 757 min
Histogram: 3 2 3 4 0 2 2 8 1 3

Total # of neighbors = 40660
Ave neighs/atom = 127.461
Neighbor list builds = 394
Dangerous builds = 0

write_restart   POSCAR_1x1x1.rest

#unfix    1
#undump   1
Total wall time: 0:15:32
