LAMMPS (7 Dec 2015)
#----------- Initialize Simulation ------------ restart01
#processors	2 2 2
units		metal
boundary	p p p     ## periodic boundary condition  on x y z axis ##
atom_style atomic
#atom_modify map array sort 0 0.0

read_data	POSCAR_1x1x1.lammps
  triclinic box = (0 0 0) to (15.2149 13.1765 28.7324) with tilt (-7.60743 0 0)
  2 by 2 by 7 MPI processor grid
  reading atoms ...
  324 atoms

#----------- Define Potential -----------------
pair_style meam
pair_coeff * * MgAlZn.library.meam Mg Al Zn MgAlZn.parameter.meam Mg Al Zn 	#1=Mg 2=Al 3=Zn	#atoms/mass

#----------- Neighbor List --------------------
neighbor 2.0 bin
neigh_modify delay 10 check yes

#--------------  Run a simulation (minimization) ---------------------------------------
minimize       1.0e-4   1.0e-6   100   1000          #結構優化的條件
WARNING: Resetting reneighboring criteria during minimization (../min.cpp:168)
Neighbor list info ...
  2 neighbor list requests
  update every 1 steps, delay 0 steps, check yes
  max neighbors/atom: 2000, page size: 100000
  master list distance cutoff = 8
  ghost atom cutoff = 8
  binsize = 4 -> bins = 6 4 8
Memory usage per processor = 8.65288 Mbytes
Step Temp E_pair E_mol TotEng Press 
       0            0   -543.88783            0   -543.88783    7545.7574 
      13            0   -559.17598            0   -559.17598    3970.3463 
Loop time of 0.0231023 on 28 procs for 13 steps with 324 atoms

85.6% CPU use with 28 MPI tasks x no OpenMP threads

Minimization stats:
  Stopping criterion = energy tolerance
  Energy initial, next-to-last, final = 
        -543.887828069      -559.13064252     -559.175977784
  Force two-norm initial, final = 23.2055 1.14783
  Force max component initial, final = 4.13472 0.248024
  Final line search alpha, max atom move = 0.241614 0.0599261
  Iterations, force evaluations = 13 25

MPI task timing breakdown:
Section |  min time  |  avg time  |  max time  |%varavg| %total
---------------------------------------------------------------
Pair    | 0.01868    | 0.019844   | 0.020826   |   0.5 | 85.89
Neigh   | 0          | 0          | 0          |   0.0 |  0.00
Comm    | 0.0013848  | 0.0024141  | 0.0035303  |   1.3 | 10.45
Output  | 0          | 0          | 0          |   0.0 |  0.00
Modify  | 0          | 0          | 0          |   0.0 |  0.00
Other   |            | 0.0008445  |            |       |  3.66

Nlocal:    11.5714 ave 15 max 7 min
Histogram: 1 5 1 2 0 3 5 3 4 4
Nghost:    659.214 ave 711 max 622 min
Histogram: 11 1 0 1 6 1 0 0 4 4
Neighs:    721.214 ave 996 max 418 min
Histogram: 1 5 1 2 4 3 3 3 5 1
FullNghs:  1442.43 ave 1861 max 878 min
Histogram: 1 5 1 2 3 0 5 3 2 6

Total # of neighbors = 40388
Ave neighs/atom = 124.654
Neighbor list builds = 0
Dangerous builds = 0
velocity all  create 393.0 4928459 #rot yes dist gaussian

#--------------  Run a simulation (Relaxation)  ----------------------------------------
fix  1  all  nvt   temp  393.0  393.0  100				#damping constant
#fix  2  all  npt   temp  393.0  393.0  50 iso 0.0 0.0 1000.0
#fix  2  all deform 1 x final 0 15.6906 y final 0 13.5884 z final 0 25.2339 xy final -7.8452 units lattice
#fix  3  all  npt   temp  393.0  393.0  50 z 0.0 0.0 1000.0

#variable b equal 1
#fix 2 all efield  0.0  0.0  v_b
#compute pot all pe/atom


#----------- Output --------------------------
thermo	 500
timestep  0.001		#1.0 fs
thermo_style	custom step time temp ke pe etotal press pxx pyy pzz lx ly lz vol

dump 1 all custom 10000 dump.eq id type x y z
dump_modify 1 sort  id

run        1000000	#10000	 ps
Neighbor list info ...
  2 neighbor list requests
  update every 1 steps, delay 10 steps, check yes
  max neighbors/atom: 2000, page size: 100000
  master list distance cutoff = 8
  ghost atom cutoff = 8
  binsize = 4 -> bins = 6 4 8
Memory usage per processor = 7.54335 Mbytes
Step Time Temp KinEng PotEng TotEng Press Pxx Pyy Pzz Lx Ly Lz Volume 
      13            0          393    16.408154   -559.17598   -542.76782    7012.8964    28710.772    38642.306   -46314.389      15.2149      13.1765      28.7324    5760.2466 
     500        0.487    204.07725    8.5204349   -551.28155   -542.76111    8182.1712    31007.501    47460.512   -53921.499      15.2149      13.1765      28.7324    5760.2466 
    1000        0.987    202.05422    8.4359713   -551.19723   -542.76126    7958.3635    29991.136    44002.063   -50118.109      15.2149      13.1765      28.7324    5760.2466 
    1500        1.487    183.15778    7.6470255   -550.40603     -542.759    7443.7201    28438.802    41439.271   -47546.913      15.2149      13.1765      28.7324    5760.2466 
    2000        1.987    208.21366    8.6931339   -551.45308   -542.75994    7981.2035    32027.416    41381.983   -49465.789      15.2149      13.1765      28.7324    5760.2466 
    2500        2.487    213.81468    8.9269825   -551.68605   -542.75907     7283.588    32784.657    42946.988   -53880.881      15.2149      13.1765      28.7324    5760.2466 
    3000        2.987    203.01286    8.4759953   -551.23348   -542.75749    8703.9563    31081.102    42621.577   -47590.809      15.2149      13.1765      28.7324    5760.2466 
    3500        3.487    210.63742    8.7943285   -551.55197   -542.75764    10104.315    29222.357    45838.244   -44747.656      15.2149      13.1765      28.7324    5760.2466 
    4000        3.987    207.84332     8.677672   -551.43296   -542.75529    8691.6449    30299.647    45648.227   -49872.939      15.2149      13.1765      28.7324    5760.2466 
    4500        4.487    203.96316    8.5156715   -551.26856   -542.75289    7871.3121    31739.325    42007.038   -50132.426      15.2149      13.1765      28.7324    5760.2466 
    5000        4.987    198.52805    8.2887498   -551.04001   -542.75126     9365.735    35170.602    41068.762   -48142.159      15.2149      13.1765      28.7324    5760.2466 
    5500        5.487    200.75156    8.3815836   -551.12985   -542.74826    9395.8263     30056.92    44688.028   -46557.469      15.2149      13.1765      28.7324    5760.2466 
    6000        5.987    205.75105    8.5903174   -551.33652    -542.7462    9062.2266    32370.036    44257.612   -49440.967      15.2149      13.1765      28.7324    5760.2466 
    6500        6.487    206.07135    8.6036906   -551.34751   -542.74382    8554.6658    31155.817    41904.705   -47396.524      15.2149      13.1765      28.7324    5760.2466 
    7000        6.987    216.86821    9.0544706   -551.79601   -542.74154    8799.7724    30600.214    45604.945   -49805.842      15.2149      13.1765      28.7324    5760.2466 
    7500        7.487    195.44284    8.1599392   -550.89781   -542.73787    9431.3471    36149.481    43912.263   -51767.702      15.2149      13.1765      28.7324    5760.2466 
    8000        7.987    210.10639    8.7721577   -551.50745   -542.73529    7021.2962    31545.131    45163.101   -55644.344      15.2149      13.1765      28.7324    5760.2466 
    8500        8.487    212.83202    8.8859555   -551.61787   -542.73192    8773.2865    33541.687    41432.543   -48654.371      15.2149      13.1765      28.7324    5760.2466 
    9000        8.987    209.54611    8.7487652   -551.47815   -542.72939    9423.8967    32396.214    44890.614   -49015.138      15.2149      13.1765      28.7324    5760.2466 
    9500        9.487     216.4999    9.0390933   -551.76416   -542.72507    8739.7506     29239.38    45568.501    -48588.63      15.2149      13.1765      28.7324    5760.2466 
   10000        9.987    203.69891    8.5046386   -551.22443   -542.71979    8699.2404    31723.017     45596.41   -51221.705      15.2149      13.1765      28.7324    5760.2466 
   10500       10.487    211.92807    8.8482145     -551.564   -542.71579    8067.8259    32300.335    46360.307   -54457.165      15.2149      13.1765      28.7324    5760.2466 
   11000       10.987    217.07438    9.0630782   -551.77458    -542.7115     9963.175    35863.504    41456.929   -47430.908      15.2149      13.1765      28.7324    5760.2466 
   11500       11.487    217.72207      9.09012   -551.79715   -542.70703    8454.2926    29621.056    47200.059   -51458.238      15.2149      13.1765      28.7324    5760.2466 
   12000       11.987    207.83586    8.6773607   -551.37871   -542.70135    9231.3391    30639.848    45997.362   -48943.192      15.2149      13.1765      28.7324    5760.2466 
   12500       12.487    221.10295    9.2312754   -551.92841   -542.69714    10216.788    31915.479    44980.116    -46245.23      15.2149      13.1765      28.7324    5760.2466 
   13000       12.987    198.87523    8.3032452   -550.99452   -542.69128    8950.1202    33439.883    42338.934   -48928.457      15.2149      13.1765      28.7324    5760.2466 
   13500       13.487    213.12119    8.8980286   -551.58411   -542.68608    9398.6022    28401.155    44665.783   -44871.131      15.2149      13.1765      28.7324    5760.2466 
   14000       13.987    213.24383     8.903149   -551.58368   -542.68053    7730.7952    31540.355    44441.609   -52789.578      15.2149      13.1765      28.7324    5760.2466 
   14500       14.487    221.88831    9.2640647   -551.93915   -542.67508     9122.875    34005.978    46511.685   -53149.037      15.2149      13.1765      28.7324    5760.2466 
   15000       14.987     207.3748    8.6581109   -551.32607   -542.66796    9113.9151    30903.161     44794.87   -48356.287      15.2149      13.1765      28.7324    5760.2466 
   15500       15.487    215.25919    8.9872922   -551.64922   -542.66193     9725.822    34096.596     44010.56    -48929.69      15.2149      13.1765      28.7324    5760.2466 
   16000       15.987    210.03151     8.769031   -551.42429   -542.65526    8865.4062    31534.626     41360.17   -46298.577      15.2149      13.1765      28.7324    5760.2466 
   16500       16.487    220.22798    9.1947443   -551.84313   -542.64838    8269.4694    32837.606    43495.803   -51525.001      15.2149      13.1765      28.7324    5760.2466 
   17000       16.987    210.60831    8.7931132   -551.43473   -542.64162    9325.6505     29871.07    42800.165   -44694.283      15.2149      13.1765      28.7324    5760.2466 
   17500       17.487     208.9222    8.7227166   -551.35734   -542.63462     9138.498    33545.116    44005.947   -50135.569      15.2149      13.1765      28.7324    5760.2466 
   18000       17.987    195.86615     8.177613   -550.80428   -542.62666    11095.668    30886.984    48758.742   -46358.723      15.2149      13.1765      28.7324    5760.2466 
   18500       18.487    216.25072    9.0286897   -551.64854   -542.61985    9396.4799    31326.544    45076.529   -48213.633      15.2149      13.1765      28.7324    5760.2466 
   19000       18.987    224.31668    9.3654518    -551.9772   -542.61175    8211.9099    31525.348    43553.748   -50443.367      15.2149      13.1765      28.7324    5760.2466 
   19500       19.487    217.55656    9.0832099   -551.68729   -542.60408    8634.9524    31497.364    44838.382   -50430.888      15.2149      13.1765      28.7324    5760.2466 
   20000       19.987    210.11102    8.7723509   -551.36816   -542.59581    8188.6876    31363.832    45194.743   -51992.513      15.2149      13.1765      28.7324    5760.2466 
   20500       20.487    217.19744    9.0682163   -551.65628   -542.58806     9261.489    34522.488     44540.76   -51278.781      15.2149      13.1765      28.7324    5760.2466 
   21000       20.987    217.98243    9.1009905   -551.67992   -542.57893    8425.7559    32193.765    44486.133    -51402.63      15.2149      13.1765      28.7324    5760.2466 
   21500       21.487    214.74254    8.9657216   -551.53549   -542.56977    10533.032    31984.456    45016.222   -45401.581      15.2149      13.1765      28.7324    5760.2466 
   22000       21.987    223.25029     9.320929   -551.88265   -542.56172    8916.3463    32734.065    40765.794   -46750.819      15.2149      13.1765      28.7324    5760.2466 
   22500       22.487    214.91061    8.9727386   -551.52458   -542.55184    9262.2475    31869.546    38147.763   -42230.567      15.2149      13.1765      28.7324    5760.2466 
   23000       22.987    221.87896    9.2636744   -551.80675   -542.54308    9099.8732    30425.229    43665.162   -46790.772      15.2149      13.1765      28.7324    5760.2466 
   23500       23.487    217.74172    9.0909405   -551.62401   -542.53307    8546.2137    31905.365    44587.531   -50854.254      15.2149      13.1765      28.7324    5760.2466 
   24000       23.987    216.29917    9.0307125   -551.55466   -542.52395     8615.055    34136.168    40573.439   -48864.442      15.2149      13.1765      28.7324    5760.2466 
   24500       24.487    213.32711     8.906626      -551.42   -542.51338    9692.9109    30014.593    45146.538   -46082.399      15.2149      13.1765      28.7324    5760.2466 
   25000       24.987     216.3916    9.0345713   -551.53843   -542.50386    8416.6329    33481.165    41346.258   -49577.525      15.2149      13.1765      28.7324    5760.2466 
   25500       25.487    226.57335      9.45967   -551.95281   -542.49314    9687.9183    33034.929    46269.833   -50241.007      15.2149      13.1765      28.7324    5760.2466 
   26000       25.987    220.84349    9.2204425   -551.70335   -542.48291    9257.2152    35035.367    42389.233   -49652.954      15.2149      13.1765      28.7324    5760.2466 
   26500       26.487    225.27901    9.4056301   -551.87882   -542.47319    9019.0685    32542.647    47301.902   -52787.344      15.2149      13.1765      28.7324    5760.2466 
   27000       26.987    223.38605    9.3265971   -551.78933   -542.46274    8968.5441     32632.48    43387.946   -49114.793      15.2149      13.1765      28.7324    5760.2466 
   27500       27.487    224.41947    9.3697433   -551.82089   -542.45115    8078.9162    34640.838    41823.734   -52227.823      15.2149      13.1765      28.7324    5760.2466 
   28000       27.987    207.20659    8.6510878   -551.09097   -542.43988    9873.0953    33928.351     43124.22   -47433.285      15.2149      13.1765      28.7324    5760.2466 
   28500       28.487    211.86623    8.8456328   -551.27479   -542.42916    8476.0245    30415.844    47188.807   -52176.577      15.2149      13.1765      28.7324    5760.2466 
   29000       28.987    215.89833    9.0139769   -551.43297   -542.41899    9048.0374    31822.415    46711.701   -51390.004      15.2149      13.1765      28.7324    5760.2466 
   29500       29.487    219.50002    9.1643513   -551.57199   -542.40764     9811.252    30941.653    48989.946   -50497.843      15.2149      13.1765      28.7324    5760.2466 
   30000       29.987    199.57349    8.3323981   -550.72744   -542.39505    8522.8721    34535.851    44412.156   -53379.391      15.2149      13.1765      28.7324    5760.2466 
   30500       30.487    218.48841    9.1221157   -551.50645   -542.38434    8397.0855    34734.318    44575.413   -54118.475      15.2149      13.1765      28.7324    5760.2466 
   31000       30.987    223.19275    9.3185266   -551.69181   -542.37329    8862.6841    31424.219    44569.818   -49405.985      15.2149      13.1765      28.7324    5760.2466 
   31500       31.487    215.71492    9.0063193   -551.36754   -542.36122     8757.523     32686.45     40871.99   -47285.872      15.2149      13.1765      28.7324    5760.2466 
   32000       31.987    210.87511    8.8042525   -551.15386    -542.3496    9711.3645    32223.667    45375.968   -48465.542      15.2149      13.1765      28.7324    5760.2466 
   32500       32.487    216.09918    9.0223629   -551.35952   -542.33716    8580.6108    29875.425    45976.572   -50110.164      15.2149      13.1765      28.7324    5760.2466 
   33000       32.987    215.60753    9.0018359   -551.32743   -542.32559    9849.2736    33651.892    42123.084   -46227.156      15.2149      13.1765      28.7324    5760.2466 
   33500       33.487    214.32681    8.9483645   -551.26083   -542.31246    8022.0477    35356.959    41321.054   -52611.871      15.2149      13.1765      28.7324    5760.2466 
   34000       33.987    216.61765    9.0440094   -551.34517   -542.30116    9137.4778    35087.867    47413.348   -55088.781      15.2149      13.1765      28.7324    5760.2466 
   34500       34.487    215.47118    8.9961429   -551.28461   -542.28847    8323.1012     30061.71    44381.361   -49473.768      15.2149      13.1765      28.7324    5760.2466 
   35000       34.987    213.96713    8.9333473   -551.20935     -542.276    8488.7394    30920.668    45424.875   -50879.325      15.2149      13.1765      28.7324    5760.2466 
   35500       35.487    206.66873    8.6286317   -550.89269   -542.26406    8549.0256    33286.249    44049.233   -51688.405      15.2149      13.1765      28.7324    5760.2466 
   36000       35.987    220.44172    9.2036682   -551.45575   -542.25208    9256.3508    34430.264    46580.987   -53242.199      15.2149      13.1765      28.7324    5760.2466 
   36500       36.487    208.31696    8.6974468   -550.93574    -542.2383    7915.1966      31356.9    44570.031   -52181.341      15.2149      13.1765      28.7324    5760.2466 
   37000       36.987    224.82302    9.3865919   -551.61271   -542.22612    8602.3074    30911.565    46869.489   -51974.132      15.2149      13.1765      28.7324    5760.2466 
   37500       37.487    218.37867    9.1175339   -551.33105   -542.21351    8877.6826    34108.326    42134.045   -49609.323      15.2149      13.1765      28.7324    5760.2466 
   38000       37.987    226.03748    9.4372967   -551.63762   -542.20032    8411.1262    33171.125     45756.62   -53694.367      15.2149      13.1765      28.7324    5760.2466 
   38500       38.487    209.52457    8.7478661    -550.9351   -542.18723    8373.0312    32647.496    46284.161   -53812.564      15.2149      13.1765      28.7324    5760.2466 
   39000       38.987    226.10652    9.4401792   -551.61556   -542.17539    8615.1389    33061.802    45937.522   -53153.908      15.2149      13.1765      28.7324    5760.2466 
   39500       39.487    206.77581    8.6331023   -550.79439   -542.16129    9021.4661    29193.037    46377.948   -48506.587      15.2149      13.1765      28.7324    5760.2466 
   40000       39.987    209.36184     8.741072   -550.89052   -542.14945    7654.6641    31326.431    45617.985   -53980.424      15.2149      13.1765      28.7324    5760.2466 
   40500       40.487    222.72191    9.2988682   -551.43513   -542.13626    7290.0788    33083.778    47135.035   -58348.576      15.2149      13.1765      28.7324    5760.2466 
   41000       40.987    226.03386    9.4371459   -551.56113   -542.12399    8911.2987    30091.291    48038.867   -51396.262      15.2149      13.1765      28.7324    5760.2466 
   41500       41.487     227.0513     9.479625   -551.59114   -542.11151    9047.4204    30192.753    46468.925   -49519.417      15.2149      13.1765      28.7324    5760.2466 
   42000       41.987    214.66404     8.962444   -551.06023   -542.09778     8595.882    32216.569    42330.008   -48758.932      15.2149      13.1765      28.7324    5760.2466 
   42500       42.487    231.51143      9.66584   -551.75221   -542.08637    8532.7527    32875.887    45958.298   -53235.926      15.2149      13.1765      28.7324    5760.2466 
   43000       42.987    211.64719    8.8364876   -550.90833   -542.07185    8437.5775    31472.446    46634.391   -52794.105      15.2149      13.1765      28.7324    5760.2466 
   43500       43.487    207.36537    8.6577172   -550.71658   -542.05886    7850.2581    32962.398    41015.355   -50426.978      15.2149      13.1765      28.7324    5760.2466 
   44000       43.987    210.28686    8.7796925   -550.82714   -542.04745    8444.1361    33400.391    43987.283   -52055.266      15.2149      13.1765      28.7324    5760.2466 
   44500       44.487    221.58564    9.2514279   -551.28595   -542.03452    7319.9442    31577.539    43651.024    -53268.73      15.2149      13.1765      28.7324    5760.2466 
   45000       44.987     222.7082    9.2982958    -551.3192   -542.02091    8307.4592    33364.819    44378.948    -52821.39      15.2149      13.1765      28.7324    5760.2466 
   45500       45.487    218.22729    9.1112132   -551.11892   -542.00771    8066.5097    29949.208    47387.939   -53137.619      15.2149      13.1765      28.7324    5760.2466 
   46000       45.987    225.26072    9.4048662   -551.40125   -541.99638     9181.627    31427.092    41185.344   -45067.555      15.2149      13.1765      28.7324    5760.2466 
   46500       46.487    233.34663    9.7424612   -551.72699   -541.98453    7814.5345    30767.196    42553.226   -49876.819      15.2149      13.1765      28.7324    5760.2466 
   47000       46.987    229.60073    9.5860661    -551.5571   -541.97104    8531.4515    33146.311    44903.621   -52455.578      15.2149      13.1765      28.7324    5760.2466 
   47500       47.487    232.61404     9.711875   -551.67087   -541.95899    9609.2938    30789.091    43460.132   -45421.342      15.2149      13.1765      28.7324    5760.2466 
   48000       47.987    228.48684    9.5395602   -551.48616    -541.9466    8725.5525    33516.343    46195.085   -53534.771      15.2149      13.1765      28.7324    5760.2466 
   48500       48.487    202.79741    8.4670001   -550.40039   -541.93339    8823.1526    35504.071    42611.747    -51646.36      15.2149      13.1765      28.7324    5760.2466 
   49000       48.987    219.94983    9.1831313   -551.10481   -541.92168     9102.246    34253.829    46682.233   -53629.324      15.2149      13.1765      28.7324    5760.2466 
   49500       49.487      219.816    9.1775438   -551.08673   -541.90918    8845.2927    29504.891    38870.406   -41839.418      15.2149      13.1765      28.7324    5760.2466 
   50000       49.987    228.65273    9.5464861   -551.44396   -541.89747     8333.149    28741.691    45189.653   -48931.898      15.2149      13.1765      28.7324    5760.2466 
   50500       50.487     207.9634    8.6826855   -550.56757   -541.88488    11122.282     37647.15    43785.939   -48066.245      15.2149      13.1765      28.7324    5760.2466 
   51000       50.987     232.0849     9.689783   -551.56283   -541.87305    8409.5515    31477.884    47499.787   -53749.017      15.2149      13.1765      28.7324    5760.2466 
   51500       51.487    222.46887    9.2883036   -551.14946   -541.86116    8082.2807    32121.408    44058.125   -51932.691      15.2149      13.1765      28.7324    5760.2466 
   52000       51.987    238.15882    9.9433753   -551.79254   -541.84916     7983.801    31867.351    45640.518   -53556.467      15.2149      13.1765      28.7324    5760.2466 
   52500       52.487    220.05381    9.1874727   -551.02527    -541.8378    8811.1049    32448.539    45366.701   -51381.925      15.2149      13.1765      28.7324    5760.2466 
   53000       52.987    233.93995    9.7672332   -551.59379   -541.82655    10219.691    32961.955    46424.335   -48727.216      15.2149      13.1765      28.7324    5760.2466 
   53500       53.487    221.21291     9.235866   -551.04947    -541.8136    8640.7854    34978.187    44824.755   -53880.587      15.2149      13.1765      28.7324    5760.2466 
   54000       53.987     218.4704    9.1213633   -550.92363   -541.80227    8599.0939    31696.739    46242.341   -52141.798      15.2149      13.1765      28.7324    5760.2466 
   54500       54.487    237.30853    9.9078748   -551.69895   -541.79107    8403.5751    28866.003    43769.243    -47424.52      15.2149      13.1765      28.7324    5760.2466 
   55000       54.987    226.66235    9.4633859   -551.24336   -541.77997    8934.9383    30178.876     49939.65   -53313.711      15.2149      13.1765      28.7324    5760.2466 
   55500       55.487    216.79706    9.0515001   -550.81944   -541.76794    9217.5603    32556.972    42734.726   -47639.017      15.2149      13.1765      28.7324    5760.2466 
   56000       55.987    210.46212    8.7870095   -550.54305   -541.75604    8367.8417    34543.785     43212.61    -52652.87      15.2149      13.1765      28.7324    5760.2466 
   56500       56.487    211.57865     8.833626   -550.57927   -541.74565    9150.0912    33802.138    42006.665    -48358.53      15.2149      13.1765      28.7324    5760.2466 
   57000       56.987    218.25554    9.1123929   -550.84701   -541.73462    8895.8056    32709.106    46603.394   -52625.083      15.2149      13.1765      28.7324    5760.2466 
   57500       57.487    218.08429     9.105243   -550.82883   -541.72359    10139.998    34092.275     46965.31   -50637.591      15.2149      13.1765      28.7324    5760.2466 
   58000       57.987    220.08514    9.1887805   -550.90092   -541.71214    9121.7811    30700.454    47128.368   -50463.479      15.2149      13.1765      28.7324    5760.2466 
   58500       58.487    222.96447    9.3089957   -551.00984   -541.70084    9487.9297    32151.054    43784.307   -47471.572      15.2149      13.1765      28.7324    5760.2466 
   59000       58.987    224.84467    9.3874956   -551.07678   -541.68929    8822.4309    32011.943    49578.988   -55123.638      15.2149      13.1765      28.7324    5760.2466 
   59500       59.487    227.89813    9.5149807   -551.19488    -541.6799    9686.5896    32621.361    44547.487   -48109.079      15.2149      13.1765      28.7324    5760.2466 
   60000       59.987    231.02473    9.6455198   -551.31392    -541.6684    8689.8723    32410.812    45377.297   -51718.492      15.2149      13.1765      28.7324    5760.2466 
   60500       60.487    231.31267    9.6575417   -551.31514    -541.6576    8002.3454    31290.368    44639.299   -51922.631      15.2149      13.1765      28.7324    5760.2466 
   61000       60.987    220.73076     9.215736   -550.86212   -541.64639    8242.5459     29792.96    45587.651   -50652.973      15.2149      13.1765      28.7324    5760.2466 
   61500       61.487    234.02024    9.7705853   -551.40715   -541.63657    7761.5701    33277.837     41351.33   -51344.456      15.2149      13.1765      28.7324    5760.2466 
   62000       61.987    224.77356    9.3845269   -551.01002    -541.6255    9163.7994    38772.072    44947.017   -56227.691      15.2149      13.1765      28.7324    5760.2466 
   62500       62.487    228.04374    9.5210603   -551.13574   -541.61468    7073.2932    31337.278    41387.891   -51505.289      15.2149      13.1765      28.7324    5760.2466 
   63000       62.987    221.29353    9.2392323   -550.84323     -541.604    8859.7161    33125.149    42801.215   -49347.216      15.2149      13.1765      28.7324    5760.2466 
   63500       63.487    229.40582    9.5779286   -551.17133    -541.5934    8589.8298    34389.595    44243.788   -52863.893      15.2149      13.1765      28.7324    5760.2466 
   64000       63.987    232.32225    9.6996925   -551.28259    -541.5829    8600.4677    30765.152    48677.148   -53640.897      15.2149      13.1765      28.7324    5760.2466 
   64500       64.487     233.7775    9.7604505   -551.33292   -541.57247    8201.8185    32303.263    47169.388   -54867.196      15.2149      13.1765      28.7324    5760.2466 
   65000       64.987    234.49256     9.790305   -551.35284   -541.56254    8315.6767    30458.801    48211.052   -53722.824      15.2149      13.1765      28.7324    5760.2466 
   65500       65.487    236.18778    9.8610825   -551.41199    -541.5509    8802.2075    33435.282    43586.225   -50614.884      15.2149      13.1765      28.7324    5760.2466 
   66000       65.987    211.17188    8.8166428   -550.35631   -541.53966    7821.3251    29350.913    45267.118   -51154.056      15.2149      13.1765      28.7324    5760.2466 
   66500       66.487    229.54151    9.5835938   -551.11353   -541.52993    8976.2797    29600.835    48195.589   -50867.585      15.2149      13.1765      28.7324    5760.2466 
   67000       66.987     234.6925     9.798653   -551.31787   -541.51921    8672.4901    34247.759      48340.6   -56570.889      15.2149      13.1765      28.7324    5760.2466 
   67500       67.487    236.70692    9.8827571   -551.39126   -541.50851    8535.2523    31701.817    45585.842   -51681.902      15.2149      13.1765      28.7324    5760.2466 
   68000       67.987    237.20816    9.9036844   -551.40176   -541.49807     7916.895    29860.974    42538.054   -48648.343      15.2149      13.1765      28.7324    5760.2466 
   68500       68.487    219.75982    9.1751981   -550.66255   -541.48736    9810.4763        33641    44207.108   -48416.679      15.2149      13.1765      28.7324    5760.2466 
   69000       68.987    228.64081    9.5459887    -551.0233   -541.47731    9137.3757    32035.097    45161.552   -49784.522      15.2149      13.1765      28.7324    5760.2466 
   69500       69.487    219.53639    9.1658697   -550.63206    -541.4662     9572.096    33024.687     46405.65   -50714.049      15.2149      13.1765      28.7324    5760.2466 
   70000       69.987    228.47865    9.5392183   -550.99543   -541.45621    8336.7038    28217.696    44025.769   -47233.353      15.2149      13.1765      28.7324    5760.2466 
   70500       70.487     224.0607    9.3547643   -550.79959   -541.44483    8732.0606    32102.244    43921.977    -49828.04      15.2149      13.1765      28.7324    5760.2466 
   71000       70.987    219.33724    9.1575548   -550.59163   -541.43408     8051.515    34192.579    43371.389   -53409.423      15.2149      13.1765      28.7324    5760.2466 
   71500       71.487    246.08392    10.274256    -551.6982   -541.42395    7941.7862    28555.157    44063.872    -48793.67      15.2149      13.1765      28.7324    5760.2466 
   72000       71.987    236.82599    9.8877283   -551.30078   -541.41305    8636.4601    33756.595    44397.519   -52244.734      15.2149      13.1765      28.7324    5760.2466 
   72500       72.487    223.83533    9.3453548   -550.74749   -541.40213    8417.6873    30575.268    48097.051   -53419.257      15.2149      13.1765      28.7324    5760.2466 
   73000       72.987    235.68964    9.8402845   -551.23225   -541.39197    8591.2569     30796.08    45431.733   -50454.042      15.2149      13.1765      28.7324    5760.2466 
   73500       73.487    222.22777    9.2782376   -550.65942   -541.38119    8628.1246    29983.227    45908.012   -50006.865      15.2149      13.1765      28.7324    5760.2466 
   74000       73.987    232.46564    9.7056793   -551.07636   -541.37068    9029.2616    31768.687    43397.573   -48078.476      15.2149      13.1765      28.7324    5760.2466 
   74500       74.487    218.36954    9.1171526   -550.47673   -541.35958    8544.0098    31291.836    45364.369   -51024.175      15.2149      13.1765      28.7324    5760.2466 
   75000       74.987    236.33579    9.8672619    -551.2163   -541.34904    8971.0111    30865.252    46215.077   -50167.296      15.2149      13.1765      28.7324    5760.2466 
   75500       75.487    231.75503    9.6760103   -551.01408   -541.33807    8036.4251    30916.266    43630.443   -50437.434      15.2149      13.1765      28.7324    5760.2466 
   76000       75.987    223.02449    9.3115015   -550.63838   -541.32688    7300.7826    32226.659    43143.106   -53467.417      15.2149      13.1765      28.7324    5760.2466 
   76500       76.487    236.92028     9.891665   -551.20843   -541.31677    8169.6186    30545.103    43741.654   -49777.902      15.2149      13.1765      28.7324    5760.2466 
   77000       76.987    221.23987    9.2369919   -550.54284   -541.30585    8160.0778    32480.927    47899.127    -55899.82      15.2149      13.1765      28.7324    5760.2466 
   77500       77.487    227.85065    9.5129986    -550.8074   -541.29441    9132.7503    31342.323    43831.994   -47776.067      15.2149      13.1765      28.7324    5760.2466 
   78000       77.987    217.45592    9.0790079   -550.36251    -541.2835    11127.276    35211.154    47857.651   -49686.975      15.2149      13.1765      28.7324    5760.2466 
   78500       78.487    224.44361    9.3707511   -550.64294   -541.27219    8513.0831    31679.692     45407.55   -51547.993      15.2149      13.1765      28.7324    5760.2466 
   79000       78.987    247.32337    10.326005   -551.58832   -541.26232    9548.7667    37011.692    43364.104   -51729.496      15.2149      13.1765      28.7324    5760.2466 
   79500       79.487    231.24111    9.6545539   -550.90464   -541.25009    9203.5881     32045.95    44867.189   -49302.375      15.2149      13.1765      28.7324    5760.2466 
   80000       79.987      229.939    9.6001893    -550.8392   -541.23901    8003.9884    32097.829    45426.549   -53512.412      15.2149      13.1765      28.7324    5760.2466 
   80500       80.487    236.94832    9.8928356   -551.12118   -541.22835    8062.6321    30767.581    46671.275    -53250.96      15.2149      13.1765      28.7324    5760.2466 
   81000       80.987    226.77929    9.4682681   -550.68556    -541.2173    8168.9106    31169.283    45611.629    -52274.18      15.2149      13.1765      28.7324    5760.2466 
   81500       81.487    230.17194     9.609915   -550.81551    -541.2056    8892.1634    34975.084    43564.006     -51862.6      15.2149      13.1765      28.7324    5760.2466 
   82000       81.987    225.77025    9.4261398   -550.62082   -541.19468    9559.0874    34101.379    44984.405   -50408.522      15.2149      13.1765      28.7324    5760.2466 
   82500       82.487    223.08326     9.313955   -550.49674   -541.18278    9001.5164    34652.132    43009.453   -50657.036      15.2149      13.1765      28.7324    5760.2466 
   83000       82.987    213.06619    8.8957321   -550.06709   -541.17136    8383.9916    29760.789    45888.581   -50497.396      15.2149      13.1765      28.7324    5760.2466 
   83500       83.487    236.62293    9.8792504   -551.04025     -541.161    9422.9922    34519.376    43734.707   -49985.106      15.2149      13.1765      28.7324    5760.2466 
   84000       83.987    230.25795    9.6135057     -550.762   -541.14849    7780.8618    30846.502    43939.042   -51442.959      15.2149      13.1765      28.7324    5760.2466 
   84500       84.487    230.31337    9.6158199   -550.75308   -541.13726    8962.9527    31882.577    42734.442    -47728.16      15.2149      13.1765      28.7324    5760.2466 
   85000       84.987    231.55337    9.6675908   -550.79427   -541.12667    8859.3936    33651.992    44426.825   -51500.637      15.2149      13.1765      28.7324    5760.2466 
   85500       85.487    226.06785    9.4385649   -550.55264   -541.11407    8983.3168    29632.191    47425.351   -50107.591      15.2149      13.1765      28.7324    5760.2466 
   86000       85.987    210.74116    8.7986599   -549.90067   -541.10201    8280.8591    36691.231    44603.973   -56452.626      15.2149      13.1765      28.7324    5760.2466 
   86500       86.487    228.15924    9.5258827   -550.61609   -541.09021    9058.3579    36052.543    40298.976   -49176.445      15.2149      13.1765      28.7324    5760.2466 
   87000       86.987    240.45991    10.039448    -551.1188   -541.07935    8435.5641    32274.398    45514.518   -52482.224      15.2149      13.1765      28.7324    5760.2466 
   87500       87.487    242.36905    10.119157   -551.18641   -541.06726    10211.189    33562.207     44746.02   -47674.661      15.2149      13.1765      28.7324    5760.2466 
   88000       87.987    224.12587    9.3574851   -550.41255   -541.05506    9095.1863     31939.01    47169.585   -51823.036      15.2149      13.1765      28.7324    5760.2466 
   88500       88.487    239.15274    9.9848724   -551.02841   -541.04354    8959.6319    29199.616    46962.432   -49283.152      15.2149      13.1765      28.7324    5760.2466 
   89000       88.987    229.59434    9.5857993   -550.61738   -541.03158    8040.9489     30758.35    45432.728   -52068.231      15.2149      13.1765      28.7324    5760.2466 
   89500       89.487    220.55388    9.2083508   -550.22713   -541.01878    9143.6284    35261.895    44062.312   -51893.322      15.2149      13.1765      28.7324    5760.2466 
   90000       89.987    221.69507    9.2559969   -550.26199     -541.006    9351.1268    32143.265    47333.609   -51423.493      15.2149      13.1765      28.7324    5760.2466 
   90500       90.487    226.39921    9.4523995   -550.44744   -540.99504    9221.6481    32814.629    45795.761   -50945.446      15.2149      13.1765      28.7324    5760.2466 
   91000       90.987    231.21872     9.653619    -550.6358   -540.98219    9042.4646    33172.693    41293.191    -47338.49      15.2149      13.1765      28.7324    5760.2466 
   91500       91.487    231.78093    9.6770919   -550.64749    -540.9704     8729.621    30095.571     42050.56   -45957.268      15.2149      13.1765      28.7324    5760.2466 
   92000       91.987    225.63769    9.4206052    -550.3791    -540.9585     9516.303     32950.55    44604.617   -49006.258      15.2149      13.1765      28.7324    5760.2466 
   92500       92.487     240.6873    10.048942   -550.99626   -540.94732    8456.4881    28182.767    44988.985   -47802.287      15.2149      13.1765      28.7324    5760.2466 
   93000       92.987    232.07236    9.6892594   -550.62274   -540.93348    8702.2239    30670.486    44181.829   -48745.643      15.2149      13.1765      28.7324    5760.2466 
   93500       93.487    220.42533    9.2029839   -550.12286   -540.91988    8300.0519    29318.699    44565.404   -48983.947      15.2149      13.1765      28.7324    5760.2466 
   94000       93.987    234.93558    9.8088019   -550.71718   -540.90838    8106.2213    30125.271    45489.472   -51296.079      15.2149      13.1765      28.7324    5760.2466 
   94500       94.487     225.4526    9.4128775   -550.30767    -540.8948    8571.0126    33072.417    42689.845   -50049.225      15.2149      13.1765      28.7324    5760.2466 
   95000       94.987    236.96957    9.8937228   -550.77635   -540.88263    8854.4397    31874.088    47235.295   -52546.064      15.2149      13.1765      28.7324    5760.2466 
   95500       95.487    240.00375    10.020403   -550.89045   -540.87004    8244.7457    32981.548    45710.854   -53958.165      15.2149      13.1765      28.7324    5760.2466 
   96000       95.987    227.06482    9.4801892   -550.33799    -540.8578    8938.7459    33303.879    48908.828   -55396.469      15.2149      13.1765      28.7324    5760.2466 
   96500       96.487    236.07427    9.8563433   -550.70179   -540.84545    9536.4095    32671.155    46924.784    -50986.71      15.2149      13.1765      28.7324    5760.2466 
   97000       96.987    242.81261    10.137676   -550.96999   -540.83231    9008.7086    31983.045    45086.695   -50043.614      15.2149      13.1765      28.7324    5760.2466 
   97500       97.487    224.79622    9.3854728   -550.20304   -540.81757    8865.4323    31804.199    45569.332   -50777.235      15.2149      13.1765      28.7324    5760.2466 
   98000       97.987    234.63153    9.7961074    -550.6015   -540.80539    8865.0186    33728.185    43926.057   -51059.186      15.2149      13.1765      28.7324    5760.2466 
   98500       98.487    254.96856    10.645199   -551.43901   -540.79381    8604.5681    29015.104    45167.706   -48369.106      15.2149      13.1765      28.7324    5760.2466 
   99000       98.987    238.59344     9.961521   -550.74061   -540.77909    10129.814    33784.503     43598.54   -46993.602      15.2149      13.1765      28.7324    5760.2466 
   99500       99.487    232.78928    9.7191914   -550.48555   -540.76636    10130.529    33127.543    50575.245   -53311.202      15.2149      13.1765      28.7324    5760.2466 
  100000       99.987    255.33675    10.660572   -551.41387    -540.7533    8235.0139     32331.29    46212.076   -53838.325      15.2149      13.1765      28.7324    5760.2466 
  100500      100.487    238.58325    9.9610956   -550.70057   -540.73947    9409.0327    31999.662    48526.606    -52299.17      15.2149      13.1765      28.7324    5760.2466 
  101000      100.987    238.96772    9.9771475   -550.70342   -540.72627     10001.69    31198.761    46522.671   -47716.364      15.2149      13.1765      28.7324    5760.2466 
  101500      101.487    229.79539    9.5941934    -550.3062   -540.71201    10019.614    35061.507    46215.541   -51218.207      15.2149      13.1765      28.7324    5760.2466 
  102000      101.987    235.55334    9.8345939    -550.5337   -540.69911    9820.9319    34006.672    45951.661   -50495.538      15.2149      13.1765      28.7324    5760.2466 
  102500      102.487    233.64004    9.7547117    -550.4399   -540.68519    7809.6649    28408.189    46741.745   -51720.939      15.2149      13.1765      28.7324    5760.2466 
  103000      102.987    234.80309    9.8032701   -550.47451   -540.67124    8738.6307    32271.377    45148.102   -51203.587      15.2149      13.1765      28.7324    5760.2466 
  103500      103.487    249.76846     10.42809   -551.08667   -540.65858    9482.2437    32402.353    45527.399   -49483.021      15.2149      13.1765      28.7324    5760.2466 
  104000      103.987     253.8766    10.599609   -551.24514   -540.64553    9096.7904    31981.954    45630.059   -50321.642      15.2149      13.1765      28.7324    5760.2466 
  104500      104.487    237.33928    9.9091588   -550.53958   -540.63042    8982.8893    28546.576    48181.886   -49779.794      15.2149      13.1765      28.7324    5760.2466 
  105000      104.987    243.42356    10.163184   -550.78002   -540.61684    9495.7528    34308.272    46983.452   -52804.465      15.2149      13.1765      28.7324    5760.2466 
  105500      105.487    221.84344    9.2621913   -549.86379    -540.6016    8161.2342    31763.228     45226.79   -52506.316      15.2149      13.1765      28.7324    5760.2466 
  106000      105.987     230.5911    9.6274154   -550.21616   -540.58875    8346.9446    31855.356    44182.288    -50996.81      15.2149      13.1765      28.7324    5760.2466 
  106500      106.487    238.91424     9.974915   -550.55041   -540.57549    9591.4007    31999.525    47637.705   -50863.028      15.2149      13.1765      28.7324    5760.2466 
  107000      106.987    225.27381     9.405413    -549.9651   -540.55968    9274.6258    34190.173    48756.836   -55123.132      15.2149      13.1765      28.7324    5760.2466 
  107500      107.487    232.21683    9.6952913   -550.24155   -540.54626    9186.7015    28326.789    52015.272   -52781.956      15.2149      13.1765      28.7324    5760.2466 
  108000      107.987    250.31831    10.451046   -550.98434   -540.53329    8303.4069    33239.514    48345.668   -56674.961      15.2149      13.1765      28.7324    5760.2466 
  108500      108.487    237.04551    9.8968934   -550.41511   -540.51822    7833.3239     30095.61     45740.22   -52335.859      15.2149      13.1765      28.7324    5760.2466 
  109000      108.987    243.19972    10.153838   -550.65871   -540.50487    7572.2899    34174.917    47151.988   -58610.035      15.2149      13.1765      28.7324    5760.2466 
  109500      109.487    233.16166    9.7347386   -550.22521   -540.49047    9063.4826    34737.875    42538.669   -50086.096      15.2149      13.1765      28.7324    5760.2466 
  110000      109.987    231.99838    9.6861707   -550.16151   -540.47534    8448.0678    34920.567    47509.381   -57085.744      15.2149      13.1765      28.7324    5760.2466 
  110500      110.487    242.11699    10.108633   -550.57048   -540.46185    9077.2481    31769.879    45381.453   -49919.587      15.2149      13.1765      28.7324    5760.2466 
  111000      110.987    246.73715     10.30153   -550.74932   -540.44779    9154.2487    33851.907    45035.013   -51424.174      15.2149      13.1765      28.7324    5760.2466 
  111500      111.487    233.08133    9.7313848   -550.16397   -540.43258    8705.6236    34712.526    44417.545     -53013.2      15.2149      13.1765      28.7324    5760.2466 
  112000      111.987    244.53062    10.209404   -550.62779   -540.41838    8342.9086    33370.529    45244.915   -53586.718      15.2149      13.1765      28.7324    5760.2466 
  112500      112.487    241.97211    10.102584   -550.50726   -540.40468    8957.8443    33087.077    45370.696   -51584.241      15.2149      13.1765      28.7324    5760.2466 
  113000      112.987    252.94124    10.560556   -550.95014   -540.38959     8416.949    34727.062    46685.329   -56161.545      15.2149      13.1765      28.7324    5760.2466 
  113500      113.487    237.81629    9.9290742   -550.30303   -540.37396    9905.9709    32235.704    48226.784   -50744.575      15.2149      13.1765      28.7324    5760.2466 
  114000      113.987    241.91942    10.100384   -550.46034   -540.35996    7690.9464    34260.524    46252.544   -57440.229      15.2149      13.1765      28.7324    5760.2466 
  114500      114.487    240.82517    10.054698    -550.4002    -540.3455    8753.3519     31699.07    43787.899   -49226.913      15.2149      13.1765      28.7324    5760.2466 
  115000      114.987    233.57883    9.7521558   -550.08337   -540.33122    8806.8003    31758.978    45711.593    -51050.17      15.2149      13.1765      28.7324    5760.2466 
  115500      115.487    235.48781    9.8318578   -550.14703   -540.31517    8372.6878     31582.66     47646.92   -54111.517      15.2149      13.1765      28.7324    5760.2466 
  116000      115.987    244.15033    10.193527   -550.49487   -540.30134    9014.9404    32294.828    49452.447   -54702.454      15.2149      13.1765      28.7324    5760.2466 
  116500      116.487    243.54398    10.168211   -550.45507   -540.28686    9691.3806    35537.975    45806.721   -52270.554      15.2149      13.1765      28.7324    5760.2466 
  117000      116.987    251.03765     10.48108   -550.75318    -540.2721    8725.3966     28801.75    47958.018   -50583.578      15.2149      13.1765      28.7324    5760.2466 
  117500      117.487    249.54194    10.418632   -550.67617   -540.25754    10009.922    32453.819    51989.583   -54413.635      15.2149      13.1765      28.7324    5760.2466 
  118000      117.987    239.25409    9.9891041   -550.23211   -540.24301    9380.6526    32557.145    44145.642    -48560.83      15.2149      13.1765      28.7324    5760.2466 
  118500      118.487    231.92308    9.6830267   -549.91055   -540.22752     8920.076    34568.317    46444.005   -54252.095      15.2149      13.1765      28.7324    5760.2466 
  119000      118.987    242.32052     10.11713   -550.33014   -540.21301    9658.6006    30474.389    48995.633    -50494.22      15.2149      13.1765      28.7324    5760.2466 
  119500      119.487    247.67621    10.340736   -550.53911   -540.19838    8810.1116    33545.227    45325.006   -52439.899      15.2149      13.1765      28.7324    5760.2466 
  120000      119.987      224.237    9.3621249   -549.54443   -540.18231    8403.8883    34583.648    45711.881   -55083.865      15.2149      13.1765      28.7324    5760.2466 
  120500      120.487    227.67356    9.5056051   -549.67336   -540.16776      8598.08    31785.103    44332.134   -50322.997      15.2149      13.1765      28.7324    5760.2466 
  121000      120.987    239.00483    9.9786971   -550.13153   -540.15283    9217.1344    35581.461    47598.625   -55528.683      15.2149      13.1765      28.7324    5760.2466 
  121500      121.487     233.8401    9.7630644   -549.90091   -540.13784    9094.6519    33047.152    43318.499   -49081.696      15.2149      13.1765      28.7324    5760.2466 
  122000      121.987    245.30894      10.2419   -550.36605   -540.12415    8872.2023    31325.055    46666.404   -51374.852      15.2149      13.1765      28.7324    5760.2466 
  122500      122.487    231.49728     9.665249   -549.77316   -540.10791    8466.6325    32525.614    44283.866   -51409.583      15.2149      13.1765      28.7324    5760.2466 
  123000      122.987    244.01539    10.187893   -550.28054   -540.09265    9014.8913    33058.915    47026.058   -53040.299      15.2149      13.1765      28.7324    5760.2466 
  123500      123.487    241.69112    10.090852   -550.16841   -540.07756    9129.5286    32073.113    50448.316   -55132.844      15.2149      13.1765      28.7324    5760.2466 
  124000      123.987     244.2595    10.198085   -550.26144   -540.06336    8516.7519    32272.862    49128.895   -55851.502      15.2149      13.1765      28.7324    5760.2466 
  124500      124.487    259.35517    10.828345   -550.87725   -540.04891     9940.598    28551.672     48162.35   -46892.228      15.2149      13.1765      28.7324    5760.2466 
  125000      124.987    239.42837    9.9963804   -550.02959   -540.03321    8664.4134    31898.878     48275.42   -54181.059      15.2149      13.1765      28.7324    5760.2466 
  125500      125.487    244.50632     10.20839   -550.22547   -540.01708    8248.1768    33930.687    44412.774    -53598.93      15.2149      13.1765      28.7324    5760.2466 
  126000      125.987    245.79296    10.262108   -550.26394   -540.00183    8108.0826    30603.243    44954.137   -51233.132      15.2149      13.1765      28.7324    5760.2466 
  126500      126.487     252.8585    10.557102   -550.54384   -539.98674    8661.8988    32564.385    41971.937   -48550.625      15.2149      13.1765      28.7324    5760.2466 
  127000      126.987    249.89067    10.433192   -550.40456   -539.97137    9379.8222     30717.61    48979.089   -51557.232      15.2149      13.1765      28.7324    5760.2466 
  127500      127.487    237.13719    9.9007211   -549.85659   -539.95587    9326.0027    32225.836    45264.502    -49512.33      15.2149      13.1765      28.7324    5760.2466 
  128000      127.987    248.28034    10.365959   -550.30683   -539.94087    9904.8066    34430.489    45907.101    -50623.17      15.2149      13.1765      28.7324    5760.2466 
  128500      128.487    247.52124    10.334266   -550.25951   -539.92524    9835.2739    33919.205    45876.369   -50289.752      15.2149      13.1765      28.7324    5760.2466 
  129000      128.987    252.30978    10.534192   -550.44434   -539.91014    9448.6181     31586.83    44212.149   -47453.124      15.2149      13.1765      28.7324    5760.2466 
  129500      129.487    246.13602    10.276432   -550.17126   -539.89483    10018.194    35024.418     45265.21   -50235.045      15.2149      13.1765      28.7324    5760.2466 
  130000      129.987    251.04639    10.481445   -550.36041   -539.87897    9168.0172    30072.574    49878.265   -52446.787      15.2149      13.1765      28.7324    5760.2466 
  130500      130.487     245.5318    10.251205   -550.11554   -539.86434    8782.0906    31513.403    44339.873   -49507.004      15.2149      13.1765      28.7324    5760.2466 
  131000      130.987    251.35864    10.494481   -550.34289   -539.84841    8054.8989    30531.264    44963.861   -51330.428      15.2149      13.1765      28.7324    5760.2466 
  131500      131.487     253.4299    10.580959    -550.4137   -539.83274     8938.535     32687.18    43996.377   -49867.952      15.2149      13.1765      28.7324    5760.2466 
  132000      131.987    251.80338     10.51305   -550.32988   -539.81683    8581.0333    31509.379    46618.872   -52385.151      15.2149      13.1765      28.7324    5760.2466 
  132500      132.487    246.05739    10.273148   -550.07425    -539.8011    9901.4486    32651.034    43804.822   -46751.511      15.2149      13.1765      28.7324    5760.2466 
  133000      132.987    241.15245    10.068363   -549.85405   -539.78568    9887.2033    34010.029    50214.121    -54562.54      15.2149      13.1765      28.7324    5760.2466 
  133500      133.487    246.45464    10.289734   -550.05934   -539.76961    8744.2383    30666.208    46463.737   -50897.231      15.2149      13.1765      28.7324    5760.2466 
  134000      133.987    262.80532    10.972392   -550.72729   -539.75489    9026.2585    32678.611    43687.095    -49286.93      15.2149      13.1765      28.7324    5760.2466 
  134500      134.487    257.59302    10.754773   -550.49354   -539.73877    7884.4215    30990.935    42535.866   -49873.536      15.2149      13.1765      28.7324    5760.2466 
  135000      134.987    248.08804    10.357931   -550.08078   -539.72285    9145.0299    33763.628    46526.041    -52854.58      15.2149      13.1765      28.7324    5760.2466 
  135500      135.487    248.54706    10.377095   -550.08425   -539.70715    8718.6903    32278.098     45295.02   -51417.048      15.2149      13.1765      28.7324    5760.2466 
  136000      135.987    250.71184    10.467477    -550.1594   -539.69192    9135.1767    34483.581    43518.008   -50596.059      15.2149      13.1765      28.7324    5760.2466 
  136500      136.487    234.78461    9.8024987   -549.47814   -539.67564    8110.4717    30448.841    47297.644   -53415.069      15.2149      13.1765      28.7324    5760.2466 
  137000      136.987    247.08023    10.315853   -549.97552   -539.65967    9814.7858     32306.55    46230.345   -49092.538      15.2149      13.1765      28.7324    5760.2466 
  137500      137.487    257.25051    10.740473   -550.38488    -539.6444    9277.0554    30261.298    44120.732   -46550.863      15.2149      13.1765      28.7324    5760.2466 
  138000      137.987    256.42215    10.705888    -550.3345   -539.62862    9768.4766    32151.391    45942.431   -48788.392      15.2149      13.1765      28.7324    5760.2466 
  138500      138.487    241.15675    10.068542   -549.68096   -539.61242    9120.6253    33891.794    47398.945   -53928.864      15.2149      13.1765      28.7324    5760.2466 
  139000      138.987    255.96795    10.686925   -550.28404   -539.59712    9357.2839     33391.43    44655.076   -49974.655      15.2149      13.1765      28.7324    5760.2466 
  139500      139.487    245.14019    10.234855   -549.81568   -539.58082    9477.4081    31379.478    51873.343   -54820.596      15.2149      13.1765      28.7324    5760.2466 
  140000      139.987     262.0701    10.941696   -550.50767   -539.56597    9190.7838    31116.889    45086.331   -48630.869      15.2149      13.1765      28.7324    5760.2466 
  140500      140.487     253.1156    10.567836   -550.11703   -539.54919    9245.6787    33323.969     48195.67   -53782.603      15.2149      13.1765      28.7324    5760.2466 
  141000      140.987    259.59979    10.838558   -550.37143   -539.53287    9471.6542    34923.322    45009.085   -51517.445      15.2149      13.1765      28.7324    5760.2466 
  141500      141.487    239.39268    9.9948904   -549.51203   -539.51714    9142.4781    33365.598    43338.279   -49276.443      15.2149      13.1765      28.7324    5760.2466 
  142000      141.987    257.06437    10.732701   -550.23426   -539.50156     8408.681     27845.37    46028.599   -48647.927      15.2149      13.1765      28.7324    5760.2466 
  142500      142.487    234.74692    9.8009251   -549.28616   -539.48523     9869.054    35774.187    45558.876   -51725.901      15.2149      13.1765      28.7324    5760.2466 
  143000      142.987    263.78262    11.013195   -550.48352   -539.47033    8686.3537     30040.42    45860.593   -49841.952      15.2149      13.1765      28.7324    5760.2466 
  143500      143.487    243.78681     10.17835   -549.63206   -539.45371    8035.8239    30348.831    48043.136   -54284.496      15.2149      13.1765      28.7324    5760.2466 
  144000      143.987    246.30311    10.283408   -549.72157   -539.43816    9258.3165    30254.486     45441.47   -47921.006      15.2149      13.1765      28.7324    5760.2466 
  144500      144.487     254.5855    10.629206   -550.05236   -539.42315    10064.498    33175.974     49184.11   -52166.591      15.2149      13.1765      28.7324    5760.2466 
  145000      144.987    240.45417    10.039208   -549.44485   -539.40564    10059.302    34905.101      45915.4   -50642.594      15.2149      13.1765      28.7324    5760.2466 
  145500      145.487    249.57049    10.419824   -549.80983      -539.39    9159.1509     32150.37    46689.423   -51362.341      15.2149      13.1765      28.7324    5760.2466 
  146000      145.987    246.62954    10.297037   -549.67157   -539.37453    10210.122    35505.935    48763.108   -53638.679      15.2149      13.1765      28.7324    5760.2466 
  146500      146.487    248.34247    10.368553   -549.72638   -539.35782    8413.5497    33391.683    41750.124   -49901.157      15.2149      13.1765      28.7324    5760.2466 
  147000      146.987    258.87526    10.808308   -550.15087   -539.34257     9073.224    34105.812     43782.64    -50668.78      15.2149      13.1765      28.7324    5760.2466 
  147500      147.487     240.6385    10.046905   -549.37321   -539.32631     9930.394     32622.47     48113.96   -50945.247      15.2149      13.1765      28.7324    5760.2466 
  148000      147.987    246.04965    10.272826   -549.58355   -539.31072    8477.0828    36183.267    43873.212   -54625.231      15.2149      13.1765      28.7324    5760.2466 
  148500      148.487    252.75751    10.552885    -549.8475   -539.29461    8409.5229    33892.389    43881.268   -52545.088      15.2149      13.1765      28.7324    5760.2466 
  149000      148.987    243.34719    10.159995   -549.43865   -539.27866    8820.5783     35017.86    43965.878   -52522.002      15.2149      13.1765      28.7324    5760.2466 
  149500      149.487    249.81597    10.430073   -549.69285   -539.26278    9072.0134    29044.976    44998.943   -46827.879      15.2149      13.1765      28.7324    5760.2466 
  150000      149.987    251.84132    10.514634   -549.76197   -539.24734    9554.1999    33776.502     44098.06   -49211.962      15.2149      13.1765      28.7324    5760.2466 
  150500      150.487    252.79237    10.554341    -549.7855   -539.23115    9299.2717    32527.048    47569.344   -52198.577      15.2149      13.1765      28.7324    5760.2466 
  151000      150.987    244.34039    10.201462   -549.41553   -539.21407    8961.9813    32658.314    47484.825   -53257.195      15.2149      13.1765      28.7324    5760.2466 
  151500      151.487    247.37046    10.327971   -549.52613   -539.19816    10428.782    38436.154    46163.018   -53312.826      15.2149      13.1765      28.7324    5760.2466 
  152000      151.987    257.15791    10.736607   -549.91918   -539.18257    9517.2158    28523.478    45547.017   -45518.848      15.2149      13.1765      28.7324    5760.2466 
  152500      152.487    267.95852    11.187543   -550.35391   -539.16637    10382.014    34220.906    45874.744   -48949.607      15.2149      13.1765      28.7324    5760.2466 
  153000      152.987     268.2216    11.198527   -550.34872    -539.1502    9522.9623    31589.639    49266.087   -52286.839      15.2149      13.1765      28.7324    5760.2466 
  153500      153.487    249.57496    10.420011   -549.55359   -539.13358    9089.2917    31366.022    47245.345   -51343.491      15.2149      13.1765      28.7324    5760.2466 
  154000      153.987    257.54453    10.752749   -549.86981   -539.11706    9740.4981    34859.378    43494.343   -49132.227      15.2149      13.1765      28.7324    5760.2466 
  154500      154.487    258.83556     10.80665    -549.9068   -539.10014    9986.2817    33198.627    45625.693   -48865.475      15.2149      13.1765      28.7324    5760.2466 
  155000      154.987    243.61759    10.171284   -549.25484   -539.08356    9391.6685    29807.007    45600.307   -47232.309      15.2149      13.1765      28.7324    5760.2466 
  155500      155.487    243.33926    10.159664   -549.22767   -539.06801    9482.3832    33406.056    48191.006   -53149.912      15.2149      13.1765      28.7324    5760.2466 
  156000      155.987    259.76933    10.845636   -549.89731   -539.05168    9020.0343    33297.054    49578.318   -55815.269      15.2149      13.1765      28.7324    5760.2466 
  156500      156.487    251.32117    10.492917   -549.52836   -539.03544    9495.5063     33405.33    43722.143   -48640.953      15.2149      13.1765      28.7324    5760.2466 
  157000      156.987    261.07876    10.900306   -549.91999   -539.01968    8944.5849    34445.005    45456.437   -53067.687      15.2149      13.1765      28.7324    5760.2466 
  157500      157.487    249.74571     10.42714   -549.42945   -539.00231    8991.2839    29656.305    46179.731   -48862.184      15.2149      13.1765      28.7324    5760.2466 
  158000      157.987    269.62052    11.256933   -550.24412   -538.98719     8326.671    33783.094    44041.026   -52844.107      15.2149      13.1765      28.7324    5760.2466 
  158500      158.487    252.16523    10.528157   -549.49772   -538.96956    9418.5878    34609.431    47876.675   -54230.343      15.2149      13.1765      28.7324    5760.2466 
  159000      158.987    259.25308    10.824082   -549.77688   -538.95279    9004.5283    35584.405    42195.823   -50766.643      15.2149      13.1765      28.7324    5760.2466 
  159500      159.487    264.75518    11.053801   -549.99064   -538.93684    8570.5444    34222.017    46023.416   -54533.799      15.2149      13.1765      28.7324    5760.2466 
  160000      159.987    260.52383    10.877138    -549.7976   -538.92046    8853.2443     33113.99    45535.705   -52089.962      15.2149      13.1765      28.7324    5760.2466 
  160500      160.487    259.30692     10.82633   -549.73041   -538.90408    9144.0115    29870.054    48142.792   -50580.811      15.2149      13.1765      28.7324    5760.2466 
  161000      160.987    274.60943    11.465226   -550.35356   -538.88833    10651.934    31642.559    47724.753   -47411.509      15.2149      13.1765      28.7324    5760.2466 
  161500      161.487    276.47244    11.543008   -550.41492   -538.87191    9975.5195    34027.775    42535.412   -46636.629      15.2149      13.1765      28.7324    5760.2466 
  162000      161.987     246.4266    10.288564   -549.14236   -538.85379    11013.443    34292.388    48848.017   -50100.077      15.2149      13.1765      28.7324    5760.2466 
  162500      162.487    249.80987    10.429819   -549.26657   -538.83675    9727.1585     33852.86    47680.043   -52351.428      15.2149      13.1765      28.7324    5760.2466 
  163000      162.987    272.14876     11.36249   -550.18444   -538.82195    9094.5003    32630.456    43475.451   -48822.406      15.2149      13.1765      28.7324    5760.2466 
  163500      163.487    261.79084    10.930036   -549.73572   -538.80568    8924.4142    32232.382    44994.185   -50453.324      15.2149      13.1765      28.7324    5760.2466 
  164000      163.987     256.7175    10.718219   -549.50606   -538.78785     9673.625    36956.447    44547.283   -52482.856      15.2149      13.1765      28.7324    5760.2466 
  164500      164.487    260.41839    10.872735   -549.64412   -538.77138    10233.775    36273.325    45585.043   -51157.042      15.2149      13.1765      28.7324    5760.2466 
  165000      164.987    257.63098    10.756358   -549.51119   -538.75484    9604.7122    31690.248    42966.591   -45842.702      15.2149      13.1765      28.7324    5760.2466 
  165500      165.487    256.99022    10.729606   -549.46774   -538.73813    9754.1738    30841.773    45205.123   -46784.375      15.2149      13.1765      28.7324    5760.2466 
  166000      165.987    257.52565     10.75196   -549.47456    -538.7226     8857.146    34002.843    43342.393   -50773.798      15.2149      13.1765      28.7324    5760.2466 
  166500      166.487    259.37644    10.829233    -549.5344   -538.70517    9870.1691    32036.815     44519.47   -46945.777      15.2149      13.1765      28.7324    5760.2466 
  167000      166.987    256.28746    10.700264   -549.38853   -538.68826    8646.5764    31814.271    45658.379   -51532.921      15.2149      13.1765      28.7324    5760.2466 
  167500      167.487    263.24334     10.99068   -549.66269   -538.67201    8532.1191    31697.923    43402.269   -49503.835      15.2149      13.1765      28.7324    5760.2466 
  168000      167.987    252.15566    10.527758   -549.18288   -538.65512    8782.3798    32081.883    48934.884   -54669.628      15.2149      13.1765      28.7324    5760.2466 
  168500      168.487      267.322    11.160968   -549.79924   -538.63827    10902.493    32975.712    47551.536   -47819.768      15.2149      13.1765      28.7324    5760.2466 
  169000      168.987    273.17262    11.405238   -550.02743   -538.62219    9177.9936    33807.213    44885.999   -51159.232      15.2149      13.1765      28.7324    5760.2466 
  169500      169.487    265.33477    11.077999   -549.68386   -538.60586    10340.046    36493.312    44154.725   -49627.899      15.2149      13.1765      28.7324    5760.2466 
  170000      169.987    265.93779    11.103176   -549.69175   -538.58858    9843.8043    33262.749    47184.829   -50916.165      15.2149      13.1765      28.7324    5760.2466 
  170500      170.487    264.74337    11.053308   -549.62503   -538.57172    9163.0809    33462.789    43569.275   -49542.821      15.2149      13.1765      28.7324    5760.2466 
  171000      170.987     263.5529    11.003604   -549.55743   -538.55382    8531.6244    31218.663    43369.581    -48993.37      15.2149      13.1765      28.7324    5760.2466 
  171500      171.487    253.97314    10.603639    -549.1401   -538.53646    10103.988    29975.396    44259.086   -43922.517      15.2149      13.1765      28.7324    5760.2466 
  172000      171.987    264.50473    11.043344   -549.56379   -538.52045    8679.1076    34839.654    41092.634   -49894.966      15.2149      13.1765      28.7324    5760.2466 
  172500      172.487    258.86149    10.807733   -549.31058   -538.50285    7776.1636    33444.841    48124.151   -58240.501      15.2149      13.1765      28.7324    5760.2466 
  173000      172.987    261.08624    10.900619   -549.38677   -538.48615    9014.2123    33917.848     46840.44   -53715.651      15.2149      13.1765      28.7324    5760.2466 
  173500      173.487    273.23852    11.407989   -549.87753   -538.46955    10668.295    33819.454    51000.952   -52815.522      15.2149      13.1765      28.7324    5760.2466 
  174000      173.987    248.33756    10.368348   -548.82005    -538.4517    11058.334    33559.416    49279.858   -49664.273      15.2149      13.1765      28.7324    5760.2466 
  174500      174.487    255.06019    10.649025   -549.08444   -538.43542    9368.2479    32546.025    45782.074   -50223.355      15.2149      13.1765      28.7324    5760.2466 
  175000      174.987     284.2072    11.865942   -550.28603   -538.42009    10515.951     34048.23    46960.103   -49460.479      15.2149      13.1765      28.7324    5760.2466 
  175500      175.487    259.60709    10.838863   -549.24027   -538.40141    10409.839    35629.886    49786.138   -54186.507      15.2149      13.1765      28.7324    5760.2466 
  176000      175.987    249.16669    10.402965   -548.78584   -538.38288    10488.906    34446.905    46219.349   -49199.536      15.2149      13.1765      28.7324    5760.2466 
  176500      176.487    269.50198    11.251985   -549.61927   -538.36728    9113.5593     33715.57     43473.27   -49848.162      15.2149      13.1765      28.7324    5760.2466 
  177000      176.987    267.14096    11.153409   -549.50339   -538.34998     9138.134    29880.045      44748.7   -47214.343      15.2149      13.1765      28.7324    5760.2466 
  177500      177.487    258.17312    10.778993   -549.11302   -538.33403      9452.01    34900.795    45217.002   -51761.766      15.2149      13.1765      28.7324    5760.2466 
  178000      177.987    264.50029    11.043159   -549.35884   -538.31568    8913.3474    34918.228    46446.613   -54624.799      15.2149      13.1765      28.7324    5760.2466 
  178500      178.487    262.44779    10.957465    -549.2569   -538.29943    9932.0257    33034.477    46783.321   -50021.721      15.2149      13.1765      28.7324    5760.2466 
  179000      178.987    253.64817    10.590071   -548.87309   -538.28301    10183.374    35713.524    48903.316   -54066.718      15.2149      13.1765      28.7324    5760.2466 
  179500      179.487    263.31701    10.993755   -549.25907   -538.26531    9567.5821    30433.213    48088.087   -49818.554      15.2149      13.1765      28.7324    5760.2466 
  180000      179.987    278.96379    11.647025   -549.89608   -538.24906    10849.282    32947.865    48193.106   -48593.124      15.2149      13.1765      28.7324    5760.2466 
  180500      180.487    269.77192    11.263255   -549.49483   -538.23157    8675.5018    33188.021    45883.299   -53044.814      15.2149      13.1765      28.7324    5760.2466 
  181000      180.987    253.79023    10.596003   -548.81028   -538.21428    8220.9772    32302.638    45593.109   -53232.816      15.2149      13.1765      28.7324    5760.2466 
  181500      181.487    272.42257    11.373922   -549.57192   -538.19799    8785.4792    34189.382    43741.363   -51574.307      15.2149      13.1765      28.7324    5760.2466 
  182000      181.987     271.8601    11.350438   -549.53203   -538.18159    9113.3397    33491.902    47042.218     -53194.1      15.2149      13.1765      28.7324    5760.2466 
  182500      182.487    253.82394     10.59741   -548.75797   -538.16056    10252.655    35101.938    51236.651   -55580.624      15.2149      13.1765      28.7324    5760.2466 
  183000      182.987    278.90214    11.644451   -549.79065    -538.1462    8109.1802    33148.382    47560.341   -56381.183      15.2149      13.1765      28.7324    5760.2466 
  183500      183.487    268.53773    11.211726   -549.33937   -538.12765    8380.8753    33197.406    46704.324   -54759.104      15.2149      13.1765      28.7324    5760.2466 
  184000      183.987     271.5688    11.338276   -549.44899   -538.11071    8203.8235    34287.352    42041.039   -51716.921      15.2149      13.1765      28.7324    5760.2466 
  184500      184.487    266.55826    11.129081   -549.22219    -538.0931    10003.659    35401.102    44728.744   -50118.869      15.2149      13.1765      28.7324    5760.2466 
  185000      184.987    280.29651    11.702667   -549.77946    -538.0768    8345.5599    30252.242    47097.189   -52312.752      15.2149      13.1765      28.7324    5760.2466 
  185500      185.487    263.04017    10.982197   -549.04106   -538.05887    8794.9559    35259.958    46104.048   -54979.138      15.2149      13.1765      28.7324    5760.2466 
  186000      185.987    267.79756    11.180823   -549.22162    -538.0408    8916.7777    30320.798    48934.736   -52505.201      15.2149      13.1765      28.7324    5760.2466 
  186500      186.487    279.06817    11.651383   -549.67512   -538.02374    8992.1522    33893.119    47792.371   -54709.034      15.2149      13.1765      28.7324    5760.2466 
  187000      186.987    276.61661    11.549027   -549.55514   -538.00611    9767.9909    35037.203    41895.239   -47628.469      15.2149      13.1765      28.7324    5760.2466 
  187500      187.487    270.23876    11.282746   -549.27255    -537.9898    10584.612    34076.344    48377.047   -50699.556      15.2149      13.1765      28.7324    5760.2466 
  188000      187.987    262.45398    10.957723   -548.92852   -537.97079    9403.6318     32828.72    43899.087   -48516.912      15.2149      13.1765      28.7324    5760.2466 
  188500      188.487    261.33425    10.910973   -548.86436   -537.95338    8650.4273    31330.342    43791.306   -49170.366      15.2149      13.1765      28.7324    5760.2466 
  189000      188.987    270.29577    11.285126    -549.2224   -537.93727    9461.0153    34870.019    44021.177    -50508.15      15.2149      13.1765      28.7324    5760.2466 
  189500      189.487    262.42662    10.956581   -548.87548    -537.9189    9901.3963    37133.631    44353.347   -51782.789      15.2149      13.1765      28.7324    5760.2466 
  190000      189.987    261.34243    10.911315   -548.81409   -537.90277    8764.5891    32055.019     47936.63   -53697.882      15.2149      13.1765      28.7324    5760.2466 
  190500      190.487    275.08849    11.485227   -549.37064   -537.88541     9081.356     33425.18     45430.13   -51611.241      15.2149      13.1765      28.7324    5760.2466 
  191000      190.987    262.86022    10.974684   -548.84219   -537.86751    9783.0415    33699.034    43602.142   -47952.051      15.2149      13.1765      28.7324    5760.2466 
  191500      191.487    281.04444    11.733894    -549.5846   -537.85071    9246.3393    34406.584    47882.291   -54549.857      15.2149      13.1765      28.7324    5760.2466 
  192000      191.987    264.42939    11.040199   -548.87199   -537.83179    8619.3386    34092.442    37423.777   -45658.203      15.2149      13.1765      28.7324    5760.2466 
  192500      192.487    256.71137    10.717963   -548.53252   -537.81456    9130.6383    35269.013    44646.781    -52523.88      15.2149      13.1765      28.7324    5760.2466 
  193000      192.987     267.8821    11.184353   -548.98088   -537.79653    9382.5694     33539.14    49068.391   -54459.822      15.2149      13.1765      28.7324    5760.2466 
  193500      193.487    265.53023     11.08616   -548.86587   -537.77971    10873.937    31988.944    46784.291   -46151.426      15.2149      13.1765      28.7324    5760.2466 
  194000      193.987    262.78048    10.971355   -548.73262   -537.76126    10397.799    34112.246    47744.283   -50663.133      15.2149      13.1765      28.7324    5760.2466 
  194500      194.487    266.96721    11.146155   -548.89008   -537.74392    9864.6359    31982.521    44384.536   -46773.149      15.2149      13.1765      28.7324    5760.2466 
  195000      194.987    266.36808    11.121141   -548.84807   -537.72693     9836.495    33031.006    45513.068   -49034.589      15.2149      13.1765      28.7324    5760.2466 
  195500      195.487    274.43647    11.458004   -549.16862   -537.71061    9602.5706    32424.029    49370.586   -52986.903      15.2149      13.1765      28.7324    5760.2466 
  196000      195.987    273.19189    11.406042   -549.09811   -537.69207    10161.525    35978.261     44007.76   -49501.446      15.2149      13.1765      28.7324    5760.2466 
  196500      196.487    291.05639    12.151903   -549.82669   -537.67479    10160.411    32932.867    45543.571   -47995.206      15.2149      13.1765      28.7324    5760.2466 
  197000      196.987    274.96097    11.479903   -549.13626   -537.65636    9770.4963    36515.354    45577.066   -52780.931      15.2149      13.1765      28.7324    5760.2466 
  197500      197.487    281.30402    11.744732    -549.3845   -537.63977    10586.906    34624.177    51310.268   -54173.728      15.2149      13.1765      28.7324    5760.2466 
  198000      197.987    265.54481    11.086769   -548.70736   -537.62059    9896.8576    30952.504    47136.732   -48398.663      15.2149      13.1765      28.7324    5760.2466 
  198500      198.487    277.49178    11.585567   -549.18879   -537.60322    11128.736    36032.257    47459.843   -50105.894      15.2149      13.1765      28.7324    5760.2466 
  199000      198.987    275.83485    11.516388    -549.1021   -537.58572    9477.3922     33794.01    48275.902   -53637.736      15.2149      13.1765      28.7324    5760.2466 
  199500      199.487    270.63832    11.299428   -548.86841   -537.56898    9778.8234    30311.755    48069.455   -49044.739      15.2149      13.1765      28.7324    5760.2466 
  200000      199.987    271.43664    11.332758   -548.88319   -537.55043    10035.495     33730.39    48829.064   -52452.971      15.2149      13.1765      28.7324    5760.2466 
  200500      200.487     270.7512    11.304141   -548.83682   -537.53268    8218.2253    32096.159     46254.12   -53695.603      15.2149      13.1765      28.7324    5760.2466 
  201000      200.987     276.3007    11.535838   -549.05115   -537.51531    10521.564    32885.061    50275.932   -51596.303      15.2149      13.1765      28.7324    5760.2466 
  201500      201.487    252.63167    10.547632   -548.04315   -537.49552    10454.522     33736.25    46561.312   -48933.997      15.2149      13.1765      28.7324    5760.2466 
  202000      201.987     263.5805    11.004757    -548.4844   -537.47964    9547.2991    33345.569    45073.421   -49777.093      15.2149      13.1765      28.7324    5760.2466 
  202500      202.487    269.42737    11.248869   -548.71011   -537.46124    9654.3894    36075.763    42751.165    -49863.76      15.2149      13.1765      28.7324    5760.2466 
  203000      202.987    285.61517    11.924726   -549.36985   -537.44512    9015.0489    32526.135    48295.145   -53776.133      15.2149      13.1765      28.7324    5760.2466 
  203500      203.487    279.32706    11.662192   -549.08883   -537.42664    10033.373     33194.01    50816.787   -53910.679      15.2149      13.1765      28.7324    5760.2466 
  204000      203.987    277.64995    11.592171   -549.00166   -537.40949    9866.9313    35208.282    46352.644   -51960.133      15.2149      13.1765      28.7324    5760.2466 
  204500      204.487    268.90728    11.227155   -548.61819   -537.39103    9548.2165    32470.057    45465.033   -49290.441      15.2149      13.1765      28.7324    5760.2466 
  205000      204.987      287.024    11.983547     -549.357   -537.37346    10307.186    36446.377    46424.919   -51949.739      15.2149      13.1765      28.7324    5760.2466 
  205500      205.487    286.71599    11.970687   -549.32642   -537.35573     8854.165    33750.456    46677.138     -53865.1      15.2149      13.1765      28.7324    5760.2466 
  206000      205.987    282.08615    11.777386   -549.11459   -537.33721    9833.8473    34814.416    49489.667   -54802.541      15.2149      13.1765      28.7324    5760.2466 
  206500      206.487    300.72492    12.555574   -549.87715   -537.32157    8339.0509     34010.54    46341.172   -55334.559      15.2149      13.1765      28.7324    5760.2466 
  207000      206.987    275.25406    11.492139    -548.7927   -537.30056    9250.9665     34321.62    50198.472   -56767.193      15.2149      13.1765      28.7324    5760.2466 
  207500      207.487    279.65916    11.676057   -548.96044   -537.28439    9596.3795    32589.517    48304.317   -52104.695      15.2149      13.1765      28.7324    5760.2466 
  208000      207.987    271.08478    11.318068   -548.58416   -537.26609    9710.4149     32835.97    52860.389   -56565.115      15.2149      13.1765      28.7324    5760.2466 
  208500      208.487    273.22075    11.407247    -548.6553   -537.24805    9181.0589    36360.354    46456.223     -55273.4      15.2149      13.1765      28.7324    5760.2466 
  209000      208.987    281.91189    11.770111   -549.00013   -537.23002    9306.5892    33704.387    49016.409   -54801.028      15.2149      13.1765      28.7324    5760.2466 
  209500      209.487    277.07103       11.568   -548.77968   -537.21168    10146.911    33633.576    45207.597   -48400.439      15.2149      13.1765      28.7324    5760.2466 
  210000      209.987    273.59276    11.422779   -548.61684   -537.19406    10139.597      33997.2    47203.832    -50782.24      15.2149      13.1765      28.7324    5760.2466 
  210500      210.487    280.14611    11.696388   -548.87307   -537.17668    8786.9367    35565.824    43812.123   -53017.137      15.2149      13.1765      28.7324    5760.2466 
  211000      210.987    290.42455    12.125523   -549.28439   -537.15887    9800.8727    34642.096    49271.037   -54510.515      15.2149      13.1765      28.7324    5760.2466 
  211500      211.487    276.29843    11.535743   -548.67579   -537.14004    9628.9585    36988.003    44953.019   -53054.146      15.2149      13.1765      28.7324    5760.2466 
  212000      211.987    287.37019       11.998   -549.12047   -537.12247    10417.765    34223.123    47499.821   -50469.649      15.2149      13.1765      28.7324    5760.2466 
[...]
  948500      948.487    356.28724    14.875358   -544.39041   -529.51506    11913.639    34437.815    49818.922   -48515.819      15.2149      13.1765      28.7324    5760.2466 
  949000      948.987    345.42716    14.421938   -543.93644    -529.5145    12159.836    39917.888     48233.97   -51672.351      15.2149      13.1765      28.7324    5760.2466 
  949500      949.487    370.08429    15.451399   -544.96709   -529.51569    11839.859    35991.384    53596.252    -54068.06      15.2149      13.1765      28.7324    5760.2466 
  950000      949.987    349.69586    14.600161   -544.11562   -529.51546    12909.904    40125.895    51568.399   -52964.581      15.2149      13.1765      28.7324    5760.2466 
  950500      950.487    376.64617    15.725364   -545.24183   -529.51646    11790.326    35815.403    51823.617   -52268.041      15.2149      13.1765      28.7324    5760.2466 
  951000      950.987    381.76031    15.938885   -545.45431   -529.51542    11306.296    41180.846    43788.265   -51050.223      15.2149      13.1765      28.7324    5760.2466 
  951500      951.487    363.80481    15.189224   -544.70464   -529.51542     10962.89    37341.564    50582.183   -55035.078      15.2149      13.1765      28.7324    5760.2466 
  952000      951.987    398.07317    16.619964    -546.1352   -529.51523    11869.525    39242.451    48782.504    -52416.38      15.2149      13.1765      28.7324    5760.2466 
  952500      952.487    381.18449    15.914844   -545.42701   -529.51216    12292.036    33885.939     51203.11   -48212.942      15.2149      13.1765      28.7324    5760.2466 
  953000      952.987    369.85915    15.441999   -544.95344   -529.51144    12595.458    41344.815    49394.618    -52953.06      15.2149      13.1765      28.7324    5760.2466 
  953500      953.487    358.47029    14.966503   -544.47632   -529.50981    12284.329    35962.843    49692.172   -48802.026      15.2149      13.1765      28.7324    5760.2466 
  954000      953.987    378.93098    15.820757   -545.33069   -529.50994    11519.543     39805.23    49078.202   -54324.805      15.2149      13.1765      28.7324    5760.2466 
  954500      954.487    374.39092    15.631206   -545.14183   -529.51063    11857.402    32351.756    53538.688   -50318.238      15.2149      13.1765      28.7324    5760.2466 
  955000      954.987    370.74363    15.478927   -544.98816   -529.50923    12376.292    33666.201    50337.482   -46874.808      15.2149      13.1765      28.7324    5760.2466 
  955500      955.487    358.61035     14.97235   -544.48052   -529.50817    13497.546    35097.844     53885.94   -48491.147      15.2149      13.1765      28.7324    5760.2466 
  956000      955.987    353.24582    14.748376   -544.25303   -529.50466    12136.428    36832.146    52231.912   -52654.774      15.2149      13.1765      28.7324    5760.2466 
  956500      956.487    378.03926    15.783527   -545.28824   -529.50471    12028.222    32737.243    47242.559   -43895.137      15.2149      13.1765      28.7324    5760.2466 
  957000      956.987    374.14892    15.621101   -545.12592   -529.50482    10810.739    40222.152     50749.99   -58539.925      15.2149      13.1765      28.7324    5760.2466 
  957500      957.487    384.03084    16.033682   -545.53702   -529.50334    11639.775    35873.122    48172.644   -49126.442      15.2149      13.1765      28.7324    5760.2466 
  958000      957.987    380.68828    15.894127   -545.39573   -529.50161    12203.242    36355.283    52304.188   -52049.746      15.2149      13.1765      28.7324    5760.2466 
  958500      958.487    384.75361    16.063858   -545.56208   -529.49822    12119.521    36661.235    48646.833   -48949.506      15.2149      13.1765      28.7324    5760.2466 
  959000      958.987     376.6625    15.726046   -545.22395    -529.4979    10648.295    33556.593    47520.153   -49131.861      15.2149      13.1765      28.7324    5760.2466 
  959500      959.487    370.10622    15.452315   -544.94723   -529.49492    12037.503    38394.673    48445.986   -50728.151      15.2149      13.1765      28.7324    5760.2466 
  960000      959.987    370.21977    15.457055   -544.95237   -529.49531    12149.228    34279.106    49735.888   -47567.309      15.2149      13.1765      28.7324    5760.2466 
  960500      960.487    384.89208    16.069639     -545.564   -529.49436    12460.662    38231.408    44510.112   -45359.535      15.2149      13.1765      28.7324    5760.2466 
  961000      960.987    363.75791    15.187266   -544.67963   -529.49236    11741.499     39613.72    47376.988    -51766.21      15.2149      13.1765      28.7324    5760.2466 
  961500      961.487    376.72997    15.728863   -545.21908   -529.49022     10492.65    37739.818    47263.604   -53525.473      15.2149      13.1765      28.7324    5760.2466 
  962000      961.987    376.58103    15.722645   -545.21249   -529.48984    12248.361    34947.112    48325.446   -46527.475      15.2149      13.1765      28.7324    5760.2466 
  962500      962.487    374.73472    15.645559   -545.13143   -529.48587    11762.517    34792.625    52037.733   -51542.806      15.2149      13.1765      28.7324    5760.2466 
  963000      962.987    365.44312    15.257626   -544.74237   -529.48474    13428.329    36478.719    50931.991   -47125.723      15.2149      13.1765      28.7324    5760.2466 
  963500      963.487     374.7613    15.646669      -545.13   -529.48333     11593.03    36624.598    50120.664   -51966.173      15.2149      13.1765      28.7324    5760.2466 
  964000      963.987    366.76384    15.312767    -544.7951   -529.48234    10715.874    33424.934    50904.622   -52181.933      15.2149      13.1765      28.7324    5760.2466 
  964500      964.487    378.84181    15.817035    -545.2956   -529.47857    11953.496    31134.801     52404.97   -47679.284      15.2149      13.1765      28.7324    5760.2466 
  965000      964.987    372.03249    15.532739    -545.0094   -529.47666     11256.16    35393.067    52061.453   -53686.041      15.2149      13.1765      28.7324    5760.2466 
  965500      965.487    381.10517    15.911532   -545.38793    -529.4764    12445.844    37160.481    46065.565   -45888.513      15.2149      13.1765      28.7324    5760.2466 
  966000      965.987    363.20477    15.164172   -544.63876   -529.47458    10969.799    36594.153    50372.878   -54057.635      15.2149      13.1765      28.7324    5760.2466 
  966500      966.487    361.09586    15.076123   -544.54575   -529.46963    12250.561    33474.377    46673.786   -43396.481      15.2149      13.1765      28.7324    5760.2466 
  967000      966.987    388.23013    16.209007   -545.67814   -529.46913    13522.603    35989.569    50562.426   -45984.186      15.2149      13.1765      28.7324    5760.2466 
  967500      967.487    356.80671    14.897046   -544.36276   -529.46572    10753.234    32688.508    54285.738   -54714.545      15.2149      13.1765      28.7324    5760.2466 
  968000      967.987    374.64941    15.641997   -545.10606   -529.46406    11978.431    34326.117    48469.156   -46859.981      15.2149      13.1765      28.7324    5760.2466 
  968500      968.487     366.1823    15.288487   -544.75006   -529.46157    12904.456    35999.915    49940.392   -47226.938      15.2149      13.1765      28.7324    5760.2466 
  969000      968.987    364.88209    15.234202   -544.69217   -529.45796    10767.312    36823.798    46762.063   -51283.925      15.2149      13.1765      28.7324    5760.2466 
  969500      969.487    379.69783    15.852774   -545.30862   -529.45585    11284.162    35513.825    52554.814   -54216.153      15.2149      13.1765      28.7324    5760.2466 
  970000      969.987    348.60527    14.554628   -544.00737   -529.45274    12864.765    33721.218     50837.65   -45964.573      15.2149      13.1765      28.7324    5760.2466 
  970500      970.487    361.12688    15.077418    -544.5274   -529.44998    11882.804    38990.104    48689.006   -52030.698      15.2149      13.1765      28.7324    5760.2466 
  971000      970.987    366.07116    15.283847    -544.7314   -529.44756    12394.492    36200.567    50426.977   -49444.069      15.2149      13.1765      28.7324    5760.2466 
  971500      971.487    390.01655    16.283591   -545.72918   -529.44559    11568.002    35349.287    48323.067   -48968.347      15.2149      13.1765      28.7324    5760.2466 
  972000      971.987    364.87749     15.23401   -544.67672   -529.44271    11159.229    34032.387    48545.729   -49100.429      15.2149      13.1765      28.7324    5760.2466 
  972500      972.487    351.69215    14.683509   -544.12241    -529.4389    11349.906    36005.799    46769.951   -48726.033      15.2149      13.1765      28.7324    5760.2466 
  973000      972.987    371.79796    15.522947   -544.95952   -529.43657    11412.251    35493.208    47435.046   -48691.501      15.2149      13.1765      28.7324    5760.2466 
  973500      973.487    379.44389    15.842172   -545.27589   -529.43372    10359.788    34869.704     51646.27   -55436.609      15.2149      13.1765      28.7324    5760.2466 
  974000      973.987    368.86145    15.400344    -544.8313   -529.43095    11420.056    40189.052    52881.438   -58810.323      15.2149      13.1765      28.7324    5760.2466 
  974500      974.487    377.14539    15.746207   -545.17629   -529.43008    12545.129    37087.949    49992.651   -49445.214      15.2149      13.1765      28.7324    5760.2466 
  975000      974.987    363.25926    15.166447   -544.59211   -529.42566    11245.275    40555.556    52812.045   -59631.776      15.2149      13.1765      28.7324    5760.2466 
  975500      975.487    390.84397    16.318137   -545.74264    -529.4245    13094.847    35981.266    54833.313   -51530.036      15.2149      13.1765      28.7324    5760.2466 
  976000      975.987    381.77756    15.939605   -545.36058   -529.42097     12993.85    34019.264    52727.043   -47764.756      15.2149      13.1765      28.7324    5760.2466 
  976500      976.487    353.05055    14.740223   -544.15662   -529.41639     13183.61    41239.513    48375.865   -50064.547      15.2149      13.1765      28.7324    5760.2466 
  977000      976.987    376.29681    15.710778   -545.12661   -529.41583    11929.069    37429.591    44259.811   -45902.194      15.2149      13.1765      28.7324    5760.2466 
  977500      977.487    377.45235    15.759023   -545.17201   -529.41299    12082.251     37564.68    46423.649   -47741.574      15.2149      13.1765      28.7324    5760.2466 
  978000      977.987    367.38593     15.33874   -544.74652   -529.40778    11747.754    39211.384    50415.114   -54383.235      15.2149      13.1765      28.7324    5760.2466 
  978500      978.487    364.78691    15.230228   -544.63481   -529.40459    11265.722    34582.709    52425.769   -53211.311      15.2149      13.1765      28.7324    5760.2466 
  979000      978.987    376.84549    15.733686   -545.13581   -529.40213    10465.007    38522.949    51232.081    -58360.01      15.2149      13.1765      28.7324    5760.2466 
  979500      979.487    376.59173    15.723091   -545.12218   -529.39909    11903.522    34469.023        48691   -47449.455      15.2149      13.1765      28.7324    5760.2466 
  980000      979.987    371.98699    15.530839    -544.9265   -529.39566    12249.162    38400.902     47069.29   -48722.707      15.2149      13.1765      28.7324    5760.2466 
  980500      980.487    371.85851    15.525475   -544.91827   -529.39279    12651.564    41088.285    51187.199   -54320.791      15.2149      13.1765      28.7324    5760.2466 
  981000      980.987    382.96039     15.98899   -545.37833   -529.38934    11909.243    34578.913    48688.319   -47539.504      15.2149      13.1765      28.7324    5760.2466 
  981500      981.487    346.18559    14.453604   -543.83757   -529.38396    11707.519    35747.646    50254.156   -50879.244      15.2149      13.1765      28.7324    5760.2466 
  982000      981.987    361.98664    15.113314   -544.49634   -529.38303    12156.057    34672.153    51475.926   -49679.909      15.2149      13.1765      28.7324    5760.2466 
  982500      982.487    362.37512    15.129533    -544.5072   -529.37767    11778.798    35997.054    54447.578   -55108.237      15.2149      13.1765      28.7324    5760.2466 
  983000      982.987    380.52707    15.887396   -545.26312   -529.37573    12639.174    38687.428     47539.86   -48309.766      15.2149      13.1765      28.7324    5760.2466 
  983500      983.487     356.2651    14.874434   -544.24412   -529.36969    12315.143    36188.774    53525.977   -52769.323      15.2149      13.1765      28.7324    5760.2466 
  984000      983.987    358.93948    14.986092   -544.35325   -529.36716    11122.585    37342.182    50039.079   -54013.507      15.2149      13.1765      28.7324    5760.2466 
  984500      984.487    384.75586    16.063952   -545.42842   -529.36447    12330.626    34279.278    50929.729   -48217.127      15.2149      13.1765      28.7324    5760.2466 
  985000      984.987    381.88496    15.944089   -545.30543   -529.36134    12015.163    31335.783    51822.377   -47112.671      15.2149      13.1765      28.7324    5760.2466 
  985500      985.487    360.17897    15.037842   -544.39296   -529.35512    12338.783    35706.575    54728.875   -53419.101      15.2149      13.1765      28.7324    5760.2466 
  986000      985.987    364.44374      15.2159   -544.56664   -529.35074    11347.062    38692.321    48183.327    -52834.46      15.2149      13.1765      28.7324    5760.2466 
  986500      986.487    374.61928     15.64074   -544.98847   -529.34773    10497.632    35212.092    47630.897   -51350.094      15.2149      13.1765      28.7324    5760.2466 
  987000      986.987    363.87738    15.192254    -544.5356   -529.34334    11281.057    37994.915    47038.227   -51189.972      15.2149      13.1765      28.7324    5760.2466 
  987500      987.487    375.43115    15.674636    -545.0155   -529.34086    12360.769    37232.649    46758.069    -46908.41      15.2149      13.1765      28.7324    5760.2466 
  988000      987.987    357.87693    14.941729   -544.27739   -529.33566    10972.613    36729.826    47942.656   -51754.642      15.2149      13.1765      28.7324    5760.2466 
  988500      988.487    373.67656     15.60138   -544.93452   -529.33314    11227.528    40169.722    48347.631   -54834.768      15.2149      13.1765      28.7324    5760.2466 
  989000      988.987    373.35279    15.587862   -544.91671   -529.32885    12487.223    38737.512    52161.716    -53437.56      15.2149      13.1765      28.7324    5760.2466 
  989500      989.487    384.28792    16.044415   -545.37019   -529.32578    11060.703    36171.338    50879.377   -53868.608      15.2149      13.1765      28.7324    5760.2466 
  990000      989.987    384.95017    16.072065   -545.39394   -529.32187    11973.048     36117.13     49025.17   -49223.157      15.2149      13.1765      28.7324    5760.2466 
  990500      990.487    356.62054    14.889274   -544.20522   -529.31594    12374.292    38303.391    53055.009   -54235.524      15.2149      13.1765      28.7324    5760.2466 
  991000      990.987    368.95587    15.404286   -544.71654   -529.31226     10308.41    34878.945    47877.316   -51831.032      15.2149      13.1765      28.7324    5760.2466 
  991500      991.487    370.78819    15.480788   -544.78908   -529.30829     11168.68    38662.436     45246.85   -50403.245      15.2149      13.1765      28.7324    5760.2466 
  992000      991.987    390.02712    16.284033   -545.58808   -529.30405    11137.497    38312.959     45852.04   -50752.507      15.2149      13.1765      28.7324    5760.2466 
  992500      992.487    375.91853    15.694985   -544.99343   -529.29845    11210.136    33878.537    44951.549   -45199.679      15.2149      13.1765      28.7324    5760.2466 
  993000      992.987    369.65185    15.433344   -544.72624    -529.2929    11270.451    33945.761    47825.591   -47959.999      15.2149      13.1765      28.7324    5760.2466 
  993500      993.487    379.26733      15.8348   -545.12385   -529.28904    12188.627    35342.681     47695.59   -46472.389      15.2149      13.1765      28.7324    5760.2466 
  994000      993.987    388.19426    16.207509   -545.49396   -529.28645    12921.945    36101.038     47653.58   -44988.784      15.2149      13.1765      28.7324    5760.2466 
  994500      994.487    374.40689    15.631872   -544.91224   -529.28037    12915.034    36405.874    49200.485   -46861.256      15.2149      13.1765      28.7324    5760.2466 
  995000      994.987    378.67317    15.809994   -545.08555   -529.27555     11436.04    31903.678    49298.597   -46894.155      15.2149      13.1765      28.7324    5760.2466 
  995500      995.487    377.04631    15.742071   -545.01316   -529.27109    12600.692    30846.037    48334.935   -41378.897      15.2149      13.1765      28.7324    5760.2466 
  996000      995.987    359.68414    15.017182   -544.28159    -529.2644     11425.71    33817.575    51501.318   -51041.764      15.2149      13.1765      28.7324    5760.2466 
  996500      996.487    393.68532    16.436766   -545.69864   -529.26187    12865.144    32744.438    52779.299   -46928.304      15.2149      13.1765      28.7324    5760.2466 
  997000      996.987    363.95194    15.195367   -544.45064   -529.25528    12165.002    36817.902     45262.09   -45584.984      15.2149      13.1765      28.7324    5760.2466 
  997500      997.487     407.4271      17.0105   -546.26299   -529.25249    11298.221    33481.181    50781.978   -50368.497      15.2149      13.1765      28.7324    5760.2466 
  998000      997.987    378.52517    15.803815   -545.05251    -529.2487    11911.997    30705.409    51338.161   -46307.579      15.2149      13.1765      28.7324    5760.2466 
  998500      998.487    359.85662    15.024383   -544.26552   -529.24114    10472.089    34614.947    49599.666   -52798.347      15.2149      13.1765      28.7324    5760.2466 
  999000      998.987    382.16165    15.955641   -545.19221   -529.23657    11771.487    39763.819    50000.343   -54449.701      15.2149      13.1765      28.7324    5760.2466 
  999500      999.487    354.51468    14.801352   -544.03199   -529.23064    10987.941    37815.375    49062.434   -53913.986      15.2149      13.1765      28.7324    5760.2466 
 1000000      999.987    385.33363    16.088075    -545.3152   -529.22712    11045.785    38464.384    50794.673   -56121.701      15.2149      13.1765      28.7324    5760.2466 
 1000013         1000     370.3818    15.463821   -544.69018   -529.22636    12147.545    39388.916    46909.595   -49855.877      15.2149      13.1765      28.7324    5760.2466 
Loop time of 879.703 on 28 procs for 1000000 steps with 324 atoms

Performance: 98.215 ns/day, 0.244 hours/ns, 1136.748 timesteps/s
87.0% CPU use with 28 MPI tasks x no OpenMP threads

MPI task timing breakdown:
Section |  min time  |  avg time  |  max time  |%varavg| %total
---------------------------------------------------------------
Pair    | 721.41     | 765.64     | 803.62     |  88.3 | 87.03
Neigh   | 0          | 0          | 0          |   0.0 |  0.00
Comm    | 59.538     | 100.91     | 144.01     | 242.4 | 11.47
Output  | 0.099882   | 0.10182    | 0.12268    |   1.3 |  0.01
Modify  | 5.11       | 7.9556     | 11.649     |  80.7 |  0.90
Other   |            | 5.097      |            |       |  0.58

Nlocal:    11.5714 ave 15 max 7 min
Histogram: 3 3 0 4 0 1 5 4 4 4
Nghost:    659.464 ave 716 max 622 min
Histogram: 12 0 0 0 8 0 0 1 4 3
Neighs:    724.5 ave 1001 max 418 min
Histogram: 3 3 0 4 1 4 2 7 2 2
FullNghs:  1449 ave 1875 max 887 min
Histogram: 3 3 0 4 1 1 4 4 3 5

Total # of neighbors = 40572
Ave neighs/atom = 125.222
Neighbor list builds = 0
Dangerous builds = 0

write_restart   POSCAR_1x1x1.rest

#unfix    1
#undump   1
Total wall time: 0:14:39
