LAMMPS (7 Dec 2015)
#----------- Initialize Simulation ------------ restart01
#processors	2 2 2
units		metal
boundary	p p p     ## periodic boundary condition  on x y z axis ##
atom_style atomic
#atom_modify map array sort 0 0.0

read_data	POSCAR_1x1x1.lammps
  triclinic box = (0 0 0) to (15.2149 13.1765 28.7324) with tilt (-7.60743 0 0)
  2 by 2 by 7 MPI processor grid
  reading atoms ...
  324 atoms

#----------- Define Potential -----------------
pair_style meam
pair_coeff * * MgAlZn.library.meam Mg Al Zn MgAlZn.parameter.meam Mg Al Zn 	#1=Mg 2=Al 3=Zn	#atoms/mass

#----------- Neighbor List --------------------
neighbor 2.0 bin
neigh_modify delay 10 check yes

#--------------  Run a simulation (minimization) ---------------------------------------
minimize       1.0e-4   1.0e-6   100   1000          #結構優化的條件
WARNING: Resetting reneighboring criteria during minimization (../min.cpp:168)
Neighbor list info ...
  2 neighbor list requests
  update every 1 steps, delay 0 steps, check yes
  max neighbors/atom: 2000, page size: 100000
  master list distance cutoff = 8
  ghost atom cutoff = 8
  binsize = 4 -> bins = 6 4 8
Memory usage per processor = 8.65347 Mbytes
Step Temp E_pair E_mol TotEng Press 
       0            0   -473.68565            0   -473.68565    -3500.728 
      13            0   -488.71691            0   -488.71691   -10550.496 
Loop time of 0.0231976 on 28 procs for 13 steps with 324 atoms

86.5% CPU use with 28 MPI tasks x no OpenMP threads

Minimization stats:
  Stopping criterion = energy tolerance
  Energy initial, next-to-last, final = 
        -473.685651841     -488.687537831     -488.716905975
  Force two-norm initial, final = 18.6329 2.33761
  Force max component initial, final = 2.29821 0.627588
  Final line search alpha, max atom move = 0.239837 0.150519
  Iterations, force evaluations = 13 26

MPI task timing breakdown:
Section |  min time  |  avg time  |  max time  |%varavg| %total
---------------------------------------------------------------
Pair    | 0.018706   | 0.019832   | 0.020859   |   0.5 | 85.49
Neigh   | 0          | 0          | 0          |   0.0 |  0.00
Comm    | 0.0013919  | 0.00243    | 0.0035428  |   1.3 | 10.48
Output  | 0          | 0          | 0          |   0.0 |  0.00
Modify  | 0          | 0          | 0          |   0.0 |  0.00
Other   |            | 0.0009354  |            |       |  4.03

Nlocal:    11.5714 ave 15 max 8 min
Histogram: 1 4 7 0 1 5 0 5 1 4
Nghost:    663.5 ave 709 max 624 min
Histogram: 4 1 5 2 7 1 0 1 1 6
Neighs:    718.321 ave 951 max 500 min
Histogram: 2 3 4 4 0 4 5 1 1 4
FullNghs:  1436.64 ave 1877 max 1015 min
Histogram: 4 1 7 1 0 5 4 1 1 4

Total # of neighbors = 40226
Ave neighs/atom = 124.154
Neighbor list builds = 0
Dangerous builds = 0
velocity all  create 393.0 4928459 #rot yes dist gaussian

#--------------  Run a simulation (Relaxation)  ----------------------------------------
fix  1  all  nvt   temp  393.0  393.0  100				#damping constant
#fix  2  all  npt   temp  393.0  393.0  50 iso 0.0 0.0 1000.0
#fix  2  all deform 1 x final 0 15.6906 y final 0 13.5884 z final 0 25.2339 xy final -7.8452 units lattice
#fix  3  all  npt   temp  393.0  393.0  50 z 0.0 0.0 1000.0

#variable b equal 1
#fix 2 all efield  0.0  0.0  v_b
#compute pot all pe/atom


#----------- Output --------------------------
thermo	 500
timestep  0.001		#1.0 fs
thermo_style	custom step time temp ke pe etotal press pxx pyy pzz lx ly lz vol

dump 1 all custom 10000 dump.eq id type x y z
dump_modify 1 sort  id

run        1000000	#10000	 ps
Neighbor list info ...
  2 neighbor list requests
  update every 1 steps, delay 10 steps, check yes
  max neighbors/atom: 2000, page size: 100000
  master list distance cutoff = 8
  ghost atom cutoff = 8
  binsize = 4 -> bins = 6 4 8
Memory usage per processor = 7.54395 Mbytes
Step Time Temp KinEng PotEng TotEng Press Pxx Pyy Pzz Lx Ly Lz Volume 
      13            0          393    16.408154   -488.71691   -472.30875   -7507.9459    15401.577     22787.96   -60713.375      15.2149      13.1765      28.7324    5760.2466 
     500        0.487     218.5431     9.124399   -481.42875   -472.30435   -4994.8301    19584.968    28459.804   -63029.262      15.2149      13.1765      28.7324    5760.2466 
    1000        0.987    219.47254    9.1632038   -481.46737   -472.30417   -4929.9284    16893.919    28264.539   -59948.243      15.2149      13.1765      28.7324    5760.2466 
    1500        1.487     206.4606    8.6199419   -480.92366   -472.30372   -4644.7416    19588.595    29964.111   -63486.931      15.2149      13.1765      28.7324    5760.2466 
    2000        1.987     195.2072    8.1501012   -480.45226   -472.30216   -5576.1277    18732.307    30289.134   -65749.824      15.2149      13.1765      28.7324    5760.2466 
    2500        2.487     211.8191    8.8436649   -481.14521   -472.30154   -5981.3854    16651.185    26652.611   -61247.952      15.2149      13.1765      28.7324    5760.2466 
    3000        2.987    205.20498    8.5675187   -480.86753   -472.30001   -6587.9144    20012.441    29234.354   -69010.537      15.2149      13.1765      28.7324    5760.2466 
    3500        3.487    210.15302    8.7741042    -481.0739    -472.2998   -4591.3779    21480.782    25688.462   -60943.377      15.2149      13.1765      28.7324    5760.2466 
    4000        3.987    216.10253    9.0225026   -481.32006   -472.29756   -5634.0976    18543.052     28045.38   -63490.725      15.2149      13.1765      28.7324    5760.2466 
    4500        4.487     211.0848    8.8130073   -481.10839   -472.29538   -4451.2288    20549.675    27885.438   -61788.799      15.2149      13.1765      28.7324    5760.2466 
    5000        4.987    200.44307    8.3687041   -480.66192   -472.29322   -5049.2908    19816.399    27524.931   -62489.203      15.2149      13.1765      28.7324    5760.2466 
    5500        5.487    210.62883    8.7939701    -481.0858   -472.29183   -5693.7363    19064.019    30138.649   -66283.877      15.2149      13.1765      28.7324    5760.2466 
    6000        5.987    207.69861    8.6716303   -480.96115   -472.28952   -5158.1583     21304.89    27360.954   -64140.319      15.2149      13.1765      28.7324    5760.2466 
    6500        6.487     206.6764    8.6289518   -480.91617   -472.28722   -4788.8133    20788.094     27624.21   -62778.744      15.2149      13.1765      28.7324    5760.2466 
    7000        6.987    220.97087    9.2257606   -481.50992   -472.28416   -6023.8299    19774.341    27901.461   -65747.292      15.2149      13.1765      28.7324    5760.2466 
    7500        7.487    217.37616    9.0756779   -481.35696   -472.28128   -5904.2249    19976.721    26078.127   -63767.523      15.2149      13.1765      28.7324    5760.2466 
    8000        7.987    213.27842    8.9045929    -481.1824   -472.27781   -5117.4157    19318.157    27275.635   -61946.039      15.2149      13.1765      28.7324    5760.2466 
    8500        8.487    212.54711    8.8740601   -481.14838   -472.27432   -4941.8105    20399.533    27951.909   -63176.874      15.2149      13.1765      28.7324    5760.2466 
    9000        8.987    203.28902    8.4875255   -480.75801   -472.27049   -6566.1941    18343.556    24698.416   -62740.554      15.2149      13.1765      28.7324    5760.2466 
    9500        9.487    207.18195    8.6500591   -480.91678   -472.26672   -4838.6721    17414.908    30594.031   -62524.955      15.2149      13.1765      28.7324    5760.2466 
   10000        9.987    228.75945     9.550942   -481.81418   -472.26324   -5799.2135      20389.8    25640.428   -63427.869      15.2149      13.1765      28.7324    5760.2466 
   10500       10.487    220.99207    9.2266458   -481.48548   -472.25883   -5201.7961    19419.174    30806.457   -65831.019      15.2149      13.1765      28.7324    5760.2466 
   11000       10.987    205.29391    8.5712315    -480.8255   -472.25427   -6025.7941    19672.292    27485.075    -65234.75      15.2149      13.1765      28.7324    5760.2466 
   11500       11.487     211.1258    8.8147187   -481.06461   -472.24989   -5161.6805    19442.166    29276.962    -64204.17      15.2149      13.1765      28.7324    5760.2466 
   12000       11.987    209.19508    8.7341096   -480.97881    -472.2447   -5350.7761     16602.87    28306.087   -60961.285      15.2149      13.1765      28.7324    5760.2466 
   12500       12.487    220.53844    9.2077062   -481.44808   -472.24037   -4718.1121    19946.896    29465.669   -63566.901      15.2149      13.1765      28.7324    5760.2466 
   13000       12.987    213.90341    8.9306871   -481.16494   -472.23426   -4804.7383    19733.383     29147.51   -63295.107      15.2149      13.1765      28.7324    5760.2466 
   13500       13.487    204.19741    8.5254516   -480.75438   -472.22893   -5312.2284    17588.628    25153.559   -58678.872      15.2149      13.1765      28.7324    5760.2466 
   14000       13.987    223.02805    9.3116501   -481.53542   -472.22377   -5029.6398     17933.09     27194.47    -60216.48      15.2149      13.1765      28.7324    5760.2466 
   14500       14.487    222.43691    9.2869694   -481.50487    -472.2179   -4803.4996    20446.614     30994.32   -65851.433      15.2149      13.1765      28.7324    5760.2466 
   15000       14.987    215.59106     9.001148   -481.21307   -472.21192   -4773.8962    19600.677    29836.853   -63759.219      15.2149      13.1765      28.7324    5760.2466 
   15500       15.487    216.58638    9.0427038   -481.24859   -472.20589     -4887.72    19839.948    24223.997   -58727.105      15.2149      13.1765      28.7324    5760.2466 
   16000       15.987    216.66735    9.0460845   -481.24516   -472.19908   -4323.2648    19106.982    27434.207   -59510.984      15.2149      13.1765      28.7324    5760.2466 
   16500       16.487    205.36428    8.5741696   -480.76631   -472.19214   -4943.8043    20452.317    29185.129   -64468.858      15.2149      13.1765      28.7324    5760.2466 
   17000       16.987    220.61607    9.2109476   -481.39658   -472.18563   -6863.1755    16248.753    27019.389   -63857.669      15.2149      13.1765      28.7324    5760.2466 
   17500       17.487    220.49791    9.2060142    -481.3845   -472.17849   -4591.3595    22528.097    27112.892   -63415.067      15.2149      13.1765      28.7324    5760.2466 
   18000       17.987     217.4017    9.0767442   -481.24797   -472.17122    -5515.059    18087.278    26381.858   -61014.314      15.2149      13.1765      28.7324    5760.2466 
   18500       18.487     225.9674    9.4343709   -481.59834   -472.16397   -5612.7737    18387.791    24267.656   -59493.767      15.2149      13.1765      28.7324    5760.2466 
   19000       18.987     216.8402    9.0533009   -481.20932   -472.15602   -4933.8091    20336.263    27681.207   -62818.897      15.2149      13.1765      28.7324    5760.2466 
   19500       19.487    208.24072     8.694264   -480.84229   -472.14803   -5027.5238    20177.668    29126.242   -64386.482      15.2149      13.1765      28.7324    5760.2466 
   20000       19.987    213.03367    8.8943746    -481.0346   -472.14023   -4988.1138    19556.282    27438.615   -61959.239      15.2149      13.1765      28.7324    5760.2466 
   20500       20.487    220.55146      9.20825   -481.34063   -472.13238   -5752.4064    19746.788    27883.813    -64887.82      15.2149      13.1765      28.7324    5760.2466 
   21000       20.987    215.51464    8.9979576   -481.12128   -472.12332   -5745.1429    20571.518    28194.749   -66001.697      15.2149      13.1765      28.7324    5760.2466 
   21500       21.487    215.76204    9.0082865   -481.12288    -472.1146    -5925.765    18572.385    26976.961   -63326.641      15.2149      13.1765      28.7324    5760.2466 
   22000       21.987    206.60184     8.625839   -480.73173    -472.1059   -5396.0407    20464.986    26163.819   -62816.927      15.2149      13.1765      28.7324    5760.2466 
   22500       22.487    211.82358    8.8438521   -480.94103   -472.09718   -5138.7726    21020.069    25494.333   -61930.719      15.2149      13.1765      28.7324    5760.2466 
   23000       22.987    206.53447    8.6230264    -480.7111   -472.08807   -4921.3411    18157.784    28035.556   -60957.363      15.2149      13.1765      28.7324    5760.2466 
   23500       23.487    218.38944    9.1179835    -481.1964   -472.07842   -4077.9666    21191.388     30041.09   -63466.379      15.2149      13.1765      28.7324    5760.2466 
   24000       23.987    216.51873    9.0398793   -481.10897   -472.06909   -5347.6064    20055.268    23949.091   -60047.179      15.2149      13.1765      28.7324    5760.2466 
   24500       24.487     228.1824    9.5268495   -481.58589   -472.05904   -5104.1678    17139.674     27994.06   -60446.237      15.2149      13.1765      28.7324    5760.2466 
   25000       24.987    219.95421    9.1833141   -481.23292   -472.04961   -5669.2585    20012.217    26107.785   -63127.777      15.2149      13.1765      28.7324    5760.2466 
   25500       25.487    234.00195    9.7698217   -481.80914   -472.03932    -5474.462     19530.24    25282.571   -61236.198      15.2149      13.1765      28.7324    5760.2466 
   26000       25.987    224.23569    9.3620705   -481.39099   -472.02892   -5519.5641    19863.167    26110.084   -62531.943      15.2149      13.1765      28.7324    5760.2466 
   26500       26.487    225.32605    9.4075941    -481.4265    -472.0189   -5191.3095    19519.632    27440.123   -62533.683      15.2149      13.1765      28.7324    5760.2466 
   27000       26.987    217.79065    9.0929833   -481.10095   -472.00796   -5866.2873    16800.199    29412.124   -63811.185      15.2149      13.1765      28.7324    5760.2466 
   27500       27.487    213.92172    8.9314513   -480.92823   -471.99678   -6066.5508    20282.019    25941.692   -64423.364      15.2149      13.1765      28.7324    5760.2466 
   28000       27.987    227.51755    9.4990912   -481.48541   -471.98632   -5771.8615    18555.596    23398.582   -59269.763      15.2149      13.1765      28.7324    5760.2466 
   28500       28.487    209.67763    8.7542565   -480.73016    -471.9759   -5713.4715    16557.954    28248.011   -61946.379      15.2149      13.1765      28.7324    5760.2466 
   29000       28.987    230.14911    9.6089615   -481.57376    -471.9648   -5278.5189    19624.677    28443.108   -63903.342      15.2149      13.1765      28.7324    5760.2466 
   29500       29.487    214.80352    8.9682674   -480.92155   -471.95328    -4589.302    24473.551    25835.401   -64076.858      15.2149      13.1765      28.7324    5760.2466 
   30000       29.987    217.19571    9.0681439   -481.00983   -471.94169   -4443.4192    19737.275    25855.411   -58922.943      15.2149      13.1765      28.7324    5760.2466 
   30500       30.487    222.15101    9.2750329    -481.2056   -471.93057   -5988.2124    15978.931    28503.688   -62447.256      15.2149      13.1765      28.7324    5760.2466 
   31000       30.987    224.56787    9.3759391   -481.29497   -471.91904   -5106.1932    19404.866    26086.827   -60810.273      15.2149      13.1765      28.7324    5760.2466 
   31500       31.487    202.53785     8.456163   -480.36317   -471.90701   -5230.7792    19165.832    30501.614   -65359.784      15.2149      13.1765      28.7324    5760.2466 
   32000       31.987    219.91605    9.1817209   -481.07679   -471.89507   -4605.1171    19750.487    24855.043   -58420.881      15.2149      13.1765      28.7324    5760.2466 
   32500       32.487    214.65872    8.9622222   -480.84524   -471.88302   -5464.3066     19854.13    26423.494   -62670.544      15.2149      13.1765      28.7324    5760.2466 
   33000       32.987    223.07567    9.3136382   -481.18501   -471.87137     -5883.04    20263.955    27877.294   -65790.369      15.2149      13.1765      28.7324    5760.2466 
   33500       33.487    220.39877    9.2018748   -481.06067   -471.85879   -4709.0693    21483.853    26340.211   -61951.272      15.2149      13.1765      28.7324    5760.2466 
   34000       33.987    216.04601    9.0201427   -480.86643   -471.84629   -6184.2421    19229.265    28371.287   -66153.278      15.2149      13.1765      28.7324    5760.2466 
   34500       34.487    213.89103      8.93017   -480.76413   -471.83396   -5264.4825     18620.58    29213.038   -63627.066      15.2149      13.1765      28.7324    5760.2466 
   35000       34.987    216.23668    9.0281032   -480.85025   -471.82215   -4173.6125    20864.978    28371.074   -61756.889      15.2149      13.1765      28.7324    5760.2466 
   35500       35.487     211.5725    8.8333692   -480.64293   -471.80956   -6300.2448    19000.821    26950.679   -64852.235      15.2149      13.1765      28.7324    5760.2466 
   36000       35.987    218.58148     9.126001   -480.92266   -471.79666   -5922.2261    18918.661     26177.05   -62862.389      15.2149      13.1765      28.7324    5760.2466 
   36500       36.487    210.24002    8.7777365   -480.56152   -471.78378   -4982.9242    17043.333     30106.58   -62098.686      15.2149      13.1765      28.7324    5760.2466 
   37000       36.987     232.1407    9.6921128   -481.46387   -471.77176   -5034.6274    19289.683    27660.789   -62054.354      15.2149      13.1765      28.7324    5760.2466 
   37500       37.487     225.9573    9.4339492   -481.19219   -471.75825   -5438.5873    14895.346    28063.979   -59275.087      15.2149      13.1765      28.7324    5760.2466 
   38000       37.987    211.65231    8.8367015   -480.58254   -471.74584   -4565.1457    19059.573    30118.396   -62873.407      15.2149      13.1765      28.7324    5760.2466 
   38500       38.487    224.06746    9.3550465   -481.08837   -471.73333    -4948.962    18997.863    29552.661    -63397.41      15.2149      13.1765      28.7324    5760.2466 
   39000       38.987    210.98477    8.8088307   -480.52828   -471.71945   -4094.2569    20885.145    31494.046   -64661.961      15.2149      13.1765      28.7324    5760.2466 
   39500       39.487    221.36765    9.2423267   -480.94939   -471.70707   -4863.9134    20628.258    27019.528   -62239.527      15.2149      13.1765      28.7324    5760.2466 
   40000       39.987    228.48674    9.5395562   -481.23453   -471.69497   -5083.2243    18698.977    31210.592   -65159.242      15.2149      13.1765      28.7324    5760.2466 
   40500       40.487    229.71404    9.5907969   -481.27272   -471.68193   -4633.4643    17353.115    29445.592     -60699.1      15.2149      13.1765      28.7324    5760.2466 
   41000       40.987    216.40411    9.0350937   -480.70374   -471.66864    -5180.785    20801.562    25728.735   -62072.652      15.2149      13.1765      28.7324    5760.2466 
   41500       41.487    230.64032      9.62947   -481.28516   -471.65569   -4156.4954    20706.258    28476.945   -61652.689      15.2149      13.1765      28.7324    5760.2466 
   42000       41.987    221.84834    9.2623961   -480.90496   -471.64256   -5788.4726    19198.073    29446.362   -66009.853      15.2149      13.1765      28.7324    5760.2466 
   42500       42.487    234.12525    9.7749694   -481.40519   -471.63022    -5210.552    19721.829    28815.122   -64168.607      15.2149      13.1765      28.7324    5760.2466 
   43000       42.987    216.75938    9.0499269   -480.66676   -471.61683   -5247.3896    20341.794     26179.37   -62263.333      15.2149      13.1765      28.7324    5760.2466 
   43500       43.487     222.0184    9.2694962   -480.87393   -471.60443   -4458.1563    19675.498    28702.627   -61752.594      15.2149      13.1765      28.7324    5760.2466 
   44000       43.987    221.64205    9.2537834   -480.84555   -471.59176   -5107.7711    19381.959    34586.802   -69292.074      15.2149      13.1765      28.7324    5760.2466 
   44500       44.487    234.20052    9.7781123   -481.35727   -471.57916   -5165.4459    19643.855    27315.596    -62455.79      15.2149      13.1765      28.7324    5760.2466 
   45000       44.987    202.71377    8.4635082   -480.02874   -471.56523   -4306.2989    20834.114     28767.22   -62520.231      15.2149      13.1765      28.7324    5760.2466 
   45500       45.487    222.98825    9.3099886    -480.8634   -471.55341   -5241.1381    19489.714    28164.703   -63377.831      15.2149      13.1765      28.7324    5760.2466 
   46000       45.987    218.86777     9.137954   -480.67869   -471.54073   -3590.7305    20777.636    28805.488   -60355.316      15.2149      13.1765      28.7324    5760.2466 
   46500       46.487    214.61544    8.9604149   -480.48844   -471.52802   -5332.7045    18573.525    29254.084   -63825.722      15.2149      13.1765      28.7324    5760.2466 
   47000       46.987    230.49431    9.6233741   -481.13966   -471.51628   -4366.2608    21427.003    27865.572   -62391.358      15.2149      13.1765      28.7324    5760.2466 
   47500       47.487    232.18342    9.6938962   -481.19734   -471.50344   -6075.1762     18311.73    29644.101   -66181.359      15.2149      13.1765      28.7324    5760.2466 
   48000       47.987     227.2278    9.4869941   -480.97774   -471.49075   -3882.4305     21818.45    29639.962   -63105.703      15.2149      13.1765      28.7324    5760.2466 
   48500       48.487    225.35329    9.4087312   -480.88683    -471.4781   -5673.7773    17235.169    29235.567   -63492.068      15.2149      13.1765      28.7324    5760.2466 
   49000       48.987    231.63867    9.6711525   -481.13686   -471.46571   -5913.5129    20328.799    26892.209   -64961.546      15.2149      13.1765      28.7324    5760.2466 
   49500       49.487    222.74638    9.2998899   -480.75347   -471.45358   -5773.7145    18854.818    27912.801   -64088.763      15.2149      13.1765      28.7324    5760.2466 
   50000       49.987     229.8368    9.5959223   -481.03764   -471.44172    -5992.861     17844.42    27949.152   -63772.154      15.2149      13.1765      28.7324    5760.2466 
   50500       50.487    243.42996    10.163451   -481.59295   -471.42949   -4260.6398    17031.115      31034.3   -60847.334      15.2149      13.1765      28.7324    5760.2466 
   51000       50.987    234.63686    9.7963298   -481.21405   -471.41773    -5374.784    20104.313    27584.938   -63813.604      15.2149      13.1765      28.7324    5760.2466 
   51500       51.487    225.85776    9.4297936   -480.83472   -471.40492   -5270.7322    20004.828    28846.835    -64663.86      15.2149      13.1765      28.7324    5760.2466 
   52000       51.987    219.28346    9.1553095     -480.549   -471.39369   -5048.9515    19228.075    27152.512   -61527.441      15.2149      13.1765      28.7324    5760.2466 
   52500       52.487    212.64681    8.8782225   -480.25949   -471.38127   -4394.6938    17893.437    30444.239   -61521.757      15.2149      13.1765      28.7324    5760.2466 
   53000       52.987    238.32127    9.9501578   -481.32028   -471.37013   -4842.7265    19278.272    32033.668    -65840.12      15.2149      13.1765      28.7324    5760.2466 
   53500       53.487    214.70764    8.9642645   -480.32266   -471.35839   -4771.3693    17754.477    28852.093   -60920.677      15.2149      13.1765      28.7324    5760.2466 
   54000       53.987    233.36619    9.7432779   -481.09018    -471.3469   -4954.3496    19620.292    27895.033   -62378.374      15.2149      13.1765      28.7324    5760.2466 
   54500       54.487    215.33624    8.9905092   -480.32519   -471.33468   -4819.9741    18966.113    29495.514   -62921.548      15.2149      13.1765      28.7324    5760.2466 
   55000       54.987    222.36084    9.2837933   -480.60732   -471.32353   -4264.3072    22081.497    29983.859   -64858.278      15.2149      13.1765      28.7324    5760.2466 
   55500       55.487    212.39424    8.8676777   -480.17973   -471.31205   -4764.2971    21762.345    28023.707   -64078.944      15.2149      13.1765      28.7324    5760.2466 
   56000       55.987    217.18261    9.0675969   -480.36834   -471.30074   -4960.2144    19748.071    29511.757   -64140.471      15.2149      13.1765      28.7324    5760.2466 
   56500       56.487     213.4635    8.9123203   -480.20171   -471.28939   -3931.6282    20536.753    26960.757   -59292.395      15.2149      13.1765      28.7324    5760.2466 
   57000       56.987    228.60223    9.5443777   -480.82232   -471.27795   -3389.9039    19398.506    28699.312    -58267.53      15.2149      13.1765      28.7324    5760.2466 
   57500       57.487    232.11054    9.6908533   -480.95762   -471.26676   -6088.6576     17306.27    27497.653   -63069.895      15.2149      13.1765      28.7324    5760.2466 
   58000       57.987    220.31974    9.1985753   -480.45334   -471.25476    -4198.508    21348.335    28253.063   -62196.922      15.2149      13.1765      28.7324    5760.2466 
   58500       58.487    230.18492    9.6104569   -480.85499   -471.24454   -5483.1201    19078.111    28016.073   -63543.544      15.2149      13.1765      28.7324    5760.2466 
   59000       58.987    224.36958    9.3676603   -480.60086   -471.23319   -5073.9902    19791.415    28024.719   -63038.105      15.2149      13.1765      28.7324    5760.2466 
   59500       59.487    220.13017    9.1906608   -480.41299   -471.22233   -3774.6368    21986.068    31833.893   -65143.872      15.2149      13.1765      28.7324    5760.2466 
   60000       59.987    213.89434    8.9303084   -480.14132   -471.21101   -5259.3657    21544.188    27544.375    -64866.66      15.2149      13.1765      28.7324    5760.2466 
   60500       60.487    229.87715    9.5976071   -480.79811    -471.2005   -5014.1975     20437.51     26665.53   -62145.633      15.2149      13.1765      28.7324    5760.2466 
   61000       60.987    214.64413    8.9616128   -480.15042   -471.18881   -4927.5979    17966.549    26372.201   -59121.544      15.2149      13.1765      28.7324    5760.2466 
   61500       61.487    235.06906    9.8143746   -480.99341   -471.17904    -5288.366    17926.926    26865.387   -60657.411      15.2149      13.1765      28.7324    5760.2466 
   62000       61.987     218.2739    9.1131593   -480.28094   -471.16778   -4723.6326    20706.114    26958.259   -61835.271      15.2149      13.1765      28.7324    5760.2466 
   62500       62.487    230.36783    9.6180935   -480.77539   -471.15729   -5697.3776    19249.437    28298.107   -64639.677      15.2149      13.1765      28.7324    5760.2466 
   63000       62.987    227.33496    9.4914679   -480.63787    -471.1464   -4657.7878    19851.202      30320.7   -64145.266      15.2149      13.1765      28.7324    5760.2466 
   63500       63.487    220.57453     9.209213   -480.34471    -471.1355   -5148.0739    17853.096    27939.242   -61236.559      15.2149      13.1765      28.7324    5760.2466 
   64000       63.987    230.80269    9.6362493   -480.76111   -471.12486   -5562.2965    20269.344    26380.595   -63336.829      15.2149      13.1765      28.7324    5760.2466 
   64500       64.487    219.04277    9.1452604   -480.25952   -471.11426   -6235.9135     18369.28    27088.687   -64165.708      15.2149      13.1765      28.7324    5760.2466 
   65000       64.987    228.95427    9.5590757   -480.66237    -471.1033   -4502.6213    19016.648    26403.152   -58927.664      15.2149      13.1765      28.7324    5760.2466 
   65500       65.487    227.63341    9.5039287   -480.59651   -471.09258   -4818.3267    21445.763    28461.745   -64362.487      15.2149      13.1765      28.7324    5760.2466 
   66000       65.987     229.4946     9.581635   -480.66444    -471.0828   -5491.0378    20292.796    28807.248   -65573.158      15.2149      13.1765      28.7324    5760.2466 
   66500       66.487    229.41858    9.5784613   -480.65042   -471.07196   -5130.6843    21134.205    31274.507   -67800.764      15.2149      13.1765      28.7324    5760.2466 
   67000       66.987    223.77868    9.3429897   -480.40411   -471.06112   -6459.1619    18055.279    28877.253   -66310.018      15.2149      13.1765      28.7324    5760.2466 
   67500       67.487    223.22015    9.3196706   -480.37029   -471.05062   -5634.5738    22471.145    24657.387   -64032.254      15.2149      13.1765      28.7324    5760.2466 
   68000       67.987    223.47066    9.3301297   -480.37046   -471.04033   -3849.4195    23822.039    29509.429   -64879.726      15.2149      13.1765      28.7324    5760.2466 
   68500       68.487    227.59573    9.5023556   -480.53155   -471.02919   -4725.0213    18991.891     26165.94   -59332.895      15.2149      13.1765      28.7324    5760.2466 
   69000       68.987    220.86728    9.2214356   -480.24065   -471.01922   -4741.3511    21864.767    27671.291   -63760.112      15.2149      13.1765      28.7324    5760.2466 
   69500       69.487    215.74661    9.0076424   -480.01541   -471.00776   -5191.9725    18291.289    26551.229   -60418.436      15.2149      13.1765      28.7324    5760.2466 
   70000       69.987    238.58568    9.9611971   -480.95986   -470.99866   -5242.6142    21611.695    30220.997   -67560.535      15.2149      13.1765      28.7324    5760.2466 
   70500       70.487    226.57803    9.4598652   -480.44729   -470.98743   -5407.9725    18804.357    29527.096   -64555.371      15.2149      13.1765      28.7324    5760.2466 
   71000       70.987    230.03719    9.6042888   -480.58128   -470.97699   -5185.3233    18173.807    26128.168   -59857.944      15.2149      13.1765      28.7324    5760.2466 
   71500       71.487    217.41937    9.0774822   -480.04375   -470.96627    -4682.368    21658.406    27989.543   -63695.053      15.2149      13.1765      28.7324    5760.2466 
   72000       71.987    230.20506    9.6112978   -480.56738   -470.95609   -4933.8461    19046.202    28820.785   -62668.526      15.2149      13.1765      28.7324    5760.2466 
   72500       72.487    220.88261    9.2220756   -480.16689   -470.94481    -3686.871    20373.706    29077.703   -60512.022      15.2149      13.1765      28.7324    5760.2466 
   73000       72.987    236.31058    9.8662093    -480.8011   -470.93489   -5972.5681    16780.877     29652.16   -64350.742      15.2149      13.1765      28.7324    5760.2466 
   73500       73.487    237.70313    9.9243499    -480.8484   -470.92405    -5288.644    20091.931    25537.833   -61495.696      15.2149      13.1765      28.7324    5760.2466 
   74000       73.987    224.15899    9.3588679   -480.27222   -470.91335   -5867.7272    19576.713    25944.431   -63124.325      15.2149      13.1765      28.7324    5760.2466 
   74500       74.487    238.03642    9.9382649   -480.84055   -470.90229   -5215.9621     21492.61    27370.946   -64511.442      15.2149      13.1765      28.7324    5760.2466 
   75000       74.987    221.49735    9.2477416   -480.13929   -470.89155   -4599.6137    17460.634    27709.727   -58969.203      15.2149      13.1765      28.7324    5760.2466 
   75500       75.487    235.01752    9.8122227   -480.69325   -470.88103    -5107.514    21614.138    30677.124   -67613.804      15.2149      13.1765      28.7324    5760.2466 
   76000       75.987    228.68117    9.5476736   -480.41818   -470.87051   -4869.1831    20768.999    27339.248   -62715.796      15.2149      13.1765      28.7324    5760.2466 
   76500       76.487    240.28916    10.032319   -480.89234   -470.86002   -5315.6923    19887.843    27389.693   -63224.613      15.2149      13.1765      28.7324    5760.2466 
   77000       76.987    215.10178    8.9807203   -479.82932    -470.8486   -4933.1728    19489.645    30808.443   -65097.606      15.2149      13.1765      28.7324    5760.2466 
   77500       77.487    220.75868    9.2169015   -480.05478   -470.83788   -4829.5132    20713.239    28293.848   -63495.626      15.2149      13.1765      28.7324    5760.2466 
   78000       77.987    226.95027     9.475407   -480.30285   -470.82744   -5483.0508    19754.285    28557.229   -64760.666      15.2149      13.1765      28.7324    5760.2466 
   78500       78.487    219.80146    9.1769367   -479.99326   -470.81632   -4316.5328    20280.587    28489.793   -61719.978      15.2149      13.1765      28.7324    5760.2466 
   79000       78.987    233.66285    9.7556639   -480.56073   -470.80506   -5308.4128    19821.088    26069.481   -61815.808      15.2149      13.1765      28.7324    5760.2466 
   79500       79.487    203.38561    8.4915582   -479.28459   -470.79304   -4984.4932    19014.158     27412.74   -61380.377      15.2149      13.1765      28.7324    5760.2466 
   80000       79.987    251.55192    10.502551   -481.28587   -470.78332   -4678.2846    21401.495    27509.184   -62945.533      15.2149      13.1765      28.7324    5760.2466 
   80500       80.487     224.6453    9.3791719   -480.15092   -470.77175   -4873.4845     17562.74    29325.062   -61508.256      15.2149      13.1765      28.7324    5760.2466 
   81000       80.987    224.76374    9.3841167   -480.14494   -470.76082   -4155.7483    22298.801    25085.771   -59851.817      15.2149      13.1765      28.7324    5760.2466 
   81500       81.487    235.17747    9.8189007   -480.56868   -470.74978   -6035.2268    17700.267    28229.276   -64035.224      15.2149      13.1765      28.7324    5760.2466 
   82000       81.987    233.45034    9.7467914   -480.48511   -470.73832    -4876.251    22529.113    25907.563   -63065.429      15.2149      13.1765      28.7324    5760.2466 
   82500       82.487    223.79736    9.3437694   -480.07059   -470.72682   -5995.6758    18455.552    26839.906   -63282.486      15.2149      13.1765      28.7324    5760.2466 
   83000       82.987    221.56548    9.2505862   -479.96558     -470.715   -5350.5294    21132.543    28485.742   -65669.873      15.2149      13.1765      28.7324    5760.2466 
   83500       83.487    243.06508    10.148217    -480.8524   -470.70418   -5175.8707    22197.332    26356.717   -64081.661      15.2149      13.1765      28.7324    5760.2466 
   84000       83.987    227.25622    9.4881806   -480.18093   -470.69274   -5364.0937     23092.22    25901.502   -65086.003      15.2149      13.1765      28.7324    5760.2466 
   84500       84.487     234.7698    9.8018801   -480.48351   -470.68163   -4280.5979    19020.621    27808.362   -59670.777      15.2149      13.1765      28.7324    5760.2466 
   85000       84.987    211.45304    8.8283815   -479.49739   -470.66901   -5153.3334    19509.161    27412.841   -62382.002      15.2149      13.1765      28.7324    5760.2466 
   85500       85.487    216.30217    9.0308377   -479.68879   -470.65795   -3730.5888    20528.606    28568.843   -60289.215      15.2149      13.1765      28.7324    5760.2466 
   86000       85.987    223.71959    9.3405225   -479.98738   -470.64686   -4780.2466    19142.329    25609.982   -59093.051      15.2149      13.1765      28.7324    5760.2466 
   86500       86.487    235.58725    9.8360096   -480.47102   -470.63501    -4233.287    20382.994    28878.475   -61961.329      15.2149      13.1765      28.7324    5760.2466 
   87000       86.987    243.28678    10.157473    -480.7806   -470.62313   -5418.6679    19181.513    27636.199   -63073.716      15.2149      13.1765      28.7324    5760.2466 
   87500       87.487    228.08553    9.5228049   -480.13456   -470.61175   -4468.4805    18307.941    25408.155   -57121.537      15.2149      13.1765      28.7324    5760.2466 
   88000       87.987    227.68157    9.5059392   -480.10541   -470.59947   -4609.9051    21657.953    28219.234   -63706.902      15.2149      13.1765      28.7324    5760.2466 
   88500       88.487    226.91297    9.4738494   -480.06183   -470.58798   -4419.9885    19925.188    28098.011   -61283.165      15.2149      13.1765      28.7324    5760.2466 
   89000       88.987    231.46703    9.6639863   -480.24057   -470.57658    -4849.279    20588.454    26731.335   -61867.626      15.2149      13.1765      28.7324    5760.2466 
   89500       89.487    234.63642    9.7963114   -480.36052   -470.56421   -6105.1799    19666.299    25073.025   -63054.863      15.2149      13.1765      28.7324    5760.2466 
   90000       89.987    231.52854    9.6665541   -480.21862   -470.55207   -3953.1874    22609.606    29085.513   -63554.681      15.2149      13.1765      28.7324    5760.2466 
   90500       90.487    228.63881    9.5459051   -480.08598   -470.54007   -4243.8636    22105.036    30918.976   -65755.603      15.2149      13.1765      28.7324    5760.2466 
   91000       90.987    243.57748     10.16961    -480.6975   -470.52789   -5354.1228    20303.311    28164.677   -64530.356      15.2149      13.1765      28.7324    5760.2466 
   91500       91.487    233.05766    9.7303964   -480.24559   -470.51519   -4390.6954    20012.036    28456.142   -61640.265      15.2149      13.1765      28.7324    5760.2466 
   92000       91.987      228.223    9.5285446   -480.03142   -470.50288   -5564.5722    20235.042    27796.774   -64725.533      15.2149      13.1765      28.7324    5760.2466 
   92500       92.487    224.45052    9.3710397   -479.86068   -470.48964    -4096.702     20324.23    31217.446   -63831.782      15.2149      13.1765      28.7324    5760.2466 
   93000       92.987    241.25069    10.072464   -480.55035   -470.47788    -4957.349      19089.4    26028.453     -59989.9      15.2149      13.1765      28.7324    5760.2466 
   93500       93.487    230.04032    9.6044196   -480.06939   -470.46497   -4915.3122     20799.13    27323.525   -62868.591      15.2149      13.1765      28.7324    5760.2466 
   94000       93.987    220.78954    9.2181898   -479.67046   -470.45227    -4421.838    20146.165    27853.343   -61265.022      15.2149      13.1765      28.7324    5760.2466 
   94500       94.487    248.49758    10.375029   -480.81538   -470.44035   -5111.3285    18935.792    26314.889   -60584.667      15.2149      13.1765      28.7324    5760.2466 
   95000       94.987    230.57836    9.6268831    -480.0543   -470.42742   -5072.7205    19460.575    25168.784    -59847.52      15.2149      13.1765      28.7324    5760.2466 
   95500       95.487    242.37342    10.119339   -480.53385   -470.41452   -3760.7771     17416.38    30912.475   -59611.187      15.2149      13.1765      28.7324    5760.2466 
   96000       95.987    238.33733    9.9508283   -480.35241   -470.40158   -5505.7493    19076.376    26995.039   -62588.664      15.2149      13.1765      28.7324    5760.2466 
   96500       96.487    235.61449    9.8371471   -480.22549   -470.38834   -4395.5874    21575.067    29612.094   -64373.923      15.2149      13.1765      28.7324    5760.2466 
   97000       96.987    235.37513    9.8271532    -480.2027   -470.37555   -5010.4817    21937.341    28033.811   -65002.597      15.2149      13.1765      28.7324    5760.2466 
   97500       97.487    229.41928    9.5784905   -479.94067   -470.36218   -4002.5327    22997.685    28041.843   -63047.126      15.2149      13.1765      28.7324    5760.2466 
   98000       97.987    242.69426    10.132735   -480.48225   -470.34952    -5404.497    20595.551    27818.287   -64627.329      15.2149      13.1765      28.7324    5760.2466 
   98500       98.487    229.44534    9.5795785   -479.91531   -470.33573   -5309.4615     20325.15    27216.756   -63470.291      15.2149      13.1765      28.7324    5760.2466 
   99000       98.987     234.9177    9.8080552   -480.13099   -470.32293   -4753.3616    20757.218    27999.561   -63016.864      15.2149      13.1765      28.7324    5760.2466 
   99500       99.487    241.57561     10.08603   -480.39604   -470.31001   -4922.8821    20320.448    28048.876   -63137.971      15.2149      13.1765      28.7324    5760.2466 
  100000       99.987    249.13347    10.401578   -480.69832   -470.29675   -4808.4612    22100.785    27975.807   -64501.976      15.2149      13.1765      28.7324    5760.2466 
  100500      100.487    244.76195    10.219063   -480.50194   -470.28288   -6140.0095    19053.185    27845.712   -65318.926      15.2149      13.1765      28.7324    5760.2466 
  101000      100.987    237.91791    9.9333171   -480.20296   -470.26965   -5148.8329    19844.937    29491.853   -64783.289      15.2149      13.1765      28.7324    5760.2466 
  101500      101.487    234.85436    9.8054107   -480.06174   -470.25633   -4760.8615    20453.403    27602.042    -62338.03      15.2149      13.1765      28.7324    5760.2466 
  102000      101.987    227.12147    9.4825547   -479.72522   -470.24266   -4928.4708    21504.816    27235.317   -63525.545      15.2149      13.1765      28.7324    5760.2466 
  102500      102.487    236.33503    9.8672303   -480.09683    -470.2296    -3831.902    19962.552    28814.277   -60272.535      15.2149      13.1765      28.7324    5760.2466 
  103000      102.987    236.74828    9.8844837   -480.10051   -470.21602   -5145.0124    17115.035    30527.968    -63078.04      15.2149      13.1765      28.7324    5760.2466 
  103500      103.487    249.13652    10.401705   -480.60391   -470.20221   -5166.7023    20573.532    30034.891    -66108.53      15.2149      13.1765      28.7324    5760.2466 
  104000      103.987    241.03588    10.063496   -480.25228   -470.18879   -5206.7464    21000.858    27992.889   -64613.987      15.2149      13.1765      28.7324    5760.2466 
  104500      104.487    243.87658    10.182098   -480.35787   -470.17577   -5131.4458    22524.913    27090.352   -65009.603      15.2149      13.1765      28.7324    5760.2466 
  105000      104.987    241.31999    10.075357   -480.23649   -470.16114   -4489.1625    22852.358    27856.831   -64176.677      15.2149      13.1765      28.7324    5760.2466 
  105500      105.487    240.29112    10.032401    -480.1796    -470.1472    -4925.406    17749.398    26902.171   -59427.787      15.2149      13.1765      28.7324    5760.2466 
  106000      105.987    240.45672    10.039315   -480.17337   -470.13405   -4025.8297     20828.67    28911.927   -61818.086      15.2149      13.1765      28.7324    5760.2466 
  106500      106.487    219.53267    9.1657145   -479.28505   -470.11934    -3801.676    20925.881    26370.493   -58701.402      15.2149      13.1765      28.7324    5760.2466 
  107000      106.987    239.45779    9.9976084   -480.10313   -470.10552    -4391.754     17804.26    29357.214   -60336.735      15.2149      13.1765      28.7324    5760.2466 
  107500      107.487    241.42533    10.079755   -480.17137   -470.09161   -3818.9157    20917.171    26870.018   -59243.935      15.2149      13.1765      28.7324    5760.2466 
  108000      107.987    253.98089    10.603963   -480.68166   -470.07769   -4581.5113     18044.59    27880.767    -59669.89      15.2149      13.1765      28.7324    5760.2466 
  108500      108.487    233.23271    9.7377049   -479.80052   -470.06281   -4424.6212    20656.796    26742.651   -60673.311      15.2149      13.1765      28.7324    5760.2466 
  109000      108.987    247.74967    10.343803   -480.39312   -470.04932     -3851.92     20260.99    28387.488   -60204.238      15.2149      13.1765      28.7324    5760.2466 
  109500      109.487    239.60776     10.00387   -480.03802   -470.03415   -3984.6873    20995.609    28264.939    -61214.61      15.2149      13.1765      28.7324    5760.2466 
  110000      109.987    245.04271    10.230785   -480.25098    -470.0202    -3624.544    20238.725    27153.115   -58265.472      15.2149      13.1765      28.7324    5760.2466 
  110500      110.487    236.31047    9.8662048   -479.87183   -470.00562   -4096.3905    24208.976    28256.462   -64754.609      15.2149      13.1765      28.7324    5760.2466 
  111000      110.987    243.01581     10.14616   -480.13695   -469.99079   -4683.6259    20802.447    29981.964   -64835.289      15.2149      13.1765      28.7324    5760.2466 
  111500      111.487    231.33496    9.6584722   -479.63541   -469.97694    -4555.011    19369.504    29438.183    -62472.72      15.2149      13.1765      28.7324    5760.2466 
  112000      111.987    248.75933    10.385957   -480.34858   -469.96262   -5137.9444      18892.4    28961.511   -63267.745      15.2149      13.1765      28.7324    5760.2466 
  112500      112.487    223.48083     9.330554   -479.27831   -469.94776   -5446.6372    17846.505    30252.807   -64439.224      15.2149      13.1765      28.7324    5760.2466 
  113000      112.987    244.60313    10.212432   -480.14552   -469.93309   -3961.2647     19920.01    30458.648   -62262.452      15.2149      13.1765      28.7324    5760.2466 
  113500      113.487    247.49579    10.333204    -480.2521    -469.9189   -4142.8735    20146.733     26514.07   -59089.423      15.2149      13.1765      28.7324    5760.2466 
  114000      113.987    236.33689    9.8673077    -479.7722   -469.90489   -4622.6073    21161.552     28690.54   -63719.915      15.2149      13.1765      28.7324    5760.2466 
  114500      114.487    231.66479    9.6722429   -479.56197   -469.88973   -4998.9955    21288.567    26026.057    -62311.61      15.2149      13.1765      28.7324    5760.2466 
  115000      114.987     246.0972    10.274811   -480.14977   -469.87496   -6390.1164     18336.01    29902.807   -67409.166      15.2149      13.1765      28.7324    5760.2466 
  115500      115.487    236.72906    9.8836815   -479.74377   -469.86009   -4474.5059    22233.244    30046.715   -65703.476      15.2149      13.1765      28.7324    5760.2466 
  116000      115.987    243.82994     10.18015   -480.02591   -469.84576   -4318.1032    19144.049    28666.844   -60765.203      15.2149      13.1765      28.7324    5760.2466 
  116500      116.487    236.98938      9.89455   -479.72515    -469.8306   -3986.4937     22091.13    30163.523   -64214.134      15.2149      13.1765      28.7324    5760.2466 
  117000      116.987    230.72771     9.633119   -479.44938   -469.81626   -4189.0795    22197.881    27046.028   -61811.148      15.2149      13.1765      28.7324    5760.2466 
  117500      117.487    248.56637    10.377901   -480.17934   -469.80144   -5340.3692    20516.138    26379.816   -62917.061      15.2149      13.1765      28.7324    5760.2466 
  118000      117.987    247.52505    10.334425   -480.12095   -469.78652   -4266.7017    19727.196    29455.149    -61982.45      15.2149      13.1765      28.7324    5760.2466 
  118500      118.487    257.79193    10.763078   -480.53536   -469.77228   -4975.8603    20459.684     28300.39   -63687.654      15.2149      13.1765      28.7324    5760.2466 
  119000      118.987    240.41626    10.037626   -479.79385   -469.75623   -4362.7171    21466.569    30048.488   -64603.208      15.2149      13.1765      28.7324    5760.2466 
  119500      119.487    244.38526    10.203335   -479.94475   -469.74141   -5808.6843    17873.706    29817.712   -65117.471      15.2149      13.1765      28.7324    5760.2466 
  120000      119.987    258.27036    10.783053   -480.50959   -469.72654   -4655.1057    21777.409    29852.122   -65594.848      15.2149      13.1765      28.7324    5760.2466 
  120500      120.487    247.74301    10.343525   -480.05488   -469.71135   -4376.1891    18856.862     29836.36   -61821.789      15.2149      13.1765      28.7324    5760.2466 
  121000      120.987    233.33978    9.7421754   -479.43828    -469.6961   -4820.0935     20148.78    29234.528   -63843.589      15.2149      13.1765      28.7324    5760.2466 
  121500      121.487    250.58924    10.462358   -480.14387   -469.68151   -4780.9722    20345.293    27441.323   -62129.533      15.2149      13.1765      28.7324    5760.2466 
  122000      121.987    251.15546    10.485998   -480.15199   -469.66599   -4056.6704    20667.797    29649.027   -62486.835      15.2149      13.1765      28.7324    5760.2466 
  122500      122.487    234.85109    9.8052742   -479.45523   -469.64996   -4620.8689     22101.06    31420.424   -67384.091      15.2149      13.1765      28.7324    5760.2466 
  123000      122.987    249.89407    10.433334   -480.06935   -469.63601   -4932.0661    19836.811    27809.348   -62442.357      15.2149      13.1765      28.7324    5760.2466 
  123500      123.487    239.63916    10.005181    -479.6259   -469.62071   -3597.3627    21825.101    30434.396   -63051.585      15.2149      13.1765      28.7324    5760.2466 
  124000      123.987    235.58472    9.8359038   -479.44071    -469.6048   -3638.7813    21799.467    27806.066   -60521.877      15.2149      13.1765      28.7324    5760.2466 
  124500      124.487    256.41894    10.705754    -480.2962   -469.59044   -4956.8048    19376.746    29066.149   -63313.309      15.2149      13.1765      28.7324    5760.2466 
  125000      124.987    248.63329    10.380695   -479.95548   -469.57478   -5392.0083    22090.244    25036.305   -63302.574      15.2149      13.1765      28.7324    5760.2466 
  125500      125.487    249.43517    10.414174   -479.97358   -469.55941   -5615.8286    21027.078    25801.766    -63676.33      15.2149      13.1765      28.7324    5760.2466 
  126000      125.987    257.45805    10.749138   -480.29351   -469.54437   -5767.4877     17519.14    29048.945   -63870.547      15.2149      13.1765      28.7324    5760.2466 
  126500      126.487    249.73975    10.426891    -479.9553   -469.52841    -4067.384    19352.874    30197.019   -61752.046      15.2149      13.1765      28.7324    5760.2466 
  127000      126.987    258.11169    10.776428   -480.28966   -469.51324   -4501.4636    21130.747    28114.506   -62749.644      15.2149      13.1765      28.7324    5760.2466 
  127500      127.487    247.65798    10.339975   -479.83835   -469.49837   -4039.9242     20284.27    27541.734   -59945.776      15.2149      13.1765      28.7324    5760.2466 
  128000      127.987    246.78636    10.303584   -479.78605   -469.48247   -5559.4129    22482.758    25301.565   -64462.562      15.2149      13.1765      28.7324    5760.2466 
  128500      128.487    238.17306    9.9439697   -479.41003   -469.46606   -4160.7129    19596.618    28883.473    -60962.23      15.2149      13.1765      28.7324    5760.2466 
  129000      128.987    249.94923    10.435637   -479.88669   -469.45106   -4246.6653    19476.268    24690.577   -56906.841      15.2149      13.1765      28.7324    5760.2466 
  129500      129.487    254.45979    10.623958   -480.06016   -469.43621   -5466.1319    19123.589    27808.839   -63330.824      15.2149      13.1765      28.7324    5760.2466 
  130000      129.987    244.47859    10.207232   -479.62698   -469.41975   -4731.1272     21500.92    30055.508    -65749.81      15.2149      13.1765      28.7324    5760.2466 
  130500      130.487    253.68478      10.5916   -479.99652   -469.40492    -5031.713    21321.649    27125.237   -63542.025      15.2149      13.1765      28.7324    5760.2466 
  131000      130.987    251.41316    10.496758   -479.88644   -469.38968   -4872.3286     21056.42    28499.206   -64172.612      15.2149      13.1765      28.7324    5760.2466 
  131500      131.487      249.693    10.424939    -479.7985   -469.37356   -4558.8528    19657.021    30061.041   -63394.621      15.2149      13.1765      28.7324    5760.2466 
  132000      131.987    242.38034    10.119628   -479.47808   -469.35846    -3546.197    22623.228    28817.308   -62079.127      15.2149      13.1765      28.7324    5760.2466 
  132500      132.487    240.50693    10.041411   -479.38413   -469.34272   -3624.8805    21160.099    28612.168   -60646.908      15.2149      13.1765      28.7324    5760.2466 
  133000      132.987    250.21078    10.446557   -479.77354   -469.32698   -4315.9869    21227.045    31445.805   -65620.811      15.2149      13.1765      28.7324    5760.2466 
  133500      133.487    257.92728    10.768729   -480.08042   -469.31169   -3154.2663    21896.275    31331.633   -62690.707      15.2149      13.1765      28.7324    5760.2466 
  134000      133.987     253.5297    10.585125   -479.88112   -469.29599   -4217.4847    18632.509    30616.029   -61900.993      15.2149      13.1765      28.7324    5760.2466 
  134500      134.487    255.60141    10.671621   -479.95198   -469.28036   -4446.9202     19623.26    28645.706   -61609.726      15.2149      13.1765      28.7324    5760.2466 
  135000      134.987    252.88668    10.558278   -479.82296   -469.26468   -3799.3813    21693.714    29608.907   -62700.765      15.2149      13.1765      28.7324    5760.2466 
  135500      135.487    237.81627    9.9290733   -479.17725   -469.24818   -3540.7117     21810.07    29751.974   -62184.179      15.2149      13.1765      28.7324    5760.2466 
  136000      135.987    258.06482    10.774471   -480.00796   -469.23349   -3349.0061    22471.974    31411.417   -63930.409      15.2149      13.1765      28.7324    5760.2466 
  136500      136.487    246.09185    10.274588    -479.4913   -469.21671   -4584.9391    22269.346    32931.703   -68955.866      15.2149      13.1765      28.7324    5760.2466 
  137000      136.987    257.10051     10.73421   -479.93541    -469.2012   -5642.0678    19912.994    28468.494   -65307.692      15.2149      13.1765      28.7324    5760.2466 
  137500      137.487    249.60308    10.421185   -479.60703   -469.18584   -5397.9616    18120.946    30429.483   -64744.313      15.2149      13.1765      28.7324    5760.2466 
  138000      137.987    238.25799    9.9475158   -479.11666   -469.16914   -5019.8554    18846.329    28118.311   -62024.207      15.2149      13.1765      28.7324    5760.2466 
  138500      138.487    245.49435    10.249641    -479.4035   -469.15385   -4308.5182    19789.053    29544.613   -62259.221      15.2149      13.1765      28.7324    5760.2466 
  139000      138.987    258.07962    10.775089   -479.91315   -469.13806   -4039.4301      17310.5    29165.287   -58594.077      15.2149      13.1765      28.7324    5760.2466 
  139500      139.487    233.37807    9.7437741   -478.86511   -469.12134   -4422.5345     21327.29     29539.28   -64134.174      15.2149      13.1765      28.7324    5760.2466 
  140000      139.987    254.72962    10.635223   -479.74102    -469.1058   -3717.7062    22201.518    28226.114    -61580.75      15.2149      13.1765      28.7324    5760.2466 
  140500      140.487    248.41665     10.37165   -479.46276   -469.09111    -4760.104    20218.498    27601.666   -62100.475      15.2149      13.1765      28.7324    5760.2466 
  141000      140.987    264.55296    11.045358   -480.12006    -469.0747   -4294.6603    19102.407    28144.492   -60130.879      15.2149      13.1765      28.7324    5760.2466 
  141500      141.487    270.13094    11.278244   -480.33691   -469.05867   -5192.0868    21742.584    27801.911   -65120.756      15.2149      13.1765      28.7324    5760.2466 
  142000      141.987     246.4589    10.289912   -479.33174   -469.04182   -4870.5882    22881.225    25450.057   -62943.047      15.2149      13.1765      28.7324    5760.2466 
  142500      142.487    250.58771    10.462294   -479.48954   -469.02725   -3415.8927     22204.83    26847.303   -59299.811      15.2149      13.1765      28.7324    5760.2466 
  143000      142.987    248.20544    10.362832   -479.37414   -469.01131   -5209.1032    19884.556     28935.99   -64447.855      15.2149      13.1765      28.7324    5760.2466 
  143500      143.487    252.36559    10.536523   -479.53198   -468.99545   -3846.7022    21609.639    28382.508   -61532.254      15.2149      13.1765      28.7324    5760.2466 
  144000      143.987    247.53109    10.334677   -479.31376   -468.97909   -4470.3772     20902.17    29587.886   -63901.187      15.2149      13.1765      28.7324    5760.2466 
  144500      144.487    249.67399    10.424146    -479.3871   -468.96296   -4351.2275    19999.399    26641.962   -59695.043      15.2149      13.1765      28.7324    5760.2466 
  145000      144.987    239.43931    9.9968372   -478.94438   -468.94754   -5231.6633    18655.595    26946.331   -61296.916      15.2149      13.1765      28.7324    5760.2466 
  145500      145.487    254.82776    10.639321   -479.57097   -468.93165   -4659.1482    21156.002    27730.928   -62864.375      15.2149      13.1765      28.7324    5760.2466 
  146000      145.987    262.65432    10.966088   -479.88229    -468.9162   -4873.6391    20254.147    25751.237   -60626.302      15.2149      13.1765      28.7324    5760.2466 
  146500      146.487    254.56769    10.628462   -479.52845   -468.89998   -4606.7882    20860.064     28115.34   -62795.768      15.2149      13.1765      28.7324    5760.2466 
  147000      146.987    265.70225    11.093342   -479.97665    -468.8833   -4090.8314    21697.892    28151.004   -62121.391      15.2149      13.1765      28.7324    5760.2466 
  147500      147.487     233.6017    9.7531108   -478.62019   -468.86708   -4508.1239    19844.069    27545.624   -60914.065      15.2149      13.1765      28.7324    5760.2466 
  148000      147.987    258.29878    10.784239   -479.63613   -468.85189   -3684.7481    22545.759    27781.791   -61381.795      15.2149      13.1765      28.7324    5760.2466 
  148500      148.487    256.53827    10.710736   -479.54583    -468.8351   -3362.8352    20030.556    29072.907   -59191.969      15.2149      13.1765      28.7324    5760.2466 
  149000      148.987     245.9591    10.269045   -479.08784    -468.8188   -3360.8977    19852.861    31194.722   -61130.276      15.2149      13.1765      28.7324    5760.2466 
  149500      149.487    234.86088    9.8056828   -478.60859    -468.8029   -3604.0352    19214.078    29964.966    -59991.15      15.2149      13.1765      28.7324    5760.2466 
  150000      149.987    261.62756    10.923219   -479.71122     -468.788   -3044.7347    19599.467    27772.487   -56506.158      15.2149      13.1765      28.7324    5760.2466 
  150500      150.487    264.49537    11.042953    -479.8148   -468.77185   -3774.9789    21775.801    28196.366   -61297.104      15.2149      13.1765      28.7324    5760.2466 
  151000      150.987    264.40743    11.039282    -479.7941   -468.75482   -4045.5564    20517.843    31171.657    -63826.17      15.2149      13.1765      28.7324    5760.2466 
  151500      151.487    256.92873    10.727038    -479.4652   -468.73816   -3482.2389    21029.319     30061.03   -61537.065      15.2149      13.1765      28.7324    5760.2466 
  152000      151.987    239.66174    10.006124   -478.72737   -468.72124   -4279.2084    22395.876    27018.098     -62251.6      15.2149      13.1765      28.7324    5760.2466 
  152500      152.487    246.72284    10.300932   -479.00684    -468.7059   -4355.7979    22539.454    29177.471   -64784.319      15.2149      13.1765      28.7324    5760.2466 
  153000      152.987    254.72931     10.63521   -479.32421     -468.689    -3371.729    23831.898    28367.346   -62314.431      15.2149      13.1765      28.7324    5760.2466 
  153500      153.487    257.80547    10.763643   -479.43674    -468.6731   -4572.4522    20753.196    26593.154   -61063.706      15.2149      13.1765      28.7324    5760.2466 
  154000      153.987    270.94935    11.312414   -479.96975   -468.65734   -4412.1445    18226.733    29586.188   -61049.355      15.2149      13.1765      28.7324    5760.2466 
  154500      154.487    256.55925    10.711612   -479.35255   -468.64094   -4081.5237    20934.752    30965.891   -64145.214      15.2149      13.1765      28.7324    5760.2466 
  155000      154.987    252.17384    10.528517   -479.15267   -468.62416   -2855.8166    23547.082    30725.945   -62840.476      15.2149      13.1765      28.7324    5760.2466 
  155500      155.487     262.2556    10.949441   -479.55693   -468.60749   -3210.0435    23304.207    30466.904   -63401.242      15.2149      13.1765      28.7324    5760.2466 
  156000      155.987    256.81406    10.722251   -479.31398   -468.59173   -3838.0908    19346.732    29576.228   -60437.232      15.2149      13.1765      28.7324    5760.2466 
  156500      156.487    263.31352     10.99361   -479.56875   -468.57514   -3819.5328    20260.558    29705.743   -61424.899      15.2149      13.1765      28.7324    5760.2466 
  157000      156.987    272.60597    11.381579   -479.94055   -468.55897   -2581.4477    21622.218    29604.593   -58971.154      15.2149      13.1765      28.7324    5760.2466 
  157500      157.487    256.10488    10.692642   -479.23424    -468.5416   -4467.5612    21777.225    28488.842   -63668.751      15.2149      13.1765      28.7324    5760.2466 
  158000      157.987    262.88926    10.975897   -479.50124   -468.52534   -2826.4196    22851.526    28830.517   -60161.302      15.2149      13.1765      28.7324    5760.2466 
  158500      158.487    265.98442    11.105123   -479.61431   -468.50919   -4113.8189     22009.94    29045.253    -63396.65      15.2149      13.1765      28.7324    5760.2466 
  159000      158.987     255.5044    10.667571   -479.15977   -468.49219   -4512.7663    20830.188    29528.126   -63896.613      15.2149      13.1765      28.7324    5760.2466 
  159500      159.487    278.95959    11.646849   -480.12387   -468.47702   -5778.9444    16739.007    25683.549   -59759.389      15.2149      13.1765      28.7324    5760.2466 
  160000      159.987    258.43286    10.789837   -479.24869   -468.45885   -4151.7987      21758.1    25910.405   -60123.901      15.2149      13.1765      28.7324    5760.2466 
  160500      160.487    260.44286    10.873757    -479.3164   -468.44264   -3947.1429    20925.561    27987.418   -60754.407      15.2149      13.1765      28.7324    5760.2466 
  161000      160.987     237.5374    9.9174303   -478.34258   -468.42515   -4280.7773    19618.088    29817.502   -62277.922      15.2149      13.1765      28.7324    5760.2466 
  161500      161.487    250.50229    10.458728   -478.86747   -468.40875   -4148.6645    21990.533    27761.883   -62198.409      15.2149      13.1765      28.7324    5760.2466 
  162000      161.987    262.95837    10.978782   -479.37186   -468.39308   -4169.6552    22340.109    26579.093   -61428.168      15.2149      13.1765      28.7324    5760.2466 
  162500      162.487    281.56516    11.755635   -480.13282   -468.37718   -4348.7267    21627.287    28415.911   -63089.378      15.2149      13.1765      28.7324    5760.2466 
  163000      162.987    267.94398    11.186936   -479.54729   -468.36035   -4701.3186    22608.353    26668.902   -63381.211      15.2149      13.1765      28.7324    5760.2466 
  163500      163.487    264.66604    11.050079   -479.39394   -468.34386   -2847.6594    22254.711    27512.103   -58309.792      15.2149      13.1765      28.7324    5760.2466 
  164000      163.987    268.95335    11.229079   -479.55664   -468.32756   -4345.3077    23980.514     27358.82   -64375.257      15.2149      13.1765      28.7324    5760.2466 
  164500      164.487    263.76519    11.012467   -479.32265   -468.31018   -3871.4408    19113.709    23949.263   -54677.295      15.2149      13.1765      28.7324    5760.2466 
  165000      164.987    278.73121    11.637314   -479.93174   -468.29442   -4009.6212    21619.776    28043.024   -61691.663      15.2149      13.1765      28.7324    5760.2466 
  165500      165.487    260.25714    10.866003   -479.14306   -468.27706   -3414.8598    20532.057    29638.053   -60414.689      15.2149      13.1765      28.7324    5760.2466 
  166000      165.987    246.73387    10.301392   -478.56083   -468.25944   -3402.4478    17181.916     29873.33    -57262.59      15.2149      13.1765      28.7324    5760.2466 
  166500      166.487     248.9746    10.394945   -478.63835    -468.2434   -2477.8648    20722.478    28997.586   -57153.658      15.2149      13.1765      28.7324    5760.2466 
  167000      166.987    266.91049    11.143787   -479.37099   -468.22721   -4045.4898    22048.493    28086.313   -62271.276      15.2149      13.1765      28.7324    5760.2466 
  167500      167.487      281.578    11.756171   -479.96711   -468.21094   -4834.2179    18978.115    27689.667   -61170.436      15.2149      13.1765      28.7324    5760.2466 
  168000      167.987     262.0198    10.939596   -479.13338   -468.19379   -4176.1978    19106.813    27933.242   -59568.649      15.2149      13.1765      28.7324    5760.2466 
  168500      168.487    268.00812    11.189614   -479.36686   -468.17724   -4601.8193    18268.865    28421.895   -60496.218      15.2149      13.1765      28.7324    5760.2466 
  169000      168.987    267.30005    11.160052    -479.3203   -468.16025   -4542.3378    20833.899     30922.23   -65383.143      15.2149      13.1765      28.7324    5760.2466 
  169500      169.487    261.25894    10.907829   -479.05115   -468.14333   -3937.1728    20803.455    29894.184   -62509.158      15.2149      13.1765      28.7324    5760.2466 
  170000      169.987    266.74795    11.137001   -479.26387   -468.12687   -3272.4098    22887.669    32226.216   -64931.115      15.2149      13.1765      28.7324    5760.2466 
  170500      170.487    265.65958     11.09156   -479.20138   -468.10982   -4534.7268    20945.226    29387.086   -63936.492      15.2149      13.1765      28.7324    5760.2466 
  171000      170.987    276.58831    11.547846   -479.64137   -468.09352   -5051.1005    21789.927    27954.311    -64897.54      15.2149      13.1765      28.7324    5760.2466 
  171500      171.487    257.39592    10.746544   -478.82282   -468.07628   -3657.4007    21363.278    29180.778   -61516.259      15.2149      13.1765      28.7324    5760.2466 
  172000      171.987    272.75581    11.387835   -479.44627   -468.05843   -5080.7106    22304.392    28355.701   -65902.225      15.2149      13.1765      28.7324    5760.2466 
  172500      172.487    275.57224    11.505424   -479.54775   -468.04233   -3631.3164    21198.677     29676.77   -61769.396      15.2149      13.1765      28.7324    5760.2466 
  173000      172.987    271.94128    11.353828   -479.37917   -468.02534   -4037.4476     22550.23    27523.243   -62185.816      15.2149      13.1765      28.7324    5760.2466 
  173500      173.487    262.90794    10.976677   -478.98414   -468.00747   -3844.8919    20374.292    27540.311   -59449.279      15.2149      13.1765      28.7324    5760.2466 
  174000      173.987    270.34095    11.287012   -479.27781    -467.9908   -3807.7435    19092.502    28395.847    -58911.58      15.2149      13.1765      28.7324    5760.2466 
  174500      174.487    264.25872    11.033073    -479.0067   -467.97362   -4973.1295    20358.413    30180.439   -65458.241      15.2149      13.1765      28.7324    5760.2466 
  175000      174.987    271.75977    11.346249   -479.30323   -467.95698   -2669.4446    20058.685    27837.755   -55904.774      15.2149      13.1765      28.7324    5760.2466 
  175500      175.487    274.09274    11.443653   -479.38374   -467.94009   -3120.3643    23367.697    25770.028   -58498.818      15.2149      13.1765      28.7324    5760.2466 
  176000      175.987    262.45049    10.957577   -478.88007   -467.92249   -3936.4084    19612.222    26940.326   -58361.773      15.2149      13.1765      28.7324    5760.2466 
  176500      176.487    271.07254    11.317557   -479.22367   -467.90611   -4096.2986    21152.197    27011.141   -60452.235      15.2149      13.1765      28.7324    5760.2466 
  177000      176.987    263.67896    11.008867   -478.89763   -467.88876   -4432.8622    21567.645    27258.687   -62124.918      15.2149      13.1765      28.7324    5760.2466 
  177500      177.487    274.67615    11.468011   -479.34015   -467.87214   -4613.7012    19443.944    27605.647   -60890.695      15.2149      13.1765      28.7324    5760.2466 
  178000      177.987    272.52662    11.378266   -479.23312   -467.85485   -4603.7431    23502.635     28816.25   -66130.115      15.2149      13.1765      28.7324    5760.2466 
  178500      178.487    289.82495    12.100489   -479.93823   -467.83774   -3861.2609    22829.979     29095.36   -63509.121      15.2149      13.1765      28.7324    5760.2466 
  179000      178.987    276.11633     11.52814   -479.34902   -467.82088   -3170.4728    21603.469    29055.884   -60170.772      15.2149      13.1765      28.7324    5760.2466 
  179500      179.487    273.38683    11.414181   -479.21781   -467.80363   -3158.0267    22148.562    27545.169   -59167.811      15.2149      13.1765      28.7324    5760.2466 
  180000      179.987    263.90187    11.018174   -478.80337    -467.7852   -3678.6668    20439.366    28571.806   -60047.173      15.2149      13.1765      28.7324    5760.2466 
  180500      180.487    262.48545    10.959037   -478.72802   -467.76899   -3594.6609    21062.495    32117.916   -63964.394      15.2149      13.1765      28.7324    5760.2466 
  181000      180.987    261.79311    10.930131   -478.68146   -467.75133   -4305.3208    21240.225    28078.177   -62234.364      15.2149      13.1765      28.7324    5760.2466 
  181500      181.487    280.34238    11.704582   -479.43942   -467.73484   -4665.3152    20877.104    26332.548   -61205.598      15.2149      13.1765      28.7324    5760.2466 
  182000      181.987    273.82608     11.43252   -479.14967   -467.71715    -4104.111    20576.096    28423.547   -61311.977      15.2149      13.1765      28.7324    5760.2466 
  182500      182.487    264.57446    11.046255   -478.74611   -467.69986   -2482.3894    24180.418    27737.441   -59365.026      15.2149      13.1765      28.7324    5760.2466 
  183000      182.987    253.13112    10.568484   -478.25099   -467.68251   -2767.1576    22507.577    29600.132   -60409.182      15.2149      13.1765      28.7324    5760.2466 
  183500      183.487    282.49358    11.794397      -479.46   -467.66561   -5285.2219    19765.521    25869.234    -61490.42      15.2149      13.1765      28.7324    5760.2466 
  184000      183.987    283.94183    11.854863   -479.50342   -467.64856   -5449.8409    17724.481    26440.628   -60514.631      15.2149      13.1765      28.7324    5760.2466 
  184500      184.487     264.4569    11.041347   -478.67244   -467.63109    -4033.024    19073.813    29428.787   -60601.671      15.2149      13.1765      28.7324    5760.2466 
  185000      184.987    275.72928    11.511981   -479.12654   -467.61456   -4894.0262     20721.44    28365.292   -63768.811      15.2149      13.1765      28.7324    5760.2466 
  185500      185.487     281.6276    11.758242   -479.35557   -467.59733   -4728.4713     22077.08    30080.206     -66342.7      15.2149      13.1765      28.7324    5760.2466 
  186000      185.987    267.90556    11.185332   -478.76461   -467.57927   -4325.5232    22135.543     29229.55   -64341.663      15.2149      13.1765      28.7324    5760.2466 
  186500      186.487    279.75334    11.679989   -479.24302   -467.56303    -5772.287    20458.184    27972.026   -65747.071      15.2149      13.1765      28.7324    5760.2466 
  187000      186.987    278.94235     11.64613   -479.19193    -467.5458   -3888.1834    21084.832    27266.037   -60015.419      15.2149      13.1765      28.7324    5760.2466 
  187500      187.487    271.73655     11.34528   -478.87294   -467.52766   -3965.4337    20494.292    29952.072   -62342.665      15.2149      13.1765      28.7324    5760.2466 
  188000      187.987    279.60666    11.673865   -479.18518   -467.51131   -3932.4657    20738.387    30999.571   -63535.356      15.2149      13.1765      28.7324    5760.2466 
  188500      188.487    273.22381    11.407375   -478.90088   -467.49351   -4009.0173    22656.687    30856.291   -65540.029      15.2149      13.1765      28.7324    5760.2466 
  189000      188.987    273.54557    11.420808   -478.89692   -467.47611   -4109.2154    20018.032    28464.893   -60810.571      15.2149      13.1765      28.7324    5760.2466 
  189500      189.487    271.89114    11.351734   -478.81022   -467.45848   -4126.3387     20960.04    31396.852   -64735.909      15.2149      13.1765      28.7324    5760.2466 
  190000      189.987    266.38772    11.121961   -478.56284   -467.44087   -3401.8742    17954.896    31534.937   -59695.455      15.2149      13.1765      28.7324    5760.2466 
  190500      190.487    261.25362    10.907607   -478.33074   -467.42313    -3894.326    18711.971    30113.076   -60508.025      15.2149      13.1765      28.7324    5760.2466 
  191000      190.987    294.41297    12.292044   -479.69818   -467.40614   -4301.5688    20255.984    28663.669    -61824.36      15.2149      13.1765      28.7324    5760.2466 
  191500      191.487    256.69619     10.71733    -478.1052   -467.38787   -4039.0614    19264.346    29993.575   -61375.105      15.2149      13.1765      28.7324    5760.2466 
  192000      191.987    282.33148    11.787629   -479.15898   -467.37135   -3349.0698    21198.893     32436.76   -63682.863      15.2149      13.1765      28.7324    5760.2466 
  192500      192.487     267.1899    11.155453   -478.50879   -467.35334   -2494.8922    24335.309    29058.035    -60878.02      15.2149      13.1765      28.7324    5760.2466 
  193000      192.987    250.20504    10.446317   -477.78205   -467.33574   -4419.8851    19455.644    29260.084   -61975.384      15.2149      13.1765      28.7324    5760.2466 
  193500      193.487    267.58801    11.172074   -478.49059   -467.31851   -4063.5771    20809.153    27254.752   -60254.636      15.2149      13.1765      28.7324    5760.2466 
  194000      193.987    277.26247    11.575993   -478.87611   -467.30012   -4992.2949    19570.157    30340.802   -64887.844      15.2149      13.1765      28.7324    5760.2466 
  194500      194.487    271.19987    11.322873   -478.60575   -467.28288   -3686.3433    23110.155    30631.481   -64800.666      15.2149      13.1765      28.7324    5760.2466 
  195000      194.987    273.97002     11.43853   -478.70383    -467.2653   -4174.7342    21204.202    29075.718   -62804.123      15.2149      13.1765      28.7324    5760.2466 
  195500      195.487    276.51891    11.544948   -478.79253   -467.24758   -3587.5139    21596.228    27091.586   -59450.357      15.2149      13.1765      28.7324    5760.2466 
  196000      195.987    277.94596    11.604529   -478.83524   -467.23071   -4116.6405    20950.856     29326.03   -62626.808      15.2149      13.1765      28.7324    5760.2466 
  196500      196.487     259.5718    10.837389   -478.05062   -467.21323   -4302.0583    18341.629    30897.459   -62145.263      15.2149      13.1765      28.7324    5760.2466 
  197000      196.987    272.98323     11.39733   -478.59297   -467.19564   -3788.4261    20136.401    26515.153   -58016.833      15.2149      13.1765      28.7324    5760.2466 
  197500      197.487    289.08091    12.069425   -479.24813    -467.1787   -2323.2696    24277.368    28522.428   -59769.605      15.2149      13.1765      28.7324    5760.2466 
  198000      197.987    279.26949    11.659788   -478.82113   -467.16134   -4320.8193    25010.391    27950.237   -65923.086      15.2149      13.1765      28.7324    5760.2466 
  198500      198.487    258.58325    10.796116   -477.93917   -467.14306   -2637.2623    23954.527    29978.237   -61844.551      15.2149      13.1765      28.7324    5760.2466 
  199000      198.987    274.47509    11.459617   -478.58522    -467.1256   -2936.7843    19965.954     30415.87   -59192.177      15.2149      13.1765      28.7324    5760.2466 
  199500      199.487    280.73433    11.720947   -478.82945    -467.1085   -3182.2128    24732.443    27891.804   -62170.884      15.2149      13.1765      28.7324    5760.2466 
  200000      199.987     261.1954    10.905176   -477.99474   -467.08956   -4656.1282    22659.175    31428.014   -68055.573      15.2149      13.1765      28.7324    5760.2466 
  200500      200.487    285.48879     11.91945   -478.99137   -467.07192   -3738.1968    22455.333    27700.806   -61370.729      15.2149      13.1765      28.7324    5760.2466 
  201000      200.987     275.8589    11.517392   -478.57226   -467.05487   -4870.0247    21343.645    28413.926   -64367.644      15.2149      13.1765      28.7324    5760.2466 
  201500      201.487    277.86324    11.601075   -478.63809   -467.03701    -3633.802    20884.329    27852.552   -59638.287      15.2149      13.1765      28.7324    5760.2466 
  202000      201.987    285.88908    11.936162   -478.95553   -467.01937   -3705.6412    21318.249    28434.917    -60870.09      15.2149      13.1765      28.7324    5760.2466 
  202500      202.487    275.38756    11.497714   -478.49855   -467.00084   -3757.9428    21668.285    28670.095   -61612.209      15.2149      13.1765      28.7324    5760.2466 
  203000      202.987    280.45926    11.709462   -478.69349   -466.98403   -2416.3039    23568.417    30366.497   -61183.826      15.2149      13.1765      28.7324    5760.2466 
  203500      203.487    284.24086    11.867348   -478.83332   -466.96598   -3177.3218     25516.25    29652.993   -64701.209      15.2149      13.1765      28.7324    5760.2466 
  204000      203.987    275.76986    11.513675   -478.46202   -466.94835   -2946.9154    22862.437    30435.515   -62138.698      15.2149      13.1765      28.7324    5760.2466 
  204500      204.487    272.21691    11.365335   -478.29662   -466.93129   -5186.8078    17806.682    27317.644   -60684.749      15.2149      13.1765      28.7324    5760.2466 
  205000      204.987    282.64877    11.800876   -478.71425   -466.91337   -4833.1196     19870.17    29486.528   -63856.057      15.2149      13.1765      28.7324    5760.2466 
  205500      205.487    287.29591    11.994899    -478.8911    -466.8962   -4418.1564    20492.809    27244.076   -60991.354      15.2149      13.1765      28.7324    5760.2466 
  206000      205.987    273.93548    11.437088   -478.31478   -466.87769   -4315.9487    21364.413    29117.886   -63430.145      15.2149      13.1765      28.7324    5760.2466 
  206500      206.487    291.64599    12.176519   -479.03742   -466.86091   -4478.3006     21007.73    29348.909   -63791.541      15.2149      13.1765      28.7324    5760.2466 
  207000      206.987    296.29129    12.370465   -479.21348   -466.84302   -4160.9307    22251.489     28769.21   -63503.491      15.2149      13.1765      28.7324    5760.2466 
  207500      207.487    269.92385    11.269598   -478.09353   -466.82393   -4116.1446     19683.18    33863.537   -65895.151      15.2149      13.1765      28.7324    5760.2466 
  208000      207.987    283.17275    11.822753    -478.6296   -466.80684   -3286.7066    22435.211    30720.864   -63016.194      15.2149      13.1765      28.7324    5760.2466 
  208500      208.487     283.2955    11.827878   -478.61699   -466.78911   -3925.9581    21174.819    29452.544   -62405.237      15.2149      13.1765      28.7324    5760.2466 
  209000      208.987    279.50361    11.669563   -478.44057   -466.77101   -3460.5222    19821.246    30957.856   -61160.668      15.2149      13.1765      28.7324    5760.2466 
  209500      209.487    286.79733    11.974083   -478.72671   -466.75263   -4345.8522    18472.883    29986.814   -61497.253      15.2149      13.1765      28.7324    5760.2466 
  210000      209.987    293.56995    12.256847   -478.99167   -466.73482   -3082.7766     23171.04    30569.907   -62989.277      15.2149      13.1765      28.7324    5760.2466 
  210500      210.487    274.97114    11.480328   -478.19742    -466.7171   -3215.1871    20722.313    30132.471   -60500.345      15.2149      13.1765      28.7324    5760.2466 
  211000      210.987    290.26079    12.118686   -478.81705   -466.69837   -5431.3858    18377.817    28103.896   -62775.871      15.2149      13.1765      28.7324    5760.2466 
  211500      211.487    286.29056    11.952925   -478.63375   -466.68082   -3186.8196    20320.977    32249.836   -62131.271      15.2149      13.1765      28.7324    5760.2466 
  212000      211.987    292.73004     12.22178    -478.8842   -466.66242   -3368.1198    23840.961    26924.251   -60869.572      15.2149      13.1765      28.7324    5760.2466 
[...]
  948500      948.487    379.23456    15.833432   -475.03578   -459.20234   -1517.1617    25153.905    31718.731   -61424.121      15.2149      13.1765      28.7324    5760.2466 
  949000      948.987     376.6672    15.726242   -474.92711   -459.20087   -1252.8299    24411.191     33472.32   -61642.001      15.2149      13.1765      28.7324    5760.2466 
  949500      949.487    367.04847     15.32465   -474.52553   -459.20088   -2000.7683    21175.547    30112.144   -57289.996      15.2149      13.1765      28.7324    5760.2466 
  950000      949.987    363.41574    15.172981   -474.37271   -459.19973    -1157.303    26775.206     32529.36   -62776.475      15.2149      13.1765      28.7324    5760.2466 
  950500      950.487    379.36293    15.838792   -475.03852   -459.19972   -411.30129    26398.893    30693.265   -58326.062      15.2149      13.1765      28.7324    5760.2466 
  951000      950.987    395.46809    16.511199   -475.70904   -459.19785   -744.71779    25983.031    32895.402   -61112.587      15.2149      13.1765      28.7324    5760.2466 
  951500      951.487    377.38659    15.756278   -474.95328     -459.197   -922.40749    21690.325    30817.887   -55275.434      15.2149      13.1765      28.7324    5760.2466 
  952000      951.987    374.26336     15.62588    -474.8215   -459.19562   -1207.2635    23785.147    35977.505   -63384.443      15.2149      13.1765      28.7324    5760.2466 
  952500      952.487    388.35655    16.214285   -475.40937   -459.19509   -634.18568    25439.853     32743.52   -60085.931      15.2149      13.1765      28.7324    5760.2466 
  953000      952.987    364.48934    15.217804   -474.41138   -459.19357   -2219.4222     24893.77    32036.014   -63588.051      15.2149      13.1765      28.7324    5760.2466 
  953500      953.487    385.84001    16.109217   -475.30135   -459.19213   -1465.5452     24651.01     32114.42   -61162.065      15.2149      13.1765      28.7324    5760.2466 
  954000      953.987    381.43323    15.925229   -475.11556   -459.19033   -284.64758    26901.886    35263.176   -63019.005      15.2149      13.1765      28.7324    5760.2466 
  954500      954.487    368.29887    15.376856   -474.56572   -459.18886   -1286.3025    23112.304    34997.333   -61968.545      15.2149      13.1765      28.7324    5760.2466 
  955000      954.987    370.82041    15.482133   -474.66876   -459.18662    -2129.143      22379.8     31611.32   -60378.549      15.2149      13.1765      28.7324    5760.2466 
  955500      955.487    369.07165     15.40912   -474.59524   -459.18612    759.92466    22522.907    35818.036    -56061.17      15.2149      13.1765      28.7324    5760.2466 
  956000      955.987    353.02485     14.73915   -473.92277   -459.18362   -1989.2152    22139.243    35081.666   -63188.555      15.2149      13.1765      28.7324    5760.2466 
  956500      956.487    384.82883    16.066999   -475.25085   -459.18385   -867.31668    26489.523    33177.331   -62268.805      15.2149      13.1765      28.7324    5760.2466 
  957000      956.987    393.50359    16.429179   -475.61226   -459.18308   -1841.9656    26388.485    30830.138    -62744.52      15.2149      13.1765      28.7324    5760.2466 
  957500      957.487    374.99234    15.656315   -474.83679   -459.18048    97.135435    28160.567    33491.828   -61360.989      15.2149      13.1765      28.7324    5760.2466 
  958000      957.987    396.94668    16.572932   -475.75263    -459.1797    -3816.722    21493.601    30470.685   -63414.452      15.2149      13.1765      28.7324    5760.2466 
  958500      958.487    372.66233    15.559035   -474.73632   -459.17729   -1305.0365    20958.898    34951.481   -59825.489      15.2149      13.1765      28.7324    5760.2466 
  959000      958.987    373.30777    15.585983   -474.76129   -459.17531    -1487.749    20999.194    35653.266   -61115.707      15.2149      13.1765      28.7324    5760.2466 
  959500      959.487    371.98656    15.530821   -474.70427   -459.17345   -988.59794    26505.133    33904.396   -63375.322      15.2149      13.1765      28.7324    5760.2466 
  960000      959.987    374.72021    15.644953    -474.8164   -459.17145   -1402.4516     22808.44    27874.598   -54890.393      15.2149      13.1765      28.7324    5760.2466 
  960500      960.487    386.49518    16.136571   -475.30576   -459.16919   -73.787879    23698.079     32529.64   -56449.083      15.2149      13.1765      28.7324    5760.2466 
  961000      960.987    383.66012    16.018204   -475.18564   -459.16744   -1572.7515    22790.173    31898.886   -59407.314      15.2149      13.1765      28.7324    5760.2466 
  961500      961.487    366.51831    15.302516   -474.46762    -459.1651   -291.73881    25481.007    33488.623   -59844.846      15.2149      13.1765      28.7324    5760.2466 
  962000      961.987    378.37736    15.797643   -474.96155   -459.16391   -1794.0223    19748.193    35065.454   -60195.714      15.2149      13.1765      28.7324    5760.2466 
  962500      962.487    364.03887    15.198997   -474.36078   -459.16178    -1528.627    20821.414    37125.505   -62532.801      15.2149      13.1765      28.7324    5760.2466 
  963000      962.987    378.44524    15.800477   -474.96123   -459.16075     -353.793    25488.338    35318.888   -61868.605      15.2149      13.1765      28.7324    5760.2466 
  963500      963.487    376.20777    15.707061   -474.86712   -459.16006   -1493.2996    24332.171    28089.629   -56901.699      15.2149      13.1765      28.7324    5760.2466 
  964000      963.987    360.29398    15.042643   -474.19852   -459.15587   -983.68379    25204.848    34774.096   -62929.996      15.2149      13.1765      28.7324    5760.2466 
  964500      964.487    366.28535     15.29279   -474.44764   -459.15485   -1194.6803    22524.701    32845.447   -58954.189      15.2149      13.1765      28.7324    5760.2466 
  965000      964.987    384.53188    16.054601   -475.20836   -459.15376   -1018.4499    26923.281    31780.763   -61759.394      15.2149      13.1765      28.7324    5760.2466 
  965500      965.487    375.53624    15.679024   -474.83005   -459.15103   -483.00675    25634.968    36233.489   -63317.477      15.2149      13.1765      28.7324    5760.2466 
  966000      965.987    367.11348    15.327365   -474.47629   -459.14892   -2170.5744    23585.444    32500.739   -62597.907      15.2149      13.1765      28.7324    5760.2466 
  966500      966.487    365.43127    15.257131   -474.40383    -459.1467   -854.42107    22838.402    29893.961   -55295.627      15.2149      13.1765      28.7324    5760.2466 
  967000      966.987    370.65699     15.47531   -474.62021    -459.1449   -989.12314    23983.495     33833.69   -60784.555      15.2149      13.1765      28.7324    5760.2466 
  967500      967.487    384.54115    16.054988   -475.19691   -459.14193   -1416.1851    24944.918    30523.705   -59717.178      15.2149      13.1765      28.7324    5760.2466 
  968000      967.987    380.23954    15.875391   -475.01479    -459.1394   -1742.7848    20698.831     34899.04   -60826.225      15.2149      13.1765      28.7324    5760.2466 
  968500      968.487    364.80966    15.231178   -474.36856   -459.13738   -1408.8467    20542.129     31983.01   -56751.679      15.2149      13.1765      28.7324    5760.2466 
  969000      968.987     376.1084    15.702912   -474.83732   -459.13441   -1854.1999    25684.056    34383.743   -65630.398      15.2149      13.1765      28.7324    5760.2466 
  969500      969.487    357.92282    14.943645   -474.07493   -459.13128   -2875.9688    24216.318    30805.143   -63649.367      15.2149      13.1765      28.7324    5760.2466 
  970000      969.987    380.37253    15.880944   -475.01116   -459.13021   -1371.8952    25485.618    28958.883   -58560.187      15.2149      13.1765      28.7324    5760.2466 
  970500      970.487    375.44088    15.675042   -474.80271   -459.12767   -1973.6215     25577.36    29288.941   -60787.165      15.2149      13.1765      28.7324    5760.2466 
  971000      970.987    357.60672    14.930448   -474.05471   -459.12426   -1430.2253    24684.012    34514.257   -63488.944      15.2149      13.1765      28.7324    5760.2466 
  971500      971.487     362.8887    15.150976   -474.27235   -459.12137   -1630.9402    23604.183    30863.705   -59360.709      15.2149      13.1765      28.7324    5760.2466 
  972000      971.987    391.80199    16.358135   -475.47916   -459.12102   -2325.1995    25074.442    32546.652   -64596.693      15.2149      13.1765      28.7324    5760.2466 
  972500      972.487     390.0553    16.285209   -475.40356   -459.11835   -861.29672    24695.949    34300.713   -61580.552      15.2149      13.1765      28.7324    5760.2466 
  973000      972.987    384.07018    16.035324   -475.15153    -459.1162   -2880.2086    21606.616    33442.051   -63689.293      15.2149      13.1765      28.7324    5760.2466 
  973500      973.487    378.05376    15.784133    -474.8958   -459.11167   -1982.6876    28360.006    28740.583   -63048.651      15.2149      13.1765      28.7324    5760.2466 
  974000      973.987     380.9278    15.904127   -475.01379   -459.10967   -2109.1689    20888.925    31959.608    -59176.04      15.2149      13.1765      28.7324    5760.2466 
  974500      974.487    362.74942    15.145161   -474.25143   -459.10627   -1963.7231    27123.676    31556.827   -64571.672      15.2149      13.1765      28.7324    5760.2466 
  975000      974.987    369.32116    15.419538   -474.52311   -459.10357   -2614.6937    26731.416     29665.68   -64241.177      15.2149      13.1765      28.7324    5760.2466 
  975500      975.487    366.52577    15.302827    -474.4045   -459.10167   -825.09369    26132.963    30081.126    -58689.37      15.2149      13.1765      28.7324    5760.2466 
  976000      975.987    380.41969    15.882913    -474.9824   -459.09948   -2018.4123     23349.87    34617.339   -64022.446      15.2149      13.1765      28.7324    5760.2466 
  976500      976.487    366.93494    15.319911   -474.41552   -459.09561   -607.57252     25548.53    30618.123   -57989.371      15.2149      13.1765      28.7324    5760.2466 
  977000      976.987    372.80029    15.564795   -474.65739   -459.09259   -1639.0577    23624.792    34480.682   -63022.646      15.2149      13.1765      28.7324    5760.2466 
  977500      977.487    358.10982    14.951453   -474.04043   -459.08898   -1701.7866    26540.561    32277.048   -63922.969      15.2149      13.1765      28.7324    5760.2466 
  978000      977.987    387.12263    16.162767   -475.24938   -459.08661   -2938.5254    20671.086    31291.009   -60777.671      15.2149      13.1765      28.7324    5760.2466 
  978500      978.487    380.13563    15.871053   -474.95461   -459.08355   -794.33824     27139.67    29161.029   -58683.713      15.2149      13.1765      28.7324    5760.2466 
  979000      978.987    378.75826    15.813546   -474.89324   -459.07969   -356.73895    25617.658    34648.172   -61336.047      15.2149      13.1765      28.7324    5760.2466 
  979500      979.487    363.52929    15.177721    -474.2533   -459.07558    -2234.888    21509.595     29603.76   -57818.019      15.2149      13.1765      28.7324    5760.2466 
  980000      979.987    367.39652    15.339182   -474.41235   -459.07317   -1223.6868    24719.148    33833.329   -62223.537      15.2149      13.1765      28.7324    5760.2466 
  980500      980.487    364.72374    15.227591   -474.29674   -459.06915    -1559.038    23765.598    33162.645   -61605.357      15.2149      13.1765      28.7324    5760.2466 
  981000      980.987    361.28615    15.084068   -474.14976   -459.06569   -2981.3642    19776.812     36310.83   -65031.735      15.2149      13.1765      28.7324    5760.2466 
  981500      981.487    367.59357    15.347409   -474.40929   -459.06188   -578.34352    27196.458     33770.14   -62701.628      15.2149      13.1765      28.7324    5760.2466 
  982000      981.987     358.0215    14.947765   -474.00555   -459.05778   -1980.4652    23947.472    32888.597   -62777.465      15.2149      13.1765      28.7324    5760.2466 
  982500      982.487    396.59085    16.558075   -475.61313   -459.05505   -196.12205    23671.302    32165.105   -56424.773      15.2149      13.1765      28.7324    5760.2466 
  983000      982.987    359.13435    14.994228   -474.04508   -459.05086   -327.37223    18848.427     30401.47   -50232.014      15.2149      13.1765      28.7324    5760.2466 
  983500      983.487     375.7911    15.689664   -474.73764   -459.04797   -854.65324     25147.25    33230.189   -60941.399      15.2149      13.1765      28.7324    5760.2466 
  984000      983.987    373.15062    15.579421    -474.6225   -459.04308   -1163.5432    21009.284    36668.703   -61168.617      15.2149      13.1765      28.7324    5760.2466 
  984500      984.487    395.04407    16.493496   -475.53342   -459.03992   -2143.0646    22594.172    28364.747   -57388.113      15.2149      13.1765      28.7324    5760.2466 
  985000      984.987    387.59724    16.182583   -475.21876   -459.03617    380.45115    25619.383    35135.246   -59613.276      15.2149      13.1765      28.7324    5760.2466 
  985500      985.487    394.67954    16.478276   -475.51054   -459.03226   -718.60463    26389.122    34453.145    -62998.08      15.2149      13.1765      28.7324    5760.2466 
  986000      985.987     359.4377    15.006893   -474.03488   -459.02799     386.2875    24431.735    39341.024   -62613.897      15.2149      13.1765      28.7324    5760.2466 
  986500      986.487    379.09097    15.827437   -474.85207   -459.02463   -2403.1836    24450.038    33110.815   -64770.404      15.2149      13.1765      28.7324    5760.2466 
  987000      986.987    351.93324    14.693574   -473.71347    -459.0199   -1244.8217    23610.333    33393.647   -60738.445      15.2149      13.1765      28.7324    5760.2466 
  987500      987.487    388.80684    16.233085   -475.25054   -459.01746   -2832.3222     21980.75    29656.041   -60133.757      15.2149      13.1765      28.7324    5760.2466 
  988000      987.987    369.12824    15.411483   -474.42448     -459.013   -1605.6873    23634.009    30045.722   -58496.793      15.2149      13.1765      28.7324    5760.2466 
  988500      988.487    360.86344    15.066419   -474.07583   -459.00941   -992.39411    22175.372    33246.857   -58399.411      15.2149      13.1765      28.7324    5760.2466 
  989000      988.987    346.00911    14.446236   -473.45016   -459.00392   -867.35525    29311.678    26853.186    -58766.93      15.2149      13.1765      28.7324    5760.2466 
  989500      989.487    389.44585    16.259764   -475.26051   -459.00075   -513.05717    25148.821    35129.607   -61817.599      15.2149      13.1765      28.7324    5760.2466 
  990000      989.987     404.1165    16.872279   -475.87014   -458.99786   -1814.5382    24524.575    30978.344   -60946.534      15.2149      13.1765      28.7324    5760.2466 
  990500      990.487    378.09118    15.785695   -474.77897   -458.99328   -1648.0719    20547.238    34910.797   -60402.251      15.2149      13.1765      28.7324    5760.2466 
  991000      990.987    386.44786    16.134595   -475.12322   -458.98862    1238.5986    24740.307     39648.27   -60672.781      15.2149      13.1765      28.7324    5760.2466 
  991500      991.487    389.53508     16.26349   -475.24712   -458.98363    -2665.204    21236.574    39042.855   -68275.041      15.2149      13.1765      28.7324    5760.2466 
  992000      991.987    365.26311     15.25011   -474.22911     -458.979   -1880.1872    22576.472    36609.813   -64826.847      15.2149      13.1765      28.7324    5760.2466 
  992500      992.487    375.82469    15.691067   -474.66605   -458.97498   -2471.3345    20361.912    29884.475    -57660.39      15.2149      13.1765      28.7324    5760.2466 
  993000      992.987    386.97193    16.156475   -475.12655   -458.97007   -779.80739    25248.159     27292.36    -54879.94      15.2149      13.1765      28.7324    5760.2466 
  993500      993.487    368.98499    15.405502   -474.36987   -458.96437   -2807.0501    22631.691    35231.003   -66283.845      15.2149      13.1765      28.7324    5760.2466 
  994000      993.987    376.08023    15.701736   -474.66236   -458.96063   -1281.7931     25221.86    36275.635   -65342.875      15.2149      13.1765      28.7324    5760.2466 
  994500      994.487    367.56908    15.346386   -474.30235   -458.95596    72.130274    23751.146    36516.835   -60051.589      15.2149      13.1765      28.7324    5760.2466 
  995000      994.987    357.98358    14.946182   -473.89769   -458.95151    126.60777    23362.718    32608.042   -55590.936      15.2149      13.1765      28.7324    5760.2466 
  995500      995.487     367.6405    15.349369   -474.29649   -458.94712    254.21718    28859.556    38018.607   -66115.511      15.2149      13.1765      28.7324    5760.2466 
  996000      995.987    367.83877    15.357646   -474.29854    -458.9409    122.83171    26966.913    34769.362    -61367.78      15.2149      13.1765      28.7324    5760.2466 
  996500      996.487    365.44865    15.257856   -474.19534   -458.93748   -1232.2083    22795.437    36298.133   -62790.194      15.2149      13.1765      28.7324    5760.2466 
  997000      996.987    378.52628    15.803861   -474.73634   -458.93248   -1511.8246    24808.972    37692.753   -67037.199      15.2149      13.1765      28.7324    5760.2466 
  997500      997.487     383.4417    16.009085   -474.93601   -458.92693   -198.48884    23323.151    39033.189   -62951.807      15.2149      13.1765      28.7324    5760.2466 
  998000      997.987    374.79381    15.648027   -474.57077   -458.92274   -1111.0318    24559.738    34644.662   -62537.495      15.2149      13.1765      28.7324    5760.2466 
  998500      998.487    378.89451    15.819235   -474.73865   -458.91942   -381.98721     24791.92    35368.925   -61306.807      15.2149      13.1765      28.7324    5760.2466 
  999000      998.987    373.59393     15.59793   -474.51149   -458.91356   -241.07259    26464.134    31331.906   -58519.258      15.2149      13.1765      28.7324    5760.2466 
  999500      999.487    375.29654    15.669016   -474.57856   -458.90954   -1407.5254    22312.512    35720.961   -62256.049      15.2149      13.1765      28.7324    5760.2466 
 1000000      999.987    404.73823    16.898237   -475.80412   -458.90589   -1248.0624    24703.138    34585.864   -63033.189      15.2149      13.1765      28.7324    5760.2466 
 1000013         1000    376.37087     15.71387   -474.61728   -458.90341   -1047.2458    26708.945    31881.627   -61732.309      15.2149      13.1765      28.7324    5760.2466 
Loop time of 897.061 on 28 procs for 1000000 steps with 324 atoms

Performance: 96.315 ns/day, 0.249 hours/ns, 1114.751 timesteps/s
87.9% CPU use with 28 MPI tasks x no OpenMP threads

MPI task timing breakdown:
Section |  min time  |  avg time  |  max time  |%varavg| %total
---------------------------------------------------------------
Pair    | 736.84     | 782.38     | 821.24     |  87.3 | 87.22
Neigh   | 0          | 0          | 0          |   0.0 |  0.00
Comm    | 60.107     | 101.84     | 146.75     | 235.8 | 11.35
Output  | 0.099558   | 0.10236    | 0.12331    |   1.3 |  0.01
Modify  | 4.9833     | 7.6081     | 11.561     |  77.4 |  0.85
Other   |            | 5.13       |            |       |  0.57

Nlocal:    11.5714 ave 15 max 9 min
Histogram: 7 2 0 4 0 7 3 0 1 4
Nghost:    663.214 ave 711 max 626 min
Histogram: 4 5 3 1 7 0 0 0 4 4
Neighs:    723.321 ave 986 max 524 min
Histogram: 3 4 4 1 4 4 3 1 3 1
FullNghs:  1446.64 ave 1881 max 1101 min
Histogram: 7 1 1 4 2 5 2 1 1 4

Total # of neighbors = 40506
Ave neighs/atom = 125.019
Neighbor list builds = 0
Dangerous builds = 0

write_restart   POSCAR_1x1x1.rest

#unfix    1
#undump   1
Total wall time: 0:14:57
