LAMMPS (7 Dec 2015)
#----------- Initialize Simulation ------------ restart01
#processors	2 2 2
units		metal
boundary	p p p     ## periodic boundary condition  on x y z axis ##
atom_style atomic
#atom_modify map array sort 0 0.0

read_data	POSCAR_1x1x1.lammps
  triclinic box = (0 0 0) to (15.2149 13.1765 28.7324) with tilt (-7.60743 0 0)
  2 by 2 by 7 MPI processor grid
  reading atoms ...
  324 atoms

#----------- Define Potential -----------------
pair_style meam
pair_coeff * * MgAlZn.library.meam Mg Al Zn MgAlZn.parameter.meam Mg Al Zn 	#1=Mg 2=Al 3=Zn	#atoms/mass

#----------- Neighbor List --------------------
neighbor 2.0 bin
neigh_modify delay 10 check yes

#--------------  Run a simulation (minimization) ---------------------------------------
minimize       1.0e-4   1.0e-6   100   1000          #結構優化的條件
WARNING: Resetting reneighboring criteria during minimization (../min.cpp:168)
Neighbor list info ...
  2 neighbor list requests
  update every 1 steps, delay 0 steps, check yes
  max neighbors/atom: 2000, page size: 100000
  master list distance cutoff = 8
  ghost atom cutoff = 8
  binsize = 4 -> bins = 6 4 8
Memory usage per processor = 8.65004 Mbytes
Step Temp E_pair E_mol TotEng Press 
       0            0   -632.28725            0   -632.28725    21168.298 
      13            0   -648.30969            0   -648.30969    17860.505 
Loop time of 0.0248288 on 28 procs for 13 steps with 324 atoms

83.4% CPU use with 28 MPI tasks x no OpenMP threads

Minimization stats:
  Stopping criterion = energy tolerance
  Energy initial, next-to-last, final = 
        -632.287253645     -648.260596683     -648.309694972
  Force two-norm initial, final = 23.9901 2.3183
  Force max component initial, final = 3.51871 1.20771
  Final line search alpha, max atom move = 0.110629 0.133608
  Iterations, force evaluations = 13 25

MPI task timing breakdown:
Section |  min time  |  avg time  |  max time  |%varavg| %total
---------------------------------------------------------------
Pair    | 0.018868   | 0.020711   | 0.022781   |   0.6 | 83.42
Neigh   | 0          | 0          | 0          |   0.0 |  0.00
Comm    | 0.0012521  | 0.0032059  | 0.005073   |   1.7 | 12.91
Output  | 0          | 0          | 0          |   0.0 |  0.00
Modify  | 0          | 0          | 0          |   0.0 |  0.00
Other   |            | 0.0009116  |            |       |  3.67

Nlocal:    11.5714 ave 16 max 5 min
Histogram: 2 3 1 1 3 0 5 4 3 6
Nghost:    648.929 ave 699 max 604 min
Histogram: 4 4 4 2 0 4 0 4 3 3
Neighs:    720.429 ave 1083 max 322 min
Histogram: 2 3 1 3 1 6 5 3 3 1
FullNghs:  1440.86 ave 2039 max 638 min
Histogram: 2 3 1 1 3 2 5 5 5 1

Total # of neighbors = 40344
Ave neighs/atom = 124.519
Neighbor list builds = 0
Dangerous builds = 0
velocity all  create 393.0 4928459 #rot yes dist gaussian

#--------------  Run a simulation (Relaxation)  ----------------------------------------
fix  1  all  nvt   temp  393.0  393.0  100				#damping constant
#fix  2  all  npt   temp  393.0  393.0  50 iso 0.0 0.0 1000.0
#fix  2  all deform 1 x final 0 15.6906 y final 0 13.5884 z final 0 25.2339 xy final -7.8452 units lattice
#fix  3  all  npt   temp  393.0  393.0  50 z 0.0 0.0 1000.0

#variable b equal 1
#fix 2 all efield  0.0  0.0  v_b
#compute pot all pe/atom


#----------- Output --------------------------
thermo	 500
timestep  0.001		#1.0 fs
thermo_style	custom step time temp ke pe etotal press pxx pyy pzz lx ly lz vol

dump 1 all custom 10000 dump.eq id type x y z
dump_modify 1 sort  id

run        1000000	#10000	 ps
Neighbor list info ...
  2 neighbor list requests
  update every 1 steps, delay 10 steps, check yes
  max neighbors/atom: 2000, page size: 100000
  master list distance cutoff = 8
  ghost atom cutoff = 8
  binsize = 4 -> bins = 6 4 8
Memory usage per processor = 7.54051 Mbytes
Step Time Temp KinEng PotEng TotEng Press Pxx Pyy Pzz Lx Ly Lz Volume 
      13            0          393    16.408154   -648.30969   -631.90154    20903.055    39625.781    42719.911   -19636.527      15.2149      13.1765      28.7324    5760.2466 
     500        0.487    221.78256    9.2596497   -641.15547   -631.89582    19009.984    40681.809    46137.751   -29789.608      15.2149      13.1765      28.7324    5760.2466 
    1000        0.987    217.84475    9.0952421   -640.99068   -631.89544    19274.729    40844.112    45368.562   -28388.488      15.2149      13.1765      28.7324    5760.2466 
    1500        1.487       215.74    9.0073667   -640.90155   -631.89418    19952.424    43204.862    44475.159   -27822.749      15.2149      13.1765      28.7324    5760.2466 
    2000        1.987    207.43313    8.6605462    -640.5543   -631.89375    21171.027    44412.779    48407.446   -29307.145      15.2149      13.1765      28.7324    5760.2466 
    2500        2.487    195.55963    8.1648153   -640.05774   -631.89292    19366.699    42135.315    45601.671   -29636.889      15.2149      13.1765      28.7324    5760.2466 
    3000        2.987    204.49197    8.5377498   -640.42917   -631.89142    22507.992    38458.019    49019.249   -19953.292      15.2149      13.1765      28.7324    5760.2466 
    3500        3.487    215.85203    9.0120437   -640.90236   -631.89032    19042.039    39688.513    46766.253    -29328.65      15.2149      13.1765      28.7324    5760.2466 
    4000        3.987     200.0684    8.3530613   -640.24114   -631.88808     20508.99    40782.279     51805.86    -31061.17      15.2149      13.1765      28.7324    5760.2466 
    4500        4.487    206.27717    8.6122837   -640.49941   -631.88712    20659.932    44737.425    46825.576   -29583.206      15.2149      13.1765      28.7324    5760.2466 
    5000        4.987    214.86191    8.9707055   -640.85594   -631.88523    19329.914    39936.578    47664.015   -29610.852      15.2149      13.1765      28.7324    5760.2466 
    5500        5.487    211.27289    8.8208601   -640.70453   -631.88367    20304.092    39308.639    49523.496   -27919.858      15.2149      13.1765      28.7324    5760.2466 
    6000        5.987    207.14842    8.6486592   -640.52937   -631.88072     20845.94    42956.812    45941.846   -26360.837      15.2149      13.1765      28.7324    5760.2466 
    6500        6.487    215.37999    8.9923359   -640.87097   -631.87863    20923.463    41862.131     48745.46   -27837.201      15.2149      13.1765      28.7324    5760.2466 
    7000        6.987    207.43727    8.6607189   -640.53603   -631.87531    19341.588    43681.482    48231.422   -33888.139      15.2149      13.1765      28.7324    5760.2466 
    7500        7.487    214.74227    8.9657103   -640.83838   -631.87267    19588.621    42339.127    46236.097   -29809.361      15.2149      13.1765      28.7324    5760.2466 
    8000        7.987    205.77593    8.5913563   -640.46049   -631.86913    20923.469    38789.513    50362.997   -26382.103      15.2149      13.1765      28.7324    5760.2466 
    8500        8.487    219.85759    9.1792801   -641.04562   -631.86634    20467.206    42767.084    48316.259   -29681.726      15.2149      13.1765      28.7324    5760.2466 
    9000        8.987    206.96472    8.6409896   -640.50272   -631.86173    21955.279    40923.906    49202.604   -24260.674      15.2149      13.1765      28.7324    5760.2466 
    9500        9.487    212.50583    8.8723366   -640.73057   -631.85824    21244.302    43935.028    49671.835   -29873.956      15.2149      13.1765      28.7324    5760.2466 
   10000        9.987     215.6513    9.0036632   -640.85762   -631.85396      20132.2     42498.54    46929.753   -29031.692      15.2149      13.1765      28.7324    5760.2466 
   10500       10.487    214.95719    8.9746834   -640.82465   -631.84996    20344.186    41306.472    47082.053   -27355.965      15.2149      13.1765      28.7324    5760.2466 
   11000       10.987    229.13592    9.5666601   -641.41352   -631.84686    18720.877    39290.128    45787.135   -28914.632      15.2149      13.1765      28.7324    5760.2466 
   11500       11.487    200.93286     8.389153   -640.22935    -631.8402    19368.033    43134.656    48103.024   -33133.581      15.2149      13.1765      28.7324    5760.2466 
   12000       11.987    213.56152    8.9164129   -640.75216   -631.83574    19160.773    41271.721    49507.097   -33296.501      15.2149      13.1765      28.7324    5760.2466 
   12500       12.487    211.86537    8.8455968   -640.67699   -631.83139    19262.727    42281.552    48337.728   -32831.099      15.2149      13.1765      28.7324    5760.2466 
   13000       12.987    205.40044    8.5756793    -640.4016   -631.82592    19011.216    41748.695    47547.315   -32262.362      15.2149      13.1765      28.7324    5760.2466 
   13500       13.487    218.35644    9.1166057   -640.93713   -631.82052    20142.614    41710.992    49885.785   -31168.934      15.2149      13.1765      28.7324    5760.2466 
   14000       13.987    215.38946    8.9927312    -640.8072   -631.81447    19657.924    40572.781    48734.461   -30333.468      15.2149      13.1765      28.7324    5760.2466 
   14500       14.487    212.25313    8.8617863   -640.67085   -631.80906     20124.99    41313.649    50741.997   -31680.676      15.2149      13.1765      28.7324    5760.2466 
   15000       14.987    220.39767    9.2018292   -641.00533    -631.8035    20412.489    39465.721    52977.319   -31205.574      15.2149      13.1765      28.7324    5760.2466 
   15500       15.487    219.96253    9.1836614   -640.98087   -631.79721    19660.708    40916.619     49355.73   -31290.225      15.2149      13.1765      28.7324    5760.2466 
   16000       15.987    215.10312     8.980776   -640.77069   -631.78991    19044.679    37301.502    49037.678   -29205.143      15.2149      13.1765      28.7324    5760.2466 
   16500       16.487    228.93925    9.5584489   -641.34286   -631.78441     20056.85    41614.023    50380.021   -31823.492      15.2149      13.1765      28.7324    5760.2466 
   17000       16.987    206.36401    8.6159095   -640.39269   -631.77678    21265.243    38793.247    53281.504   -28279.023      15.2149      13.1765      28.7324    5760.2466 
   17500       17.487    218.82076    9.1359913   -640.90486   -631.76887    20916.692    41311.411    51866.008   -30427.342      15.2149      13.1765      28.7324    5760.2466 
   18000       17.987    214.87272    8.9711566   -640.73342   -631.76226    21202.673    42553.754    46073.509   -25019.243      15.2149      13.1765      28.7324    5760.2466 
   18500       18.487    217.75431     9.091466   -640.84611   -631.75465     20213.36    42874.353    50787.744   -33022.017      15.2149      13.1765      28.7324    5760.2466 
   19000       18.987    217.29541    9.0723067   -640.81997   -631.74767    21323.015    39882.623    48837.667   -24751.244      15.2149      13.1765      28.7324    5760.2466 
   19500       19.487    219.26039    9.1543466   -640.89369   -631.73935    21146.466    40254.788    52492.355   -29307.744      15.2149      13.1765      28.7324    5760.2466 
   20000       19.987    213.33152      8.90681   -640.63766   -631.73085    20167.249    39304.491     50483.36   -29286.104      15.2149      13.1765      28.7324    5760.2466 
   20500       20.487    221.42602    9.2447637    -640.9679   -631.72314    21362.891     41384.14    49606.674   -26902.141      15.2149      13.1765      28.7324    5760.2466 
   21000       20.987    215.62816     9.002697   -640.71652   -631.71382    20734.864    40385.131    50836.717   -29017.256      15.2149      13.1765      28.7324    5760.2466 
   21500       21.487    223.31434    9.3236031    -641.0294    -631.7058    21397.026    40376.158    49500.447   -25685.527      15.2149      13.1765      28.7324    5760.2466 
   22000       21.987    209.63494     8.752474   -640.44914   -631.69667    21171.827    43185.951    48334.769   -28005.239      15.2149      13.1765      28.7324    5760.2466 
   22500       22.487    225.27645    9.4055231   -641.09352     -631.688    19681.996    39003.726    51588.287   -31546.025      15.2149      13.1765      28.7324    5760.2466 
   23000       22.987    218.49755    9.1224973   -640.80114   -631.67864    20070.643    38753.458    52295.442   -30836.971      15.2149      13.1765      28.7324    5760.2466 
   23500       23.487     204.1333     8.522775   -640.19119   -631.66842    21151.788     41911.58    51079.118   -29535.334      15.2149      13.1765      28.7324    5760.2466 
   24000       23.987    205.85805    8.5947852   -640.25365   -631.65886    20751.194      39404.9    51972.041   -29123.358      15.2149      13.1765      28.7324    5760.2466 
   24500       24.487    209.79012    8.7589531   -640.40844   -631.64948    20639.692    41059.371    48538.297   -27678.594      15.2149      13.1765      28.7324    5760.2466 
   25000       24.987    219.84436     9.178728   -640.81893    -631.6402    19883.123    41776.753     48028.57   -30155.953      15.2149      13.1765      28.7324    5760.2466 
   25500       25.487    212.99547    8.8927794   -640.52147   -631.62869    20142.575    38736.768    50252.958       -28562      15.2149      13.1765      28.7324    5760.2466 
   26000       25.987    209.07904    8.7292646   -640.34804   -631.61878     19892.63    40794.284    51719.195   -32835.589      15.2149      13.1765      28.7324    5760.2466 
   26500       26.487    222.09736    9.2727929   -640.88173   -631.60894    20832.775    39331.919    48002.972   -24836.567      15.2149      13.1765      28.7324    5760.2466 
   27000       26.987    211.15096    8.8157695   -640.41321   -631.59745    20762.373    47573.602    47155.402   -32441.886      15.2149      13.1765      28.7324    5760.2466 
   27500       27.487    222.25024    9.2791759   -640.86655   -631.58737    21231.233    44373.687    52272.559   -32952.547      15.2149      13.1765      28.7324    5760.2466 
   28000       27.987     216.1098    9.0228062   -640.59927   -631.57647    21388.069    42723.357    50168.657   -28727.808      15.2149      13.1765      28.7324    5760.2466 
   28500       28.487    219.60785    9.1688532   -640.73499   -631.56614    19698.532    40452.729    48149.046   -29506.177      15.2149      13.1765      28.7324    5760.2466 
   29000       28.987    212.91806    8.8895478    -640.4443   -631.55475    21027.915     43117.17    51595.887   -31629.311      15.2149      13.1765      28.7324    5760.2466 
   29500       29.487     219.0696    9.1463807   -640.68967   -631.54329    19796.061    41927.054    49784.217   -32323.088      15.2149      13.1765      28.7324    5760.2466 
   30000       29.987    216.42969    9.0361617   -640.56753   -631.53137    21718.146    44238.946    48663.608   -27748.114      15.2149      13.1765      28.7324    5760.2466 
   30500       30.487    221.61352     9.252592   -640.77298   -631.52039    21274.394    43426.214    49112.654   -28715.687      15.2149      13.1765      28.7324    5760.2466 
   31000       30.987    223.94474    9.3499229    -640.8585   -631.50858    20784.839    45251.801    47487.646    -30384.93      15.2149      13.1765      28.7324    5760.2466 
   31500       31.487    221.70525    9.2564217   -640.75359   -631.49717    20855.309    40369.113    47469.419   -25272.604      15.2149      13.1765      28.7324    5760.2466 
   32000       31.987    226.04826     9.437747   -640.92261   -631.48486    19711.179     42600.58      50548.1   -34015.143      15.2149      13.1765      28.7324    5760.2466 
   32500       32.487    229.41557    9.5783356   -641.05145   -631.47311    21087.758    44870.756    49923.741   -31531.223      15.2149      13.1765      28.7324    5760.2466 
   33000       32.987    220.53175    9.2074268   -640.66767   -631.46024     19946.34    45557.074    47123.832   -32841.885      15.2149      13.1765      28.7324    5760.2466 
   33500       33.487    232.16791    9.6932487   -641.14222   -631.44897    20779.665    40823.433    52740.445   -31224.885      15.2149      13.1765      28.7324    5760.2466 
   34000       33.987    222.94727    9.3082773   -640.74442   -631.43614    20682.489    42262.432    49621.748   -29836.712      15.2149      13.1765      28.7324    5760.2466 
   34500       34.487    220.62505    9.2113226   -640.63462    -631.4233    18975.257    41571.924    48877.351   -33523.502      15.2149      13.1765      28.7324    5760.2466 
   35000       34.987    220.03554    9.1867095   -640.59759   -631.41088    20115.848     40218.17    51178.374       -31049      15.2149      13.1765      28.7324    5760.2466 
   35500       35.487    225.19374    9.4020697   -640.80075   -631.39868    20513.788    42326.298    49820.854   -30605.787      15.2149      13.1765      28.7324    5760.2466 
   36000       35.987    222.70174    9.2980264   -640.68421   -631.38618    20995.143    41850.227    49095.639   -27960.437      15.2149      13.1765      28.7324    5760.2466 
   36500       36.487    219.86559    9.1796144   -640.55298   -631.37336    22895.233    40827.685     47508.26   -19650.247      15.2149      13.1765      28.7324    5760.2466 
   37000       36.987    225.75027    9.4253057   -640.78552   -631.36021    21372.208    42387.356     47344.24   -25614.972      15.2149      13.1765      28.7324    5760.2466 
   37500       37.487    218.13472    9.1073484   -640.45498   -631.34764    21447.181    40645.863    52187.149    -28491.47      15.2149      13.1765      28.7324    5760.2466 
   38000       37.987     230.6894    9.6315192   -640.96722    -631.3357    22051.556    41839.976    51552.035   -27237.343      15.2149      13.1765      28.7324    5760.2466 
   38500       38.487     213.4686    8.9125331   -640.23457   -631.32203    19587.112     43182.79    48642.711   -33064.165      15.2149      13.1765      28.7324    5760.2466 
   39000       38.987    229.15749    9.5675605   -640.87754   -631.30998    21518.069    44381.571    50092.488   -29919.851      15.2149      13.1765      28.7324    5760.2466 
   39500       39.487    217.43573     9.078165   -640.37424   -631.29607    19555.825    42045.834    50211.128   -33589.487      15.2149      13.1765      28.7324    5760.2466 
   40000       39.987    209.32223    8.7394179    -640.0226   -631.28318    21390.181    41965.023    51965.912   -29760.392      15.2149      13.1765      28.7324    5760.2466 
   40500       40.487    225.71536     9.423848   -640.69529   -631.27144    20480.641    41624.618    47660.102   -27842.796      15.2149      13.1765      28.7324    5760.2466 
   41000       40.987    232.32533    9.6998211   -640.95882     -631.259    21875.095    42988.656    53068.394   -30431.765      15.2149      13.1765      28.7324    5760.2466 
   41500       41.487    228.22428    9.5285981   -640.77376   -631.24516    21486.606    37688.956    51300.821   -24529.961      15.2149      13.1765      28.7324    5760.2466 
   42000       41.987    220.15804    9.1918244   -640.42386   -631.23204    19979.209    42085.376    50050.011    -32197.76      15.2149      13.1765      28.7324    5760.2466 
   42500       42.487    219.83052    9.1781499   -640.39739   -631.21924    20079.532    43387.003    50544.024   -33692.433      15.2149      13.1765      28.7324    5760.2466 
   43000       42.987    223.37546    9.3261548   -640.53205   -631.20589    20456.436    42661.303    50743.457    -32035.45      15.2149      13.1765      28.7324    5760.2466 
   43500       43.487      223.725    9.3407484   -640.53418   -631.19343    20759.514    44491.153    48117.892   -30330.502      15.2149      13.1765      28.7324    5760.2466 
   44000       43.987    218.43469    9.1198724   -640.30015   -631.18027    21377.112    41263.775    49783.155   -26915.593      15.2149      13.1765      28.7324    5760.2466 
   44500       44.487    224.61997    9.3781145   -640.54553   -631.16742    19310.655    40154.914    50032.222   -32255.171      15.2149      13.1765      28.7324    5760.2466 
   45000       44.987    227.68105    9.5059175   -640.66062    -631.1547    20829.017    40566.904    52160.955   -30240.807      15.2149      13.1765      28.7324    5760.2466 
   45500       45.487    222.85607    9.3044696   -640.44607    -631.1416    21447.052    41057.526    53850.567   -30566.937      15.2149      13.1765      28.7324    5760.2466 
   46000       45.987    215.97093     9.017008   -640.14591    -631.1289    19646.326      39500.8    47645.137    -28206.96      15.2149      13.1765      28.7324    5760.2466 
   46500       46.487    225.75082    9.4253285   -640.54179   -631.11646    21730.978    39030.707    52705.209   -26542.984      15.2149      13.1765      28.7324    5760.2466 
   47000       46.987    227.64295    9.5043268   -640.60857   -631.10424    20521.582    38611.439    50247.736   -27294.428      15.2149      13.1765      28.7324    5760.2466 
   47500       47.487    224.00871    9.3525935   -640.44472   -631.09213    18321.922     37242.92    49363.191   -31640.345      15.2149      13.1765      28.7324    5760.2466 
   48000       47.987    233.03136    9.7292986   -640.80925   -631.07995    21102.561    40866.054    50257.833   -27816.203      15.2149      13.1765      28.7324    5760.2466 
   48500       48.487    218.91733    9.1400233   -640.20706   -631.06703     17933.36    36017.351    50331.229   -32548.501      15.2149      13.1765      28.7324    5760.2466 
   49000       48.987    224.30312    9.3648855   -640.41915   -631.05426    20989.221    42980.217    52905.793   -32918.345      15.2149      13.1765      28.7324    5760.2466 
   49500       49.487    223.71026    9.3401329   -640.38189   -631.04176    21676.819    39775.427     49826.56   -24571.531      15.2149      13.1765      28.7324    5760.2466 
   50000       49.987    217.11637    9.0648315   -640.09446   -631.02963    19617.678    40338.634    48639.981   -30125.583      15.2149      13.1765      28.7324    5760.2466 
   50500       50.487    224.63355    9.3786812   -640.39635   -631.01767    21166.361     37823.37    51411.948   -25736.234      15.2149      13.1765      28.7324    5760.2466 
   51000       50.987    220.40131    9.2019812   -640.20775   -631.00577    19879.448    42955.857    52087.212   -35404.726      15.2149      13.1765      28.7324    5760.2466 
   51500       51.487    234.74056    9.8006596   -640.79519   -630.99453    20754.749     39126.99    52169.092   -29031.835      15.2149      13.1765      28.7324    5760.2466 
   52000       51.987    237.64038    9.9217298   -640.90438   -630.98265    20210.836    42147.049    51452.985   -32967.526      15.2149      13.1765      28.7324    5760.2466 
   52500       52.487    220.66647    9.2130515   -640.18273   -630.96968    19738.785    40717.218    51140.845   -32641.708      15.2149      13.1765      28.7324    5760.2466 
   53000       52.987    229.63751    9.5876017    -640.5462    -630.9586    19910.686    42434.882     52925.91   -35628.733      15.2149      13.1765      28.7324    5760.2466 
   53500       53.487    209.34358    8.7403093   -639.68575   -630.94544    21838.102    42327.201    52611.401   -29424.295      15.2149      13.1765      28.7324    5760.2466 
   54000       53.987    225.20955    9.4027298    -640.3374   -630.93467    21416.381    38155.025    50753.569   -24659.451      15.2149      13.1765      28.7324    5760.2466 
   54500       54.487    225.89276    9.4312546   -640.35402   -630.92277    20483.999    40123.397    52624.762   -31296.162      15.2149      13.1765      28.7324    5760.2466 
   55000       54.987    214.09194    8.9385583   -639.84977   -630.91122    19320.516    40351.145    49443.271   -31832.868      15.2149      13.1765      28.7324    5760.2466 
   55500       55.487    249.25873    10.406808   -641.30725   -630.90044    20942.431    42022.267    48797.198    -27992.17      15.2149      13.1765      28.7324    5760.2466 
   56000       55.987    239.99603    10.020081   -640.90899   -630.88891    20731.112     41733.82    50561.938   -30102.422      15.2149      13.1765      28.7324    5760.2466 
   56500       56.487    223.91644    9.3487415   -640.22512   -630.87638    19720.238     40371.86    49129.406   -30340.553      15.2149      13.1765      28.7324    5760.2466 
   57000       56.987    220.20881    9.1939439    -640.0592   -630.86526    20336.038    42096.696    49344.591   -30433.174      15.2149      13.1765      28.7324    5760.2466 
   57500       57.487     227.5644    9.5010472   -640.35496   -630.85391    20234.897    41151.944      51626.2   -32073.454      15.2149      13.1765      28.7324    5760.2466 
   58000       57.987    223.45786    9.3295951   -640.17195   -630.84235    21249.754    42355.429    51894.119   -30500.286      15.2149      13.1765      28.7324    5760.2466 
   58500       58.487    227.54168    9.5000987   -640.33167   -630.83157    21436.723    42126.956    49784.523    -27601.31      15.2149      13.1765      28.7324    5760.2466 
   59000       58.987    228.21272    9.5281153   -640.34861    -630.8205    20916.919    39345.076    50737.074   -27331.392      15.2149      13.1765      28.7324    5760.2466 
   59500       59.487    228.83018    9.5538949   -640.36284   -630.80894    19314.861    43170.216     46116.91   -31342.544      15.2149      13.1765      28.7324    5760.2466 
   60000       59.987    222.39312    9.2851409   -640.08306   -630.79792    20672.103    44032.192    49262.586   -31278.467      15.2149      13.1765      28.7324    5760.2466 
   60500       60.487    210.62821    8.7939439   -639.58086   -630.78692    20949.899    44413.683     48402.87   -29966.855      15.2149      13.1765      28.7324    5760.2466 
   61000       60.987    235.33001    9.8252697   -640.60235   -630.77708    20803.232    41614.198    49419.493   -28623.993      15.2149      13.1765      28.7324    5760.2466 
   61500       61.487    220.21699    9.1942854   -639.96014   -630.76586    20912.299    41227.831    50415.343   -28906.276      15.2149      13.1765      28.7324    5760.2466 
   62000       61.987    233.78156    9.7606203   -640.51599   -630.75537    19273.268    39005.585    47136.125   -28321.906      15.2149      13.1765      28.7324    5760.2466 
   62500       62.487    229.36626     9.576277   -640.32064   -630.74436    20340.459    39168.697    51906.468   -30053.787      15.2149      13.1765      28.7324    5760.2466 
   63000       62.987    222.12847    9.2740917   -640.00785   -630.73375    20010.029    41592.675    45820.234   -27382.822      15.2149      13.1765      28.7324    5760.2466 
   63500       63.487    227.97964    9.5183842   -640.24111   -630.72273    19678.176    42835.804    48770.476   -32571.752      15.2149      13.1765      28.7324    5760.2466 
   64000       63.987    231.08157    9.6478929   -640.36092   -630.71302    21601.067    45249.255    49003.099   -29449.152      15.2149      13.1765      28.7324    5760.2466 
   64500       64.487    226.87223    9.4721486   -640.17371   -630.70157    20314.331    43995.671    46188.068   -29240.745      15.2149      13.1765      28.7324    5760.2466 
   65000       64.987    226.77428    9.4680592   -640.15863   -630.69057     20719.73     39950.89    51835.362   -29627.063      15.2149      13.1765      28.7324    5760.2466 
   65500       65.487    224.73597    9.3829573   -640.06318   -630.68022    20798.406    43856.613    48126.452   -29587.846      15.2149      13.1765      28.7324    5760.2466 
   66000       65.987    215.67567    9.0046809   -639.67372   -630.66904    20935.316    41453.271    46272.904   -24920.228      15.2149      13.1765      28.7324    5760.2466 
   66500       66.487    222.52864    9.2907993   -639.94957   -630.65877    20344.166    42409.127    48344.512   -29721.142      15.2149      13.1765      28.7324    5760.2466 
   67000       66.987     244.2199    10.196431   -640.84514   -630.64871     21554.47    44726.997    48345.348   -28408.935      15.2149      13.1765      28.7324    5760.2466 
   67500       67.487    222.73026    9.2992171   -639.93699   -630.63777    21127.063    44775.796    47715.496   -29110.105      15.2149      13.1765      28.7324    5760.2466 
   68000       67.987    228.19995    9.5275824    -640.1543   -630.62672    21927.917    39901.252    49981.827   -24099.327      15.2149      13.1765      28.7324    5760.2466 
   68500       68.487     244.6442    10.214146   -640.83163   -630.61748    19849.993    41510.881    51177.181   -33138.082      15.2149      13.1765      28.7324    5760.2466 
   69000       68.987    230.42882      9.62064    -640.2267   -630.60606    20306.972    40703.251    49156.093   -28938.427      15.2149      13.1765      28.7324    5760.2466 
   69500       69.487    219.83604    9.1783804   -639.77273   -630.59435    21391.833    37808.034    51839.342   -25471.877      15.2149      13.1765      28.7324    5760.2466 
   70000       69.987    224.65682    9.3796528   -639.96417   -630.58452    20119.042    41617.457    50567.304   -31827.636      15.2149      13.1765      28.7324    5760.2466 
   70500       70.487      238.136    9.9424225   -640.51705   -630.57463    21569.806    40952.517      52687.8   -28930.899      15.2149      13.1765      28.7324    5760.2466 
   71000       70.987    221.79899    9.2603355   -639.82337   -630.56304    20423.938    41028.742    47950.713   -27707.642      15.2149      13.1765      28.7324    5760.2466 
   71500       71.487    247.78696     10.34536   -640.89851   -630.55315    19952.548    42679.188    49602.197   -32423.741      15.2149      13.1765      28.7324    5760.2466 
   72000       71.987    230.25909    9.6135533   -640.15537   -630.54182    21598.007    38563.663    51971.028   -25740.671      15.2149      13.1765      28.7324    5760.2466 
   72500       72.487    216.26586    9.0293217   -639.56062   -630.53129    20708.945    42869.705    53230.855   -33973.724      15.2149      13.1765      28.7324    5760.2466 
   73000       72.987    226.42012    9.4532724   -639.97401   -630.52074    21580.627    41285.636      51840.5   -28384.256      15.2149      13.1765      28.7324    5760.2466 
   73500       73.487    224.50561    9.3733398   -639.88338   -630.51004    20924.698    43715.959    50983.059   -31924.925      15.2149      13.1765      28.7324    5760.2466 
   74000       73.987    225.65443    9.4213043   -639.92048   -630.49918    21263.518     43273.16    50436.138   -29918.744      15.2149      13.1765      28.7324    5760.2466 
   74500       74.487      236.545    9.8759965   -640.36468   -630.48868    22104.359    41308.716    48586.037   -23581.674      15.2149      13.1765      28.7324    5760.2466 
   75000       74.987    235.12612     9.816757   -640.29466   -630.47791    21305.079    39023.038    50719.967   -25827.769      15.2149      13.1765      28.7324    5760.2466 
   75500       75.487    227.81495     9.511508   -639.97843   -630.46692    20077.174    40913.433    50679.303   -31361.215      15.2149      13.1765      28.7324    5760.2466 
   76000       75.987    234.01439     9.770341   -640.22583   -630.45549    19353.135    38395.693     51959.17   -32295.459      15.2149      13.1765      28.7324    5760.2466 
   76500       76.487    226.76234    9.4675604   -639.91287   -630.44531    21857.625    42407.994    52377.899   -29213.017      15.2149      13.1765      28.7324    5760.2466 
   77000       76.987     227.4851    9.4977365   -639.93201   -630.43428    19510.282    39497.199    51763.702   -32730.055      15.2149      13.1765      28.7324    5760.2466 
   77500       77.487    225.52914    9.4160733   -639.83932   -630.42325     17654.84    38683.535    49144.156   -34863.172      15.2149      13.1765      28.7324    5760.2466 
   78000       77.987    239.34838    9.9930407   -640.40614    -630.4131    20620.456    39967.806    56312.381   -34418.819      15.2149      13.1765      28.7324    5760.2466 
   78500       78.487    229.14225    9.5669243   -639.96886   -630.40193    20199.331    41513.727    51906.147   -32821.881      15.2149      13.1765      28.7324    5760.2466 
   79000       78.987     225.0572    9.3963692    -639.7864   -630.39003    21985.323    40531.239    53113.384   -27688.654      15.2149      13.1765      28.7324    5760.2466 
   79500       79.487     217.0791    9.0632755   -639.44169   -630.37842    21988.953    41124.181    51452.092   -26609.413      15.2149      13.1765      28.7324    5760.2466 
   80000       79.987    240.49657    10.040979   -640.41004   -630.36906    20641.511    40751.189    51133.481   -29960.136      15.2149      13.1765      28.7324    5760.2466 
   80500       80.487    228.34988    9.5338418   -639.89112   -630.35728    21373.918    41111.507    51416.805   -28406.558      15.2149      13.1765      28.7324    5760.2466 
   81000       80.987    221.66178    9.2546068   -639.60107   -630.34647     20446.87    39068.043    49899.637    -27627.07      15.2149      13.1765      28.7324    5760.2466 
   81500       81.487     233.0564    9.7303442   -640.06585    -630.3355    21994.889    43993.848    51747.809    -29756.99      15.2149      13.1765      28.7324    5760.2466 
   82000       81.987    233.57294      9.75191    -640.0766   -630.32469    20806.274     42067.06    51470.605   -31118.843      15.2149      13.1765      28.7324    5760.2466 
   82500       82.487    223.56168    9.3339297    -639.6468   -630.31287    20709.994    43081.616    51283.381   -32235.015      15.2149      13.1765      28.7324    5760.2466 
   83000       82.987     243.6834    10.174032    -640.4763   -630.30227    20564.421    44161.666    48470.357    -30938.76      15.2149      13.1765      28.7324    5760.2466 
   83500       83.487    229.93576    9.6000539   -639.89053   -630.29047    20290.793    39897.692    48937.278   -27962.591      15.2149      13.1765      28.7324    5760.2466 
   84000       83.987    230.83759    9.6377066   -639.91622   -630.27852    20003.909    39704.652    51670.234   -31363.159      15.2149      13.1765      28.7324    5760.2466 
   84500       84.487    238.30165    9.9493385   -640.21599   -630.26665    20513.023     43020.37    51864.452   -33345.751      15.2149      13.1765      28.7324    5760.2466 
   85000       84.987    234.83003     9.804395   -640.05904   -630.25464     20901.29    38909.648    49907.681   -26113.459      15.2149      13.1765      28.7324    5760.2466 
   85500       85.487    236.61354    9.8788584   -640.12308   -630.24422    20591.166     43728.24    50519.601   -32474.342      15.2149      13.1765      28.7324    5760.2466 
   86000       85.987    227.20644     9.486102    -639.7174    -630.2313    20415.042        44130    48617.286   -31502.161      15.2149      13.1765      28.7324    5760.2466 
   86500       86.487    224.25225    9.3627616   -639.58311   -630.22034    22926.058    44883.257    52758.327    -28863.41      15.2149      13.1765      28.7324    5760.2466 
   87000       86.987    231.81257    9.6784129   -639.88715   -630.20874    20886.592    42585.488    50062.363   -29988.075      15.2149      13.1765      28.7324    5760.2466 
   87500       87.487    243.72171    10.175632   -640.37255   -630.19692     21671.98    40324.886    52322.717   -27631.662      15.2149      13.1765      28.7324    5760.2466 
   88000       87.987    231.53009    9.6666192   -639.85115   -630.18453    20261.694    39143.444    50762.992   -29121.353      15.2149      13.1765      28.7324    5760.2466 
   88500       88.487    232.96624    9.7265798   -639.89907   -630.17249    20238.647    42415.952    50621.727   -32321.738      15.2149      13.1765      28.7324    5760.2466 
   89000       88.987    234.05144    9.7718878    -639.9329   -630.16102    20555.843    41372.599    52709.849    -32414.92      15.2149      13.1765      28.7324    5760.2466 
   89500       89.487    245.23221    10.238697   -640.38827   -630.14957      21569.5    39141.989    54545.191   -28978.679      15.2149      13.1765      28.7324    5760.2466 
   90000       89.987    241.93115    10.100874   -640.23761   -630.13673    19560.638    38305.016    52882.294   -32505.396      15.2149      13.1765      28.7324    5760.2466 
   90500       90.487    232.09177    9.6900697   -639.81429   -630.12423    21745.833    39854.145    54397.109   -29013.755      15.2149      13.1765      28.7324    5760.2466 
   91000       90.987     228.4005    9.5359552   -639.64754   -630.11159     20042.91    39693.461      49770.1    -29334.83      15.2149      13.1765      28.7324    5760.2466 
   91500       91.487    237.19737    9.9032337   -640.00302   -630.09979    20192.009    38026.535     47346.22   -24796.728      15.2149      13.1765      28.7324    5760.2466 
   92000       91.987    245.77645    10.261419   -640.34884   -630.08742    19893.817     38978.09    51470.104   -30766.744      15.2149      13.1765      28.7324    5760.2466 
   92500       92.487    244.13064    10.192705   -640.26764   -630.07494    20868.232    39685.707    50464.514   -27545.525      15.2149      13.1765      28.7324    5760.2466 
   93000       92.987    240.35303    10.034986   -640.09757   -630.06258    20376.924    39699.822    53562.156   -32131.205      15.2149      13.1765      28.7324    5760.2466 
   93500       93.487    232.61629    9.7119691   -639.76203   -630.05006    19365.443    40308.503    52279.626   -34491.799      15.2149      13.1765      28.7324    5760.2466 
   94000       93.987    246.25911    10.281571   -640.31945   -630.03788     20587.04    36768.567    51351.222    -26358.67      15.2149      13.1765      28.7324    5760.2466 
   94500       94.487    228.62835    9.5454684    -639.5695   -630.02403    18509.106    41619.469     51510.89   -37603.041      15.2149      13.1765      28.7324    5760.2466 
   95000       94.987    245.53434    10.251311   -640.26358   -630.01227     19788.02    41567.076    48377.073   -30580.089      15.2149      13.1765      28.7324    5760.2466 
   95500       95.487    245.94313    10.268378   -640.26781   -629.99943    19627.552    41121.807     49374.92   -31614.072      15.2149      13.1765      28.7324    5760.2466 
   96000       95.987    238.81126    9.9706151   -639.95681    -629.9862    21631.166    38981.767    55288.785   -29377.053      15.2149      13.1765      28.7324    5760.2466 
   96500       96.487    241.91874    10.100356   -640.07458   -629.97423    20061.558    41441.087    49793.261   -31049.673      15.2149      13.1765      28.7324    5760.2466 
   97000       96.987    251.44033    10.497892   -640.45946   -629.96157    20793.835    38999.415    50384.879   -27002.789      15.2149      13.1765      28.7324    5760.2466 
   97500       97.487    233.05063     9.730103   -639.67727   -629.94716    19468.132    43782.793    49424.205   -34802.602      15.2149      13.1765      28.7324    5760.2466 
   98000       97.987    243.74501    10.176604   -640.11152   -629.93492    22094.348    45567.909    50779.986   -30064.852      15.2149      13.1765      28.7324    5760.2466 
   98500       98.487    236.49946    9.8740951   -639.79548   -629.92139    20419.795    41311.189    48699.804   -28751.607      15.2149      13.1765      28.7324    5760.2466 
   99000       98.987    243.67987    10.173885   -640.08247   -629.90858     22433.59    42769.068    53224.825   -28693.121      15.2149      13.1765      28.7324    5760.2466 
   99500       99.487    231.79566    9.6777068   -639.57365   -629.89595    21656.494     45987.54     52048.06   -33066.117      15.2149      13.1765      28.7324    5760.2466 
  100000       99.987    224.95254    9.3919996   -639.27366   -629.88166    21435.315     43333.86    55299.628   -34327.542      15.2149      13.1765      28.7324    5760.2466 
  100500      100.487    231.55922    9.6678354   -639.53674   -629.86891    20195.452        40939    49742.422   -30095.065      15.2149      13.1765      28.7324    5760.2466 
  101000      100.987    242.84421    10.138995   -639.99493   -629.85594    21178.801    38734.485    49288.567   -24486.649      15.2149      13.1765      28.7324    5760.2466 
  101500      101.487    247.08107    10.315889   -640.15861   -629.84272    21882.289    39332.594    52134.083   -25819.809      15.2149      13.1765      28.7324    5760.2466 
  102000      101.987    240.71536    10.050114   -639.87892   -629.82881    20208.565    42150.714    46802.969   -28327.988      15.2149      13.1765      28.7324    5760.2466 
  102500      102.487     238.7673    9.9687801   -639.78354   -629.81476    21375.086    41223.901    52040.354   -29138.998      15.2149      13.1765      28.7324    5760.2466 
  103000      102.987    237.42357     9.912678    -639.7138   -629.80112    21223.751    40592.096    51187.984   -28108.825      15.2149      13.1765      28.7324    5760.2466 
  103500      103.487    238.84491    9.9720201   -639.75982    -629.7878    19926.085    40272.436    49286.708   -29780.889      15.2149      13.1765      28.7324    5760.2466 
  104000      103.987    253.78408    10.595746   -640.37059   -629.77484    20685.738    42347.163    48465.687   -28755.636      15.2149      13.1765      28.7324    5760.2466 
  104500      104.487    237.36635     9.910289     -639.671   -629.76071    20199.057    42557.245    47884.428   -29844.502      15.2149      13.1765      28.7324    5760.2466 
  105000      104.987    259.47606    10.833392   -640.58061   -629.74721    21613.914     43484.22    52034.097   -30676.576      15.2149      13.1765      28.7324    5760.2466 
  105500      105.487    242.44668    10.122398   -639.85503   -629.73263    19973.621    40206.761    48438.537   -28724.435      15.2149      13.1765      28.7324    5760.2466 
  106000      105.987    238.45196    9.9556142   -639.67352    -629.7179    20479.249    45022.862    48313.947   -31899.063      15.2149      13.1765      28.7324    5760.2466 
  106500      106.487    239.99178    10.019903   -639.72482   -629.70492    19955.369     42219.18    48043.414   -30396.487      15.2149      13.1765      28.7324    5760.2466 
  107000      106.987    242.40618    10.120707   -639.81149   -629.69079    19875.689    42800.483    51146.076   -34319.492      15.2149      13.1765      28.7324    5760.2466 
  107500      107.487     237.8107     9.928841   -639.60584     -629.677    20683.593    43904.645    50759.579   -32613.447      15.2149      13.1765      28.7324    5760.2466 
  108000      107.987    244.10467    10.191621   -639.85463     -629.663    21429.145    40694.949    51686.213   -28093.726      15.2149      13.1765      28.7324    5760.2466 
  108500      108.487    240.08114    10.023634   -639.67265   -629.64901    20630.079     37908.05    50676.917   -26694.729      15.2149      13.1765      28.7324    5760.2466 
  109000      108.987    230.16831    9.6097631   -639.24308   -629.63331    21718.041    40999.286    49940.362   -25785.526      15.2149      13.1765      28.7324    5760.2466 
  109500      109.487     248.1986    10.362546   -639.98364   -629.62109    20577.513    42939.907    49984.223    -31191.59      15.2149      13.1765      28.7324    5760.2466 
  110000      109.987     253.9075    10.600899   -640.20821   -629.60731    19846.727    40491.634    49354.485   -30305.939      15.2149      13.1765      28.7324    5760.2466 
  110500      110.487    247.59104     10.33718   -639.92959   -629.59241    21110.554    40104.091     51928.75   -28701.179      15.2149      13.1765      28.7324    5760.2466 
  111000      110.987    236.85627    9.8889923   -639.46662   -629.57763    22079.266    44106.095    50611.629   -28479.927      15.2149      13.1765      28.7324    5760.2466 
  111500      111.487    246.82523    10.305207   -639.86871   -629.56351    19910.857    40174.135    51679.032   -32120.597      15.2149      13.1765      28.7324    5760.2466 
  112000      111.987    251.87466    10.516026   -640.06528   -629.54925    20948.957    42055.104    50664.995   -29873.227      15.2149      13.1765      28.7324    5760.2466 
  112500      112.487    241.74156    10.092959   -639.62726    -629.5343    20132.788    43546.729    48619.344   -31767.708      15.2149      13.1765      28.7324    5760.2466 
  113000      112.987    228.62854    9.5454761   -639.06553   -629.52006      20853.5    44305.316    47650.093   -29394.909      15.2149      13.1765      28.7324    5760.2466 
  113500      113.487    242.58385    10.128125   -639.63375   -629.50562     21841.61    46755.798    49333.395   -30564.362      15.2149      13.1765      28.7324    5760.2466 
  114000      113.987    243.07026    10.148433    -639.6397   -629.49127    20946.022    44642.659    46791.201   -28595.795      15.2149      13.1765      28.7324    5760.2466 
  114500      114.487    247.88876     10.34961   -639.82614   -629.47653    20205.382    40470.337     49951.14   -29805.331      15.2149      13.1765      28.7324    5760.2466 
  115000      114.987    247.94356    10.351898   -639.81395   -629.46206    22079.411    41808.111    51930.977   -27500.854      15.2149      13.1765      28.7324    5760.2466 
  115500      115.487    242.14676    10.109876   -639.55786   -629.44799    20054.978    44736.602    49214.117   -33785.785      15.2149      13.1765      28.7324    5760.2466 
  116000      115.987    254.83818    10.639756   -640.07353   -629.43378    19832.447    39580.435    52274.199   -32357.294      15.2149      13.1765      28.7324    5760.2466 
  116500      116.487    245.74173    10.259969   -639.67768   -629.41771    21170.017    44138.874     47545.36   -28174.184      15.2149      13.1765      28.7324    5760.2466 
  117000      116.987    230.98381    9.6438113   -639.04651   -629.40269     21640.07    43129.471    51000.559   -29209.818      15.2149      13.1765      28.7324    5760.2466 
  117500      117.487     240.3756    10.035928    -639.4245   -629.38857    21614.484    45861.712    48356.603   -29374.862      15.2149      13.1765      28.7324    5760.2466 
  118000      117.987    250.01046    10.438193   -639.81195   -629.37375    22402.598    39143.025    54022.155   -25957.385      15.2149      13.1765      28.7324    5760.2466 
  118500      118.487    240.82924    10.054868    -639.4125   -629.35763    20584.807    38801.507    52803.229   -29850.315      15.2149      13.1765      28.7324    5760.2466 
  119000      118.987    246.38913    10.286999   -639.63061   -629.34361    20669.141    41002.166    51279.739   -30274.482      15.2149      13.1765      28.7324    5760.2466 
  119500      119.487    244.81727    10.221373   -639.54959   -629.32822    21181.141    45425.403    52870.963   -34752.944      15.2149      13.1765      28.7324    5760.2466 
  120000      119.987    248.86928    10.390548   -639.70538   -629.31483    20699.038     44282.25    50169.754   -32354.891      15.2149      13.1765      28.7324    5760.2466 
  120500      120.487     229.8263     9.595484   -638.89384   -629.29835    22287.378    41855.407    52457.034   -27450.307      15.2149      13.1765      28.7324    5760.2466 
  121000      120.987    245.44498     10.24758   -639.53195   -629.28437    21366.963    43078.593     47849.87   -26827.575      15.2149      13.1765      28.7324    5760.2466 
  121500      121.487    258.72672    10.802106   -640.07009   -629.26799    21114.198    38978.851    51254.666   -26890.922      15.2149      13.1765      28.7324    5760.2466 
  122000      121.987    243.38778     10.16169   -639.41413   -629.25244    21549.403    38368.859    54798.765   -28519.416      15.2149      13.1765      28.7324    5760.2466 
  122500      122.487    241.16816    10.069019   -639.30659   -629.23757    20253.388    38869.959    53315.154    -31424.95      15.2149      13.1765      28.7324    5760.2466 
  123000      122.987    237.97196    9.9355738   -639.15807   -629.22249     21237.13    41603.664     50843.68   -28735.952      15.2149      13.1765      28.7324    5760.2466 
  123500      123.487    256.95924    10.728312   -639.93591    -629.2076    21286.194    41879.575    52527.796   -30548.788      15.2149      13.1765      28.7324    5760.2466 
  124000      123.987    253.70195    10.592317   -639.78456   -629.19224    20882.049    41573.303    47884.991   -26812.146      15.2149      13.1765      28.7324    5760.2466 
  124500      124.487     247.2674    10.323668    -639.5005   -629.17683    21017.299    40627.297    50570.123   -28145.524      15.2149      13.1765      28.7324    5760.2466 
  125000      124.987    244.04668    10.189199    -639.3505    -629.1613    20060.398     40558.21    53246.437   -33623.453      15.2149      13.1765      28.7324    5760.2466 
  125500      125.487    264.47581    11.042137    -640.1879   -629.14577    21580.869    40442.841    52864.215   -28564.449      15.2149      13.1765      28.7324    5760.2466 
  126000      125.987    239.52184    10.000283   -639.13034   -629.13006    19561.003    40141.102    52060.026   -33518.119      15.2149      13.1765      28.7324    5760.2466 
  126500      126.487    253.39961    10.579694   -639.69507   -629.11538    20997.292    41488.602    54155.226   -32651.954      15.2149      13.1765      28.7324    5760.2466 
  127000      126.987    254.10142    10.608995   -639.70945   -629.10046    20063.336    42065.216    49829.108   -31704.316      15.2149      13.1765      28.7324    5760.2466 
  127500      127.487    270.34699    11.287265   -640.37209   -629.08482    22578.677    40662.275    54325.526    -27251.77      15.2149      13.1765      28.7324    5760.2466 
  128000      127.987    248.23543    10.364084   -639.43241   -629.06832    20421.816    39841.986    51749.438   -30325.976      15.2149      13.1765      28.7324    5760.2466 
  128500      128.487    257.67859    10.758346    -639.8126   -629.05425     20935.94    41921.475    51085.823   -30199.479      15.2149      13.1765      28.7324    5760.2466 
  129000      128.987    241.90465    10.099767   -639.13755   -629.03778    20975.683    43158.701    50090.285   -30321.938      15.2149      13.1765      28.7324    5760.2466 
  129500      129.487    244.63775    10.213877   -639.23688     -629.023    21275.124    42544.463     48803.09   -27522.181      15.2149      13.1765      28.7324    5760.2466 
  130000      129.987    244.82328    10.221623   -639.22937   -629.00775    18991.061    40210.579    53923.246   -37160.641      15.2149      13.1765      28.7324    5760.2466 
  130500      130.487    243.88043    10.182258   -639.17394   -628.99168    20141.833    39494.703    55771.368   -34840.571      15.2149      13.1765      28.7324    5760.2466 
  131000      130.987    258.20713    10.780413   -639.75755   -628.97714    21167.419    41556.181    52320.161   -30374.084      15.2149      13.1765      28.7324    5760.2466 
  131500      131.487    240.93892    10.059447   -639.01964   -628.96019    21031.065    40224.316    49779.732   -26910.852      15.2149      13.1765      28.7324    5760.2466 
  132000      131.987    243.25656    10.156211   -639.10126   -628.94504    20584.547    36901.519    49541.269   -24689.148      15.2149      13.1765      28.7324    5760.2466 
  132500      132.487    257.11662    10.734883    -639.6648   -628.92992    20540.125    38514.233     50390.29   -27284.148      15.2149      13.1765      28.7324    5760.2466 
  133000      132.987    250.99155    10.479155   -639.39324   -628.91409     20798.28    37803.041    50329.134   -25737.335      15.2149      13.1765      28.7324    5760.2466 
  133500      133.487    256.41417    10.705555   -639.60383   -628.89827    21043.519    39516.382    50593.151   -26978.977      15.2149      13.1765      28.7324    5760.2466 
  134000      133.987    256.72624    10.718584    -639.6014   -628.88281    20865.729    42411.314    45909.852   -25723.981      15.2149      13.1765      28.7324    5760.2466 
  134500      134.487    240.01535    10.020887    -638.8878   -628.86692     21009.11    40424.993    50450.197   -27847.861      15.2149      13.1765      28.7324    5760.2466 
  135000      134.987    261.36806    10.912385   -639.76515   -628.85277     21867.04    42560.196    52516.271   -29475.346      15.2149      13.1765      28.7324    5760.2466 
  135500      135.487    242.49573    10.124446   -638.96006   -628.83561    19321.096    38283.728    53969.037   -34289.478      15.2149      13.1765      28.7324    5760.2466 
  136000      135.987    241.74266    10.093004   -638.91364   -628.82064    20326.585    40863.934    50363.237   -30247.418      15.2149      13.1765      28.7324    5760.2466 
  136500      136.487    248.41489    10.371577   -639.17647   -628.80489    19795.908    39809.184    48149.089   -28570.547      15.2149      13.1765      28.7324    5760.2466 
  137000      136.987    252.92731    10.559975   -639.35008    -628.7901    22141.904    40903.882    51681.189   -26159.358      15.2149      13.1765      28.7324    5760.2466 
  137500      137.487    252.03354    10.522659   -639.29617   -628.77351    20620.554    40341.401    47307.697   -25787.437      15.2149      13.1765      28.7324    5760.2466 
  138000      137.987      249.164    10.402853   -639.16075   -628.75789    21019.504    40969.517    50722.916   -28633.922      15.2149      13.1765      28.7324    5760.2466 
  138500      138.487    259.69192    10.842404   -639.58537   -628.74297      20959.4    40630.654    52557.558   -30310.012      15.2149      13.1765      28.7324    5760.2466 
  139000      138.987     247.3297    10.326269   -639.05236   -628.72609    21288.921    41616.921    50392.936   -28143.094      15.2149      13.1765      28.7324    5760.2466 
  139500      139.487    255.75125    10.677877   -639.38867   -628.71079     20892.26    39076.942    47371.145   -23771.306      15.2149      13.1765      28.7324    5760.2466 
  140000      139.987    254.45109    10.623594   -639.31856   -628.69497    21162.615    42272.382    47834.418   -26618.954      15.2149      13.1765      28.7324    5760.2466 
  140500      140.487    246.11446    10.275531    -638.9539   -628.67837    21143.885    42341.557    50089.954   -28999.857      15.2149      13.1765      28.7324    5760.2466 
  141000      140.987    237.47201    9.9147002   -638.57723   -628.66253    19802.489    41271.901    54046.196   -35910.631      15.2149      13.1765      28.7324    5760.2466 
  141500      141.487     258.8165    10.805855   -639.45431   -628.64845    23250.214    40624.244    52590.635   -23464.236      15.2149      13.1765      28.7324    5760.2466 
  142000      141.987     252.4574    10.540356   -639.17142   -628.63106    21272.228    39328.498    48647.697    -24159.51      15.2149      13.1765      28.7324    5760.2466 
  142500      142.487    265.58234    11.088336   -639.70481   -628.61648    21414.917     42535.14    48168.794   -26459.184      15.2149      13.1765      28.7324    5760.2466 
  143000      142.987    254.99746    10.646406   -639.24647   -628.60006     20839.76    43247.376    49787.327   -30515.423      15.2149      13.1765      28.7324    5760.2466 
  143500      143.487    249.17301    10.403229   -638.98762   -628.58439    20735.189    41972.069    51244.166   -31010.669      15.2149      13.1765      28.7324    5760.2466 
  144000      143.987    256.78826    10.721173   -639.28953   -628.56836     20193.58    41921.458    51686.594   -33027.314      15.2149      13.1765      28.7324    5760.2466 
  144500      144.487    256.25862    10.699061   -639.25132   -628.55226    21051.651    41869.345    49636.109     -28350.5      15.2149      13.1765      28.7324    5760.2466 
  145000      144.987    259.47227    10.833234   -639.36908   -628.53585    20909.364    40342.601    51507.144   -29121.652      15.2149      13.1765      28.7324    5760.2466 
  145500      145.487    243.59227    10.170227   -638.69092   -628.52069    22159.135    38873.993    51827.951   -24224.538      15.2149      13.1765      28.7324    5760.2466 
  146000      145.987    251.00711    10.479805   -638.98359   -628.50378    20584.426    38182.387    49731.186   -26160.295      15.2149      13.1765      28.7324    5760.2466 
  146500      146.487    259.93927    10.852732   -639.34106   -628.48833    19710.696      41781.9    48543.982   -31193.794      15.2149      13.1765      28.7324    5760.2466 
  147000      146.987    271.07327    11.317587   -639.79097   -628.47339    19589.186    40596.877    52494.096   -34323.415      15.2149      13.1765      28.7324    5760.2466 
  147500      147.487    244.68307    10.215769   -638.67088   -628.45511    21817.986    41231.773    48539.519   -24317.335      15.2149      13.1765      28.7324    5760.2466 
  148000      147.987     268.0256    11.190344   -639.63019   -628.43985    21162.782    41155.407    50827.413   -28494.476      15.2149      13.1765      28.7324    5760.2466 
  148500      148.487    257.18126    10.737582   -639.16152   -628.42394    20541.453    43653.442    50309.084   -32338.166      15.2149      13.1765      28.7324    5760.2466 
  149000      148.987    259.80829    10.847263    -639.2549   -628.40763    19235.856    43190.384    49912.733   -35395.549      15.2149      13.1765      28.7324    5760.2466 
  149500      149.487    241.93843    10.101178     -638.492   -628.39082    20443.916    44155.571    49513.005   -32336.827      15.2149      13.1765      28.7324    5760.2466 
  150000      149.987     245.4993    10.249848   -638.62418   -628.37433    19745.122    38114.113    51064.845   -29943.592      15.2149      13.1765      28.7324    5760.2466 
  150500      150.487    256.75792    10.719907   -639.07913   -628.35922    22030.959    42599.361    51133.436    -27639.92      15.2149      13.1765      28.7324    5760.2466 
  151000      150.987    257.94116    10.769308    -639.1118   -628.34249    19304.188    39730.916    44836.515   -26654.867      15.2149      13.1765      28.7324    5760.2466 
  151500      151.487    263.54201     11.00315   -639.32994   -628.32679    22091.879    44630.271    52761.525    -31116.16      15.2149      13.1765      28.7324    5760.2466 
  152000      151.987    254.32436    10.618303   -638.92881   -628.31051    22837.895    43634.004    50403.227   -25523.548      15.2149      13.1765      28.7324    5760.2466 
  152500      152.487    252.48991    10.541713   -638.83624   -628.29452    24155.894    47217.307    53453.387   -28203.013      15.2149      13.1765      28.7324    5760.2466 
  153000      152.987    254.82802    10.639332   -638.91674   -628.27741    20269.991    43325.073    50504.582   -33019.681      15.2149      13.1765      28.7324    5760.2466 
  153500      153.487    254.00868    10.605123    -638.8658   -628.26067    21418.541    41123.525    48967.935   -25835.838      15.2149      13.1765      28.7324    5760.2466 
  154000      153.987    257.34997    10.744626   -638.98982    -628.2452    21098.226    42623.005    49034.779   -28363.107      15.2149      13.1765      28.7324    5760.2466 
  154500      154.487    260.96932    10.895737    -639.1248   -628.22906    22096.756     41386.07    52377.325   -27473.127      15.2149      13.1765      28.7324    5760.2466 
  155000      154.987    268.37242    11.204824   -639.41778   -628.21296    22377.644    43769.738    50751.062    -27387.87      15.2149      13.1765      28.7324    5760.2466 
  155500      155.487    246.91992     10.30916   -638.50456    -628.1954    21652.625    44825.445    49140.829   -29008.399      15.2149      13.1765      28.7324    5760.2466 
  156000      155.987    266.13558    11.111434   -639.29164   -628.18021    21473.832    44703.836    49710.225   -29992.565      15.2149      13.1765      28.7324    5760.2466 
  156500      156.487    251.05076    10.481627   -638.64463     -628.163    19999.494     43977.42    50385.196   -34364.135      15.2149      13.1765      28.7324    5760.2466 
  157000      156.987      252.689    10.550025   -638.69712    -628.1471     22029.45    44480.944    48911.497   -27304.092      15.2149      13.1765      28.7324    5760.2466 
  157500      157.487     272.9444    11.395709   -639.52728   -628.13157    20527.675    43216.668    45407.546   -27041.189      15.2149      13.1765      28.7324    5760.2466 
  158000      157.987    256.40532    10.705185   -638.81934   -628.11416     20267.07    43851.697    50695.045   -33745.531      15.2149      13.1765      28.7324    5760.2466 
  158500      158.487    281.14273    11.737998   -639.83743   -628.09943    20960.486    38919.264    49220.426   -25258.231      15.2149      13.1765      28.7324    5760.2466 
  159000      158.987    269.92386    11.269598    -639.3519    -628.0823    19510.563    41039.164    50685.605    -33193.08      15.2149      13.1765      28.7324    5760.2466 
  159500      159.487    253.13544    10.568664   -638.63313   -628.06447    20418.749    39285.454    50101.516   -28130.724      15.2149      13.1765      28.7324    5760.2466 
  160000      159.987    263.75001    11.011834   -639.06063    -628.0488    22097.779    42748.795    46438.254   -22893.711      15.2149      13.1765      28.7324    5760.2466 
  160500      160.487    254.47378    10.624542   -638.65651   -628.03197    21468.991    45258.854    50817.534   -31669.415      15.2149      13.1765      28.7324    5760.2466 
  161000      160.987    255.86687    10.682705   -638.70043   -628.01772    23294.975    38362.641      55170.2   -23647.916      15.2149      13.1765      28.7324    5760.2466 
  161500      161.487    264.39951    11.038951   -639.03912   -628.00017    23306.571    41910.909    53860.677   -25851.874      15.2149      13.1765      28.7324    5760.2466 
  162000      161.987      270.343    11.287098   -639.27085   -627.98375    20652.579     39534.92    52741.843   -30319.026      15.2149      13.1765      28.7324    5760.2466 
  162500      162.487    262.60535    10.964043   -638.93064    -627.9666    20714.572     40145.41    51976.921   -29978.616      15.2149      13.1765      28.7324    5760.2466 
  163000      162.987    258.89034    10.808938   -638.75912   -627.95018    19444.877    40181.208    52670.399   -34516.975      15.2149      13.1765      28.7324    5760.2466 
  163500      163.487    250.10833     10.44228   -638.37467   -627.93239    20487.953    40807.905    50118.868   -29462.915      15.2149      13.1765      28.7324    5760.2466 
  164000      163.987    250.11836    10.442699      -638.36    -627.9173    21910.115    40588.563    51517.942   -26376.159      15.2149      13.1765      28.7324    5760.2466 
  164500      164.487    261.44015    10.915395   -638.81597   -627.90057    20425.463    40988.989    52421.559   -32134.159      15.2149      13.1765      28.7324    5760.2466 
  165000      164.987    272.59702    11.381205   -639.26554   -627.88433    20850.078    41151.894    51792.739   -30394.401      15.2149      13.1765      28.7324    5760.2466 
  165500      165.487    266.91344     11.14391    -639.0108   -627.86689     21037.05    39575.383    49954.323   -26418.557      15.2149      13.1765      28.7324    5760.2466 
  166000      165.987    267.93869    11.186715   -639.03725   -627.85053    21502.647    40421.376    54202.655   -30116.089      15.2149      13.1765      28.7324    5760.2466 
  166500      166.487    259.29897    10.825998   -638.65938   -627.83339    20159.709    42913.534    50635.432   -33069.838      15.2149      13.1765      28.7324    5760.2466 
  167000      166.987    259.43069    10.831498   -638.64803   -627.81653    21559.609    39042.365    56307.553   -30671.092      15.2149      13.1765      28.7324    5760.2466 
  167500      167.487    264.96781    11.062678   -638.86276   -627.80008    19596.545    42293.777    46949.157     -30453.3      15.2149      13.1765      28.7324    5760.2466 
  168000      167.987    251.30922    10.492418   -638.27457   -627.78216    20811.486    40595.931    54801.916   -32963.389      15.2149      13.1765      28.7324    5760.2466 
  168500      168.487    266.55484    11.128938   -638.89517   -627.76623    21619.897    39189.187    51341.533   -25671.029      15.2149      13.1765      28.7324    5760.2466 
  169000      168.987    261.49231    10.917572   -638.66634   -627.74876    20316.072     39754.64     51721.06   -30527.485      15.2149      13.1765      28.7324    5760.2466 
  169500      169.487    256.34878    10.702825   -638.43499   -627.73216    21474.571    45385.939    51981.162   -32943.388      15.2149      13.1765      28.7324    5760.2466 
  170000      169.987    271.38116    11.330442   -639.04639   -627.71595    21163.113    43908.388    54951.321   -35370.369      15.2149      13.1765      28.7324    5760.2466 
  170500      170.487     270.7835    11.305489   -639.00479    -627.6993    20335.141    39559.013    49540.271   -28093.861      15.2149      13.1765      28.7324    5760.2466 
  171000      170.987    255.65686    10.673937    -638.3566   -627.68267    20504.863    42062.543    49172.161   -29720.114      15.2149      13.1765      28.7324    5760.2466 
  171500      171.487    262.69013    10.967583   -638.63335   -627.66577    20651.592    42806.504    49264.021   -30115.749      15.2149      13.1765      28.7324    5760.2466 
  172000      171.987    254.39427    10.621222   -638.27001   -627.64879    22420.661    40388.637    52068.135    -25194.79      15.2149      13.1765      28.7324    5760.2466 
  172500      172.487    267.40129    11.164278   -638.79684   -627.63257    20911.037    45344.896    51256.479   -33868.263      15.2149      13.1765      28.7324    5760.2466 
  173000      172.987    271.25436    11.325148   -638.93997   -627.61482    19394.195    39220.445    50649.217   -31687.075      15.2149      13.1765      28.7324    5760.2466 
  173500      173.487     267.4923    11.168078   -638.76632   -627.59824    21486.173    38589.472    54373.099   -28504.051      15.2149      13.1765      28.7324    5760.2466 
  174000      173.987     263.0807     10.98389   -638.56498   -627.58109     20007.28     40880.77    50772.131   -31631.059      15.2149      13.1765      28.7324    5760.2466 
  174500      174.487    259.28497    10.825414   -638.38882   -627.56341      22244.2     45591.91    49389.139   -28248.448      15.2149      13.1765      28.7324    5760.2466 
  175000      174.987    267.75203    11.178922    -638.7257   -627.54678    21843.966    41591.005    52702.647   -28761.754      15.2149      13.1765      28.7324    5760.2466 
  175500      175.487    268.50491    11.210356   -638.74035   -627.52999    19962.593    38233.374    49402.901   -27748.496      15.2149      13.1765      28.7324    5760.2466 
  176000      175.987    266.61538    11.131466   -638.64415   -627.51268    20758.531    40927.303    49609.274   -28260.985      15.2149      13.1765      28.7324    5760.2466 
  176500      176.487    279.99463    11.690063   -639.18645   -627.49638    21824.506    43737.555    52685.395   -30949.431      15.2149      13.1765      28.7324    5760.2466 
  177000      176.987    263.38788    10.996714    -638.4755   -627.47878    20656.352    42246.265    52198.674   -32475.883      15.2149      13.1765      28.7324    5760.2466 
  177500      177.487    266.96087     11.14589   -638.60749    -627.4616    22546.315    40290.075    56702.035   -29353.166      15.2149      13.1765      28.7324    5760.2466 
  178000      177.987    278.52072    11.628526   -639.07366   -627.44514    21299.783    41054.878    53633.407   -30788.935      15.2149      13.1765      28.7324    5760.2466 
  178500      178.487    268.70366    11.218654   -638.64711   -627.42846    19795.805    40413.312    47583.315   -28609.213      15.2149      13.1765      28.7324    5760.2466 
  179000      178.987    280.22757    11.699789   -639.11163   -627.41184    21176.596    44582.311      50324.8   -31377.323      15.2149      13.1765      28.7324    5760.2466 
  179500      179.487    260.40954    10.872366   -638.26651   -627.39414    20993.899    39505.636     49007.54   -25531.478      15.2149      13.1765      28.7324    5760.2466 
  180000      179.987    260.54983    10.878223   -638.25499   -627.37677    21694.652    41564.573     50880.41   -27361.026      15.2149      13.1765      28.7324    5760.2466 
  180500      180.487    263.52117    11.002279    -638.3624   -627.36012    21333.485    42467.093    51513.918   -29980.555      15.2149      13.1765      28.7324    5760.2466 
  181000      180.987     268.7985    11.222613   -638.56545   -627.34284    21718.957    43133.777    53712.308   -31689.213      15.2149      13.1765      28.7324    5760.2466 
  181500      181.487    263.55235    11.003581   -638.32912   -627.32554        21473    41624.221    50787.869   -27993.089      15.2149      13.1765      28.7324    5760.2466 
  182000      181.987    262.01156    10.939252   -638.24846   -627.30921    20626.578    42021.252    51720.015   -31861.533      15.2149      13.1765      28.7324    5760.2466 
  182500      182.487    260.87358     10.89174     -638.183   -627.29126    21015.268    42820.209    52313.627    -32088.03      15.2149      13.1765      28.7324    5760.2466 
  183000      182.987    264.23081    11.031907   -638.30618   -627.27427    21228.492    43572.596    50739.386   -30626.506      15.2149      13.1765      28.7324    5760.2466 
  183500      183.487    260.54082    10.877847   -638.13471   -627.25687    21575.885    43275.768    53629.343   -32177.457      15.2149      13.1765      28.7324    5760.2466 
  184000      183.987     265.5172    11.085616   -638.32645   -627.24084    20697.673    41149.508     47009.78   -26066.268      15.2149      13.1765      28.7324    5760.2466 
  184500      184.487    269.22508    11.240423   -638.46327   -627.22284    20445.914    41461.664    47538.866    -27662.79      15.2149      13.1765      28.7324    5760.2466 
  185000      184.987    265.17821    11.071463   -638.27635   -627.20488    21631.809    40989.884    52965.773    -29060.23      15.2149      13.1765      28.7324    5760.2466 
  185500      185.487    266.99595    11.147355   -638.33605    -627.1887     20918.52    42624.863    52991.243   -32860.547      15.2149      13.1765      28.7324    5760.2466 
  186000      185.987    269.00489     11.23123   -638.40328   -627.17205    20702.696    44034.004    53434.367   -35360.284      15.2149      13.1765      28.7324    5760.2466 
  186500      186.487      274.762    11.471596    -638.6263   -627.15471    21024.368    42025.772    51711.422   -30664.089      15.2149      13.1765      28.7324    5760.2466 
  187000      186.987    281.95893    11.772075   -638.90888   -627.13681    20531.534    43487.324    50310.271   -32202.992      15.2149      13.1765      28.7324    5760.2466 
  187500      187.487    272.57035    11.380092   -638.49927   -627.11918    19933.182    40312.532    46691.368   -27204.354      15.2149      13.1765      28.7324    5760.2466 
  188000      187.987    267.90037    11.185115   -638.28677   -627.10166    20409.485    38508.102    53466.517   -30746.165      15.2149      13.1765      28.7324    5760.2466 
  188500      188.487    280.15778    11.696875    -638.7823   -627.08542    19455.722    44029.836    52268.201   -37930.871      15.2149      13.1765      28.7324    5760.2466 
  189000      188.987    294.75989    12.306528   -639.37506   -627.06853    20609.004    40368.391    51112.449   -29653.827      15.2149      13.1765      28.7324    5760.2466 
  189500      189.487    261.82474    10.931452   -637.98134   -627.04989     22634.97    42488.366    54347.594    -28931.05      15.2149      13.1765      28.7324    5760.2466 
  190000      189.987    271.92184    11.353016   -638.38597   -627.03296    22848.893    44984.492    50689.484   -27127.296      15.2149      13.1765      28.7324    5760.2466 
  190500      190.487    275.20417    11.490057   -638.50581   -627.01575    21467.624    42842.027    52024.364    -30463.52      15.2149      13.1765      28.7324    5760.2466 
  191000      190.987    279.13478    11.654163   -638.65243   -626.99826    22161.833    42928.863    49374.785   -25818.148      15.2149      13.1765      28.7324    5760.2466 
  191500      191.487    253.57584    10.587052   -637.56685    -626.9798    21235.483    44391.121    51934.328   -32618.999      15.2149      13.1765      28.7324    5760.2466 
  192000      191.987    274.26506    11.450848   -638.41432   -626.96347    20311.528     43086.93    48490.393   -30642.739      15.2149      13.1765      28.7324    5760.2466 
  192500      192.487     271.1729    11.321747   -638.26748   -626.94574     22208.99    46240.276    46242.114    -25855.42      15.2149      13.1765      28.7324    5760.2466 
  193000      192.987    273.38401    11.414063   -638.34166    -626.9276     21600.87    47078.872    51213.637   -33489.899      15.2149      13.1765      28.7324    5760.2466 
  193500      193.487    288.03044    12.025567   -638.93673   -626.91117    20327.292    42744.625    47345.143   -29107.892      15.2149      13.1765      28.7324    5760.2466 
  194000      193.987    276.13074    11.528742   -638.42292   -626.89418    20157.521    41876.847    48308.639   -29712.924      15.2149      13.1765      28.7324    5760.2466 
  194500      194.487    271.79441    11.347696   -638.22339    -626.8757    21773.716    46369.446    47269.153   -28317.452      15.2149      13.1765      28.7324    5760.2466 
  195000      194.987    265.41188    11.081218   -637.94016   -626.85894    21858.121    43626.407    51567.135    -29619.18      15.2149      13.1765      28.7324    5760.2466 
  195500      195.487    290.36739    12.123137   -638.96514   -626.84201    22479.895    46695.371    48544.526   -27800.213      15.2149      13.1765      28.7324    5760.2466 
  196000      195.987    275.34303    11.495854   -638.31988   -626.82402    21353.008     40544.87    52529.022   -29014.869      15.2149      13.1765      28.7324    5760.2466 
  196500      196.487    268.96245    11.229458   -638.03553   -626.80607    21268.942    40724.351    50530.217   -27447.743      15.2149      13.1765      28.7324    5760.2466 
  197000      196.987    280.00259    11.690396   -638.47884   -626.78845    21771.816    42165.947    49356.016   -26206.516      15.2149      13.1765      28.7324    5760.2466 
  197500      197.487    279.71135    11.678236   -638.45046   -626.77222    22404.294    42734.583    52928.835   -28450.536      15.2149      13.1765      28.7324    5760.2466 
  198000      197.987    272.39452    11.372751   -638.12648   -626.75373    21129.769    46132.893    51537.048   -34280.635      15.2149      13.1765      28.7324    5760.2466 
  198500      198.487     280.9379    11.729446   -638.46576   -626.73631    21710.873    45091.908    51248.918   -31208.206      15.2149      13.1765      28.7324    5760.2466 
  199000      198.987    260.63453    10.881759   -637.59943   -626.71767    21870.966    45028.781    50202.985    -29618.87      15.2149      13.1765      28.7324    5760.2466 
  199500      199.487    273.65526    11.425388   -638.12689    -626.7015    21471.566     42541.44    51998.534   -30125.276      15.2149      13.1765      28.7324    5760.2466 
  200000      199.987    277.81213    11.598942   -638.28312   -626.68418    20825.575    43435.736    49080.764   -30039.775      15.2149      13.1765      28.7324    5760.2466 
  200500      200.487    264.86796    11.058509   -637.72447   -626.66596    21604.585    43433.021    50901.183   -29520.448      15.2149      13.1765      28.7324    5760.2466 
  201000      200.987    274.37468    11.455425    -638.1043   -626.64888    20882.321    42442.443    48536.137   -28331.618      15.2149      13.1765      28.7324    5760.2466 
  201500      201.487    293.90306    12.270754   -638.90236   -626.63161     21917.21    42245.655    53060.803   -29554.828      15.2149      13.1765      28.7324    5760.2466 
  202000      201.987    269.34689    11.245509   -637.85863   -626.61313    20019.889    41653.846    51161.485   -32755.664      15.2149      13.1765      28.7324    5760.2466 
  202500      202.487     276.2723    11.534652   -638.12955    -626.5949    21657.125    44294.428     50780.39   -30103.443      15.2149      13.1765      28.7324    5760.2466 
  203000      202.987    277.80859    11.598794   -638.17687   -626.57807    21106.527    44337.173    47844.029    -28861.62      15.2149      13.1765      28.7324    5760.2466 
  203500      203.487    282.95963    11.813855   -638.37435    -626.5605    20379.385    45281.748    49497.674   -33641.268      15.2149      13.1765      28.7324    5760.2466 
  204000      203.987    294.19149    12.282797     -638.826    -626.5432     21614.23    43475.876    48249.209   -26882.395      15.2149      13.1765      28.7324    5760.2466 
  204500      204.487    279.07318    11.651592   -638.17681   -626.52522    21317.492    46192.587    52979.704   -35219.816      15.2149      13.1765      28.7324    5760.2466 
  205000      204.987     280.6672    11.718144    -638.2252   -626.50705    19318.633     37642.03    45774.831   -25460.962      15.2149      13.1765      28.7324    5760.2466 
  205500      205.487    277.81301    11.598978   -638.08864   -626.48967    21398.628    43363.158    50655.389   -29822.663      15.2149      13.1765      28.7324    5760.2466 
  206000      205.987    274.49814    11.460579   -637.93217   -626.47159    21887.738    41931.737    50502.462   -26770.985      15.2149      13.1765      28.7324    5760.2466 
  206500      206.487    272.37287    11.371847   -637.82582   -626.45398    20728.352    42192.187    47339.769   -27346.898      15.2149      13.1765      28.7324    5760.2466 
  207000      206.987    276.85454    11.558961   -637.99586    -626.4369    22265.563     43501.82    51256.134   -27961.265      15.2149      13.1765      28.7324    5760.2466 
  207500      207.487    278.18062    11.614327   -638.03305   -626.41873    22935.147    43433.951    52807.526   -27436.036      15.2149      13.1765      28.7324    5760.2466 
  208000      207.987    276.02785    11.524446   -637.92476   -626.40031    22609.772    41906.454    52262.217   -26339.354      15.2149      13.1765      28.7324    5760.2466 
  208500      208.487     272.0992    11.360421   -637.74315   -626.38273    20978.823     40427.45    50137.288   -27628.269      15.2149      13.1765      28.7324    5760.2466 
  209000      208.987    280.67967    11.718664   -638.08436    -626.3657    22748.348    42207.678    54104.224   -28066.859      15.2149      13.1765      28.7324    5760.2466 
  209500      209.487    276.29711    11.535688   -637.88313   -626.34744    22578.699     45977.24     51957.96   -30199.103      15.2149      13.1765      28.7324    5760.2466 
  210000      209.987    283.70781    11.845092   -638.17392   -626.32883    20877.626     47261.92    47018.187   -31647.229      15.2149      13.1765      28.7324    5760.2466 
  210500      210.487    264.41668    11.039668   -637.35078   -626.31111    21234.783    42701.855    48253.116   -27250.622      15.2149      13.1765      28.7324    5760.2466 
  211000      210.987    283.82197    11.849859   -638.14394   -626.29408    22225.765    46207.836    48282.465   -27813.007      15.2149      13.1765      28.7324    5760.2466 
  211500      211.487    303.24347    12.660726   -638.93769   -626.27696    20744.453    43859.909    50048.177   -31674.728      15.2149      13.1765      28.7324    5760.2466 
  212000      211.987    292.08094    12.194679   -638.45371   -626.25903    20619.752    42239.169    49911.644   -30291.559      15.2149      13.1765      28.7324    5760.2466 
[...]
  948500      948.487    361.68979     15.10092   -633.74399   -618.64307    21555.523    44509.706    52835.129   -32678.266      15.2149      13.1765      28.7324    5760.2466 
  949000      948.987    374.35019    15.629505   -634.27216   -618.64265    23550.642    43524.325    53978.212   -26850.612      15.2149      13.1765      28.7324    5760.2466 
  949500      949.487    377.23552     15.74997   -634.39341   -618.64344    22708.075    44339.584    51006.269   -27221.628      15.2149      13.1765      28.7324    5760.2466 
  950000      949.987    371.95453    15.529483   -634.17198   -618.64249    21299.366    42858.316    49442.986   -28403.204      15.2149      13.1765      28.7324    5760.2466 
  950500      950.487    352.80821    14.730105   -633.37251    -618.6424    21470.558    48907.341    46893.696   -31389.364      15.2149      13.1765      28.7324    5760.2466 
  951000      950.987    360.01724    15.031089   -633.67388   -618.64279    22655.114    48542.805    45353.278   -25930.741      15.2149      13.1765      28.7324    5760.2466 
  951500      951.487    370.18983    15.455806   -634.09902   -618.64321     20630.59    49334.287     47390.28   -34832.797      15.2149      13.1765      28.7324    5760.2466 
  952000      951.987    373.86177    15.609113   -634.25255   -618.64344    20105.561    44496.163    49317.818   -33497.297      15.2149      13.1765      28.7324    5760.2466 
  952500      952.487    379.31381    15.836741   -634.47872   -618.64198    21825.895     49264.53    50601.603   -34388.447      15.2149      13.1765      28.7324    5760.2466 
  953000      952.987    350.79747    14.646154   -633.28745   -618.64129    23905.125    50502.651    49814.175   -28601.452      15.2149      13.1765      28.7324    5760.2466 
  953500      953.487    362.42427    15.131585   -633.77202   -618.64044    20867.055    46112.034    49535.011    -33045.88      15.2149      13.1765      28.7324    5760.2466 
  954000      953.987    376.94778    15.737957   -634.37791   -618.63995    24026.217    50294.511    51652.246   -29868.105      15.2149      13.1765      28.7324    5760.2466 
  954500      954.487    382.32473     15.96245   -634.60309   -618.64064    22348.406    44199.712    49084.916    -26239.41      15.2149      13.1765      28.7324    5760.2466 
  955000      954.987    377.25865    15.750936   -634.38976   -618.63883    21856.538     42833.28    48763.888   -26027.554      15.2149      13.1765      28.7324    5760.2466 
  955500      955.487    375.98045     15.69757   -634.33559   -618.63802    20734.914    43599.487    50779.514   -32174.259      15.2149      13.1765      28.7324    5760.2466 
  956000      955.987    376.58152    15.722665   -634.36167     -618.639    22302.877    43177.414    53171.597   -29440.379      15.2149      13.1765      28.7324    5760.2466 
  956500      956.487    380.83928    15.900431   -634.53743     -618.637    23347.136    44288.687     54152.73    -28400.01      15.2149      13.1765      28.7324    5760.2466 
  957000      956.987    372.89892    15.568913   -634.20412   -618.63521    22852.432    46136.504    55117.627   -32696.834      15.2149      13.1765      28.7324    5760.2466 
  957500      957.487     388.0156     16.20005   -634.83573   -618.63568      21919.9    41540.956    58276.139   -34057.396      15.2149      13.1765      28.7324    5760.2466 
  958000      957.987    353.39451    14.754584     -633.388   -618.63342    22891.028    41467.454    55886.817   -28681.187      15.2149      13.1765      28.7324    5760.2466 
  958500      958.487    376.47673     15.71829   -634.35185   -618.63356    22333.991    43499.438    51523.284    -28020.75      15.2149      13.1765      28.7324    5760.2466 
  959000      958.987    388.91243    16.237493   -634.86936   -618.63187    22310.602    41640.825    50304.794   -25013.812      15.2149      13.1765      28.7324    5760.2466 
  959500      959.487    369.00315     15.40626   -634.03677    -618.6305    22531.841    43821.382    55046.374   -31272.233      15.2149      13.1765      28.7324    5760.2466 
  960000      959.987     372.7778    15.563856   -634.19395    -618.6301    21409.488    42162.999     47107.78   -25042.315      15.2149      13.1765      28.7324    5760.2466 
  960500      960.487       358.55     14.96983   -633.60026   -618.63043    22940.828    47141.706    56037.207   -34356.429      15.2149      13.1765      28.7324    5760.2466 
  961000      960.987    380.25435     15.87601   -634.50516   -618.62915    23989.421    46114.188    48221.109   -22367.035      15.2149      13.1765      28.7324    5760.2466 
  961500      961.487    360.51867    15.052025   -633.67903     -618.627    21388.341    46180.303     52213.28   -34228.561      15.2149      13.1765      28.7324    5760.2466 
  962000      961.987    380.70649    15.894887    -634.5207   -618.62582    23617.261    44309.518     53574.03   -27031.765      15.2149      13.1765      28.7324    5760.2466 
  962500      962.487    340.74183    14.226321    -632.8498   -618.62348    21002.553    44264.798    50685.473   -31942.613      15.2149      13.1765      28.7324    5760.2466 
  963000      962.987    378.26165    15.792812   -634.41579   -618.62298    22791.338    47988.904    50442.407   -30057.297      15.2149      13.1765      28.7324    5760.2466 
  963500      963.487    390.36793    16.298262   -634.92125   -618.62298    23931.143    46994.341    51256.261   -26457.172      15.2149      13.1765      28.7324    5760.2466 
  964000      963.987    387.56033    16.181042   -634.80226   -618.62122    21066.671    44068.744    49499.637   -30368.369      15.2149      13.1765      28.7324    5760.2466 
  964500      964.487     374.3883    15.631096   -634.25051   -618.61942    21570.163     47234.07     51868.42   -34392.002      15.2149      13.1765      28.7324    5760.2466 
  965000      964.987    366.01037    15.281309   -633.89949   -618.61818    22651.733    46285.895    50972.916   -29303.611      15.2149      13.1765      28.7324    5760.2466 
  965500      965.487    360.49827    15.051173   -633.66676   -618.61558     22016.38     44841.07    52145.342   -30937.273      15.2149      13.1765      28.7324    5760.2466 
  966000      965.987    368.01723    15.365097   -633.97859   -618.61349    21763.912    41550.952    53253.055   -29512.272      15.2149      13.1765      28.7324    5760.2466 
  966500      966.487    353.92536    14.776747   -633.38917   -618.61242    22975.368    48660.325     49842.41   -29576.632      15.2149      13.1765      28.7324    5760.2466 
  967000      966.987    375.87195     15.69304   -634.30372   -618.61068    21010.642    48971.879    51176.058    -37116.01      15.2149      13.1765      28.7324    5760.2466 
  967500      967.487    356.58242    14.887682   -633.49539    -618.6077    22522.871    44533.286    49174.197   -26138.871      15.2149      13.1765      28.7324    5760.2466 
  968000      967.987    381.77039    15.939306   -634.54817   -618.60887    23033.722    45854.705     54449.58   -31203.119      15.2149      13.1765      28.7324    5760.2466 
  968500      968.487    356.62273    14.889365   -633.49491   -618.60554    23013.233    50103.655    55009.864   -36073.819      15.2149      13.1765      28.7324    5760.2466 
  969000      968.987     361.7034    15.101488   -633.70509    -618.6036     24460.96    48668.597    54131.631   -29417.349      15.2149      13.1765      28.7324    5760.2466 
  969500      969.487    375.54647    15.679451    -634.2836   -618.60415    24234.796    43511.973    52593.411   -23400.996      15.2149      13.1765      28.7324    5760.2466 
  970000      969.987     377.7673    15.772173    -634.3732   -618.60103    23503.294    44553.579    51297.884   -25341.581      15.2149      13.1765      28.7324    5760.2466 
  970500      970.487    400.41573    16.717768   -635.31764   -618.59987    23724.357    46795.453    51563.784   -27186.165      15.2149      13.1765      28.7324    5760.2466 
  971000      970.987    380.72153    15.895515   -634.49329   -618.59778    21319.539     48919.52    50178.447    -35139.35      15.2149      13.1765      28.7324    5760.2466 
  971500      971.487    395.11938     16.49664   -635.09124    -618.5946    21473.068    48159.618    48454.428   -32194.843      15.2149      13.1765      28.7324    5760.2466 
  972000      971.987    360.79638    15.063619    -633.6564   -618.59278    21697.971    45909.011    50062.203   -30877.301      15.2149      13.1765      28.7324    5760.2466 
  972500      972.487    378.51686    15.803468   -634.39464   -618.59117    22816.021     43129.45     49366.68   -24048.067      15.2149      13.1765      28.7324    5760.2466 
  973000      972.987     379.0405     15.82533   -634.41417   -618.58884    22716.055    48809.124    43840.897   -24501.856      15.2149      13.1765      28.7324    5760.2466 
  973500      973.487    363.28397    15.167479   -633.75289   -618.58541    22650.621    44418.044    52586.355   -29052.536      15.2149      13.1765      28.7324    5760.2466 
  974000      973.987     365.3779    15.254903   -633.83789   -618.58299    22202.513    46223.151    46875.564   -26491.174      15.2149      13.1765      28.7324    5760.2466 
  974500      974.487    353.30769    14.750959   -633.33246    -618.5815    19738.831    46831.146    43989.834   -31604.488      15.2149      13.1765      28.7324    5760.2466 
  975000      974.987    366.62515    15.306976   -633.88645   -618.57947    23688.064    49855.005    50353.273   -29144.085      15.2149      13.1765      28.7324    5760.2466 
  975500      975.487    351.38677    14.670759   -633.24788   -618.57713    21455.719    46656.382     48932.33   -31221.556      15.2149      13.1765      28.7324    5760.2466 
  976000      975.987    368.55328    15.387478   -633.96293   -618.57546    22003.695    46577.257    48245.758    -28811.93      15.2149      13.1765      28.7324    5760.2466 
  976500      976.487    375.29813    15.669082   -634.24379   -618.57471    22413.279    47851.326    51710.745   -32322.234      15.2149      13.1765      28.7324    5760.2466 
  977000      976.987    372.73615    15.562117   -634.13317   -618.57105    23627.968    43299.193    52987.954   -25403.243      15.2149      13.1765      28.7324    5760.2466 
  977500      977.487    355.91998    14.860025   -633.42735   -618.56733     23318.13    48010.047     52353.08   -30408.737      15.2149      13.1765      28.7324    5760.2466 
  978000      977.987    360.52271    15.052193   -633.61671   -618.56452    21826.397    47607.706    51850.529   -33979.043      15.2149      13.1765      28.7324    5760.2466 
  978500      978.487    371.12938    15.495033   -634.05719   -618.56216    21023.198    46017.398    49152.794   -32100.598      15.2149      13.1765      28.7324    5760.2466 
  979000      978.987    363.61341    15.181233   -633.74099   -618.55976    23277.552    49749.154    47395.409   -27311.906      15.2149      13.1765      28.7324    5760.2466 
  979500      979.487    361.17622    15.079478   -633.63647     -618.557    21232.675    48243.418    47716.075   -32261.466      15.2149      13.1765      28.7324    5760.2466 
  980000      979.987    385.03291    16.075519   -634.63058   -618.55506    21429.358    47456.697    45900.302   -29068.924      15.2149      13.1765      28.7324    5760.2466 
  980500      980.487    378.43343    15.799984    -634.3518   -618.55181    20282.301    46018.886    47810.624   -32982.609      15.2149      13.1765      28.7324    5760.2466 
  981000      980.987    362.01954    15.114687   -633.66435   -618.54966    23361.101    48005.216    52623.143   -30545.058      15.2149      13.1765      28.7324    5760.2466 
  981500      981.487    347.58827    14.512167   -633.05907    -618.5469    23481.242    48015.682    50937.106   -28509.061      15.2149      13.1765      28.7324    5760.2466 
  982000      981.987     373.0553    15.575442   -634.11983   -618.54439    21873.682     48162.56    48531.945   -31073.458      15.2149      13.1765      28.7324    5760.2466 
  982500      982.487     369.3735    15.421723   -633.96133   -618.53961    23620.302    47342.805     46568.77   -23050.668      15.2149      13.1765      28.7324    5760.2466 
  983000      982.987    374.05076    15.617003   -634.15582   -618.53881    22398.386    45162.989    51244.872   -29212.703      15.2149      13.1765      28.7324    5760.2466 
  983500      983.487    365.78286     15.27181   -633.80729   -618.53548    23009.351    48869.857    46768.174   -26609.979      15.2149      13.1765      28.7324    5760.2466 
  984000      983.987    378.57921    15.806071   -634.33898   -618.53291    21599.559    45966.605    50842.303    -32010.23      15.2149      13.1765      28.7324    5760.2466 
  984500      984.487    369.27251    15.417506   -633.94756   -618.53005    25660.901    52909.846     47815.62   -23742.763      15.2149      13.1765      28.7324    5760.2466 
  985000      984.987    346.10871    14.450394   -632.97564   -618.52524    21568.703    48629.436     50815.81   -34739.135      15.2149      13.1765      28.7324    5760.2466 
  985500      985.487     356.7952    14.896566   -633.41832   -618.52176    23644.125    48099.369    50225.499   -27392.492      15.2149      13.1765      28.7324    5760.2466 
  986000      985.987    385.45956    16.093333   -634.61248   -618.51915     20327.17    44265.686    48020.648   -31304.823      15.2149      13.1765      28.7324    5760.2466 
  986500      986.487    378.21645    15.790925   -634.30684   -618.51592    23709.744      49442.6    50776.007   -29089.376      15.2149      13.1765      28.7324    5760.2466 
  987000      986.987    364.66643    15.225198   -633.73762   -618.51243    23275.629    50499.621    50692.395   -31365.128      15.2149      13.1765      28.7324    5760.2466 
  987500      987.487    381.19988    15.915486   -634.42485   -618.50937     23429.52    46353.956    51935.782   -28001.179      15.2149      13.1765      28.7324    5760.2466 
  988000      987.987    345.13725    14.409835   -632.91428   -618.50444    21466.779    48617.558    42754.148   -26971.369      15.2149      13.1765      28.7324    5760.2466 
  988500      988.487    368.20919    15.373112   -633.87461    -618.5015    19987.475    42904.864    52544.564   -35487.004      15.2149      13.1765      28.7324    5760.2466 
  989000      988.987    376.15373    15.704804   -634.20455   -618.49975    24848.628    49056.257    53962.708   -28473.082      15.2149      13.1765      28.7324    5760.2466 
  989500      989.487    377.82857    15.774731   -634.26992   -618.49519    22146.925    45295.983     51518.85   -30374.056      15.2149      13.1765      28.7324    5760.2466 
  990000      989.987    362.83159    15.148592   -633.63975   -618.49116    22661.082    44478.108    56637.271   -33132.131      15.2149      13.1765      28.7324    5760.2466 
  990500      990.487    394.87733    16.486534   -634.97372   -618.48719    23019.119    43614.701    56036.629   -30593.973      15.2149      13.1765      28.7324    5760.2466 
  991000      990.987    371.83191    15.524364   -634.00841   -618.48405    22893.842    46887.466    48444.232   -26650.172      15.2149      13.1765      28.7324    5760.2466 
  991500      991.487    381.90373    15.944873   -634.42575   -618.48088    21238.501    41703.251    52959.666   -30947.414      15.2149      13.1765      28.7324    5760.2466 
  992000      991.987    384.15964    16.039059   -634.51647   -618.47741    23068.701     42144.39    55530.783    -28469.07      15.2149      13.1765      28.7324    5760.2466 
  992500      992.487    404.08856    16.871112   -635.34483   -618.47372    23342.096    47342.857    58880.968   -36197.536      15.2149      13.1765      28.7324    5760.2466 
  993000      992.987    386.33302      16.1298   -634.59734   -618.46754    24794.183    46323.296    56987.034   -28927.781      15.2149      13.1765      28.7324    5760.2466 
  993500      993.487    368.37389    15.379988   -633.84421   -618.46422    21400.984    44814.388    51168.524   -31779.961      15.2149      13.1765      28.7324    5760.2466 
  994000      993.987    380.04676    15.867343   -634.32762   -618.46028    23000.357    46105.422    51423.434   -28527.786      15.2149      13.1765      28.7324    5760.2466 
  994500      994.487    388.22209    16.208671   -634.66535   -618.45668    21638.907    43210.827    52141.905    -30436.01      15.2149      13.1765      28.7324    5760.2466 
  995000      994.987     397.5335    16.597432   -635.05066   -618.45322    23275.241    44730.392    53479.552   -28384.221      15.2149      13.1765      28.7324    5760.2466 
  995500      995.487    390.16102    16.289623    -634.7378   -618.44818     21820.17    47280.477    51314.219   -33134.185      15.2149      13.1765      28.7324    5760.2466 
  996000      995.987    377.84899    15.775583   -634.21933   -618.44375    23750.545    48819.465    48474.654   -26042.484      15.2149      13.1765      28.7324    5760.2466 
  996500      996.487    363.53555    15.177983   -633.61783   -618.43985    22000.913     44917.37    55279.896   -34194.528      15.2149      13.1765      28.7324    5760.2466 
  997000      996.987    371.35122    15.504295   -633.94107   -618.43678    23178.328    46439.106    50820.954   -27725.075      15.2149      13.1765      28.7324    5760.2466 
  997500      997.487    371.06702    15.492429   -633.92478   -618.43235    22110.711    44298.008    51958.684   -29924.559      15.2149      13.1765      28.7324    5760.2466 
  998000      997.987    355.91193    14.859688   -633.28698   -618.42729    19841.058    45180.033     45678.44   -31335.299      15.2149      13.1765      28.7324    5760.2466 
  998500      998.487    394.83799    16.484891   -634.90858   -618.42368    23766.469    45377.222    51587.415    -25665.23      15.2149      13.1765      28.7324    5760.2466 
  999000      998.987    367.66494    15.350389   -633.76914   -618.41875    22142.941     50095.81    47028.333    -30695.32      15.2149      13.1765      28.7324    5760.2466 
  999500      999.487    352.97813    14.737199   -633.15181   -618.41461    21937.983     46750.55    48027.748    -28964.35      15.2149      13.1765      28.7324    5760.2466 
 1000000      999.987    367.85672    15.358396   -633.76707   -618.40868     21267.79    48313.448    47949.622   -32459.701      15.2149      13.1765      28.7324    5760.2466 
 1000013         1000    389.42322    16.258819    -634.6694   -618.41058    22110.487     46303.56    49816.907   -29789.007      15.2149      13.1765      28.7324    5760.2466 
Loop time of 927.641 on 28 procs for 1000000 steps with 324 atoms

Performance: 93.140 ns/day, 0.258 hours/ns, 1078.004 timesteps/s
88.3% CPU use with 28 MPI tasks x no OpenMP threads

MPI task timing breakdown:
Section |  min time  |  avg time  |  max time  |%varavg| %total
---------------------------------------------------------------
Pair    | 715.43     | 794.3      | 857.97     | 133.8 | 85.63
Neigh   | 0          | 0          | 0          |   0.0 |  0.00
Comm    | 51.984     | 120.12     | 199.13     | 351.0 | 12.95
Output  | 0.097252   | 0.099778   | 0.12226    |   1.4 |  0.01
Modify  | 4.9641     | 8.1244     | 13.635     |  94.5 |  0.88
Other   |            | 4.99       |            |       |  0.54

Nlocal:    11.5714 ave 15 max 5 min
Histogram: 2 0 3 1 1 3 0 5 3 10
Nghost:    642.464 ave 691 max 600 min
Histogram: 5 4 3 1 1 3 2 3 3 3
Neighs:    723.107 ave 1033 max 317 min
Histogram: 2 2 2 2 2 3 5 3 4 3
FullNghs:  1446.21 ave 1924 max 634 min
Histogram: 2 2 2 1 3 0 4 3 3 8

Total # of neighbors = 40494
Ave neighs/atom = 124.981
Neighbor list builds = 0
Dangerous builds = 0

write_restart   POSCAR_1x1x1.rest

#unfix    1
#undump   1
Total wall time: 0:15:27
