LAMMPS (7 Dec 2015)
#----------- Initialize Simulation ------------ restart01
#processors	2 2 2
units		metal
boundary	p p p     ## periodic boundary condition  on x y z axis ##
atom_style atomic
#atom_modify map array sort 0 0.0

read_data	POSCAR_1x1x1.lammps
  triclinic box = (0 0 0) to (15.2149 13.1765 28.7324) with tilt (-7.60743 0 0)
  2 by 2 by 7 MPI processor grid
  reading atoms ...
  324 atoms

#----------- Define Potential -----------------
pair_style meam
pair_coeff * * MgAlZn.library.meam Mg Al Zn MgAlZn.parameter.meam Mg Al Zn 	#1=Mg 2=Al 3=Zn	#atoms/mass

#----------- Neighbor List --------------------
neighbor 2.0 bin
neigh_modify delay 10 check yes

#--------------  Run a simulation (minimization) ---------------------------------------
minimize       1.0e-4   1.0e-6   100   1000          #結構優化的條件
WARNING: Resetting reneighboring criteria during minimization (../min.cpp:168)
Neighbor list info ...
  2 neighbor list requests
  update every 1 steps, delay 0 steps, check yes
  max neighbors/atom: 2000, page size: 100000
  master list distance cutoff = 8
  ghost atom cutoff = 8
  binsize = 4 -> bins = 6 4 8
Memory usage per processor = 8.65471 Mbytes
Step Temp E_pair E_mol TotEng Press 
       0            0   -583.54673            0   -583.54673     14386.55 
      13            0   -599.96612            0   -599.96612    11086.014 
Loop time of 0.0224532 on 28 procs for 13 steps with 324 atoms

85.9% CPU use with 28 MPI tasks x no OpenMP threads

Minimization stats:
  Stopping criterion = energy tolerance
  Energy initial, next-to-last, final = 
        -583.546731344     -599.906507608     -599.966118416
  Force two-norm initial, final = 27.3571 1.28183
  Force max component initial, final = 7.78957 0.238935
  Final line search alpha, max atom move = 0.182035 0.0434944
  Iterations, force evaluations = 13 24

MPI task timing breakdown:
Section |  min time  |  avg time  |  max time  |%varavg| %total
---------------------------------------------------------------
Pair    | 0.01799    | 0.019159   | 0.020318   |   0.5 | 85.33
Neigh   | 0          | 0          | 0          |   0.0 |  0.00
Comm    | 0.0012445  | 0.0024057  | 0.0035727  |   1.3 | 10.71
Output  | 0          | 0          | 0          |   0.0 |  0.00
Modify  | 0          | 0          | 0          |   0.0 |  0.00
Other   |            | 0.000888   |            |       |  3.95

Nlocal:    11.5714 ave 15 max 7 min
Histogram: 1 2 4 4 0 1 7 2 1 6
Nghost:    662.071 ave 719 max 618 min
Histogram: 6 5 1 1 4 3 0 0 3 5
Neighs:    722.679 ave 960 max 446 min
Histogram: 2 2 3 4 1 3 5 1 1 6
FullNghs:  1445.36 ave 1909 max 894 min
Histogram: 1 2 4 4 1 6 1 2 1 6

Total # of neighbors = 40470
Ave neighs/atom = 124.907
Neighbor list builds = 0
Dangerous builds = 0
velocity all  create 393.0 4928459 #rot yes dist gaussian

#--------------  Run a simulation (Relaxation)  ----------------------------------------
fix  1  all  nvt   temp  393.0  393.0  100				#damping constant
#fix  2  all  npt   temp  393.0  393.0  50 iso 0.0 0.0 1000.0
#fix  2  all deform 1 x final 0 15.6906 y final 0 13.5884 z final 0 25.2339 xy final -7.8452 units lattice
#fix  3  all  npt   temp  393.0  393.0  50 z 0.0 0.0 1000.0

#variable b equal 1
#fix 2 all efield  0.0  0.0  v_b
#compute pot all pe/atom


#----------- Output --------------------------
thermo	 500
timestep  0.001		#1.0 fs
thermo_style	custom step time temp ke pe etotal press pxx pyy pzz lx ly lz vol

dump 1 all custom 10000 dump.eq id type x y z
dump_modify 1 sort  id

run        1000000	#10000	 ps
Neighbor list info ...
  2 neighbor list requests
  update every 1 steps, delay 10 steps, check yes
  max neighbors/atom: 2000, page size: 100000
  master list distance cutoff = 8
  ghost atom cutoff = 8
  binsize = 4 -> bins = 6 4 8
Memory usage per processor = 7.54518 Mbytes
Step Time Temp KinEng PotEng TotEng Press Pxx Pyy Pzz Lx Ly Lz Volume 
      13            0          393    16.408154   -599.96612   -583.55796    14128.564    32015.915    45392.485   -35022.708      15.2149      13.1765      28.7324    5760.2466 
     500        0.487    205.59531    8.5838153   -592.13501   -583.55119    14932.636    35944.704    48999.593   -40146.389      15.2149      13.1765      28.7324    5760.2466 
    1000        0.987     216.0646     9.020919   -592.57275   -583.55183    16088.834    37184.933     47027.66   -35946.092      15.2149      13.1765      28.7324    5760.2466 
    1500        1.487     204.4491    8.5359598   -592.08611   -583.55015    14466.224    35807.368    47982.076   -40390.772      15.2149      13.1765      28.7324    5760.2466 
    2000        1.987    216.81855    9.0523973   -592.60266   -583.55027    15698.449    34051.606    51549.073   -38505.331      15.2149      13.1765      28.7324    5760.2466 
    2500        2.487    196.63068    8.2095328   -591.75755   -583.54802    13526.117    35287.797     49536.44   -44245.885      15.2149      13.1765      28.7324    5760.2466 
    3000        2.987    215.07495    8.9796002    -592.5276     -583.548    15656.664      34929.3    53144.553   -41103.863      15.2149      13.1765      28.7324    5760.2466 
    3500        3.487    210.93727    8.8068477   -592.35344   -583.54659    14975.554    37776.357    49476.395    -42326.09      15.2149      13.1765      28.7324    5760.2466 
    4000        3.987    197.61966    8.2508237    -591.7954   -583.54457    15932.494     34067.41    53291.171   -39561.099      15.2149      13.1765      28.7324    5760.2466 
    4500        4.487    203.24292    8.4856005   -592.02884   -583.54324     15968.22    35509.717    51319.103   -38924.158      15.2149      13.1765      28.7324    5760.2466 
    5000        4.987    220.35221    9.1999308   -592.74198   -583.54205    14857.308    34775.334    50663.651    -40867.06      15.2149      13.1765      28.7324    5760.2466 
    5500        5.487    220.78063    9.2178179   -592.75744   -583.53962    14534.753     34586.42    50578.492   -41560.653      15.2149      13.1765      28.7324    5760.2466 
    6000        5.987    207.13262    8.6479996   -592.18474   -583.53674    15077.832    32666.585      51060.7   -38493.788      15.2149      13.1765      28.7324    5760.2466 
    6500        6.487    212.62593     8.877351   -592.41201   -583.53466    14147.781      35924.8    48816.396   -42297.853      15.2149      13.1765      28.7324    5760.2466 
    7000        6.987    209.58338    8.7503212   -592.28253   -583.53221    16753.601     34698.66    51215.514   -35653.371      15.2149      13.1765      28.7324    5760.2466 
    7500        7.487    210.42128    8.7853045   -592.31326   -583.52795    15332.906    33444.102    53132.892   -40578.276      15.2149      13.1765      28.7324    5760.2466 
    8000        7.987    198.44276    8.2851889   -591.81048   -583.52529    15163.751    34955.997    57359.332   -46824.075      15.2149      13.1765      28.7324    5760.2466 
    8500        8.487     202.6157    8.4594137   -591.98092   -583.52151    16438.052    36872.157    52366.492   -39924.492      15.2149      13.1765      28.7324    5760.2466 
    9000        8.987    208.90327    8.7219258   -592.24045   -583.51852    16768.432    37094.436    48492.676   -35281.815      15.2149      13.1765      28.7324    5760.2466 
    9500        9.487    202.15573    8.4402092   -591.95472   -583.51451    15852.092    36036.826    52448.291   -40928.842      15.2149      13.1765      28.7324    5760.2466 
   10000        9.987    210.32736    8.7813831   -592.29178   -583.51039    16198.387    34151.319    49470.635   -35026.792      15.2149      13.1765      28.7324    5760.2466 
   10500       10.487    213.83192    8.9277022   -592.43458   -583.50687    15995.776    35900.809     49623.35    -37536.83      15.2149      13.1765      28.7324    5760.2466 
   11000       10.987    202.72674    8.4640497   -591.96622   -583.50217    14912.463    34945.697    51008.901   -41217.209      15.2149      13.1765      28.7324    5760.2466 
   11500       11.487    220.34537    9.1996454   -592.69746   -583.49782    15297.164    37026.354    48761.182   -39896.044      15.2149      13.1765      28.7324    5760.2466 
   12000       11.987    214.77704     8.967162    -592.4597   -583.49254    13743.871    33569.004    49456.025   -41793.416      15.2149      13.1765      28.7324    5760.2466 
   12500       12.487    207.58566    8.6669145   -592.15491   -583.48799    15180.403    39299.306    46055.892   -39813.988      15.2149      13.1765      28.7324    5760.2466 
   13000       12.987     217.8367     9.094906   -592.57829   -583.48339    15662.504    36400.601    49681.666   -39094.757      15.2149      13.1765      28.7324    5760.2466 
   13500       13.487    208.89813    8.7217115   -592.19895   -583.47724     15749.69     33409.68    50410.967   -36571.576      15.2149      13.1765      28.7324    5760.2466 
   14000       13.987    202.67635    8.4619458   -591.93314   -583.47119    16385.318    34530.227    50698.774   -36073.048      15.2149      13.1765      28.7324    5760.2466 
   14500       14.487    208.24374    8.6943902   -592.15938   -583.46499    14750.653    32267.695    50121.982   -38137.719      15.2149      13.1765      28.7324    5760.2466 
   15000       14.987    208.01849    8.6849854   -592.14486   -583.45987    14224.433    33656.048    50268.548   -41251.297      15.2149      13.1765      28.7324    5760.2466 
   15500       15.487    210.06594    8.7704687   -592.22449   -583.45402    15525.875    38647.859    48873.009   -40943.245      15.2149      13.1765      28.7324    5760.2466 
   16000       15.987    208.59092    8.7088851   -592.15596   -583.44707    14329.701    34967.161    49049.105   -41027.163      15.2149      13.1765      28.7324    5760.2466 
   16500       16.487    209.66956    8.7539196   -592.19455   -583.44063    14828.347     37662.24     49714.54    -42891.74      15.2149      13.1765      28.7324    5760.2466 
   17000       16.987    210.81755    8.8018492   -592.23506   -583.43321    16903.594    38519.685    51305.919   -39114.821      15.2149      13.1765      28.7324    5760.2466 
   17500       17.487    203.81457    8.5094677   -591.93565   -583.42618    14695.586    37095.981    44773.743   -37782.966      15.2149      13.1765      28.7324    5760.2466 
   18000       17.987    211.05854    8.8119109    -592.2311   -583.41919    15266.518    32897.671    51037.197   -38135.314      15.2149      13.1765      28.7324    5760.2466 
   18500       18.487     214.7756    8.9671017   -592.37911   -583.41201    14260.175    35949.932     48752.08   -41921.486      15.2149      13.1765      28.7324    5760.2466 
   19000       18.987     209.9866     8.767156   -592.17115   -583.40399    13962.473    33831.947    47675.276   -39619.803      15.2149      13.1765      28.7324    5760.2466 
   19500       19.487    217.73517    9.0906667   -592.48664   -583.39597    15985.579    35067.733    49533.536   -36644.533      15.2149      13.1765      28.7324    5760.2466 
   20000       19.987     216.9837    9.0592921   -592.44752   -583.38823    15143.286     34409.25    51142.871   -40122.262      15.2149      13.1765      28.7324    5760.2466 
   20500       20.487    209.40008    8.7426685   -592.12261   -583.37994    14636.794     33922.07    50181.476   -40193.164      15.2149      13.1765      28.7324    5760.2466 
   21000       20.987    203.03528    8.4769315   -591.84783    -583.3709    16645.279    32606.152    48465.441   -31135.754      15.2149      13.1765      28.7324    5760.2466 
   21500       21.487    202.58834    8.4582713    -591.8204   -583.36213    13685.571    34475.459     50946.74   -44365.486      15.2149      13.1765      28.7324    5760.2466 
   22000       21.987    206.32499    8.6142801   -591.96815   -583.35387     15730.67    35164.632    49868.938   -37841.559      15.2149      13.1765      28.7324    5760.2466 
   22500       22.487    204.70548    8.5466641   -591.89079   -583.34413     13277.67     35067.94    49872.174   -45107.104      15.2149      13.1765      28.7324    5760.2466 
   23000       22.987    221.07211    9.2299877   -592.56577   -583.33578    14665.658    34189.467    49535.834   -39728.327      15.2149      13.1765      28.7324    5760.2466 
   23500       23.487    211.28749    8.8214697   -592.14789   -583.32642    13775.398    35358.586    49225.452   -43257.843      15.2149      13.1765      28.7324    5760.2466 
   24000       23.987    214.66508    8.9624875   -592.27894   -583.31646    14815.624    37048.454    50886.942   -43488.525      15.2149      13.1765      28.7324    5760.2466 
   24500       24.487    217.43424    9.0781029   -592.38484   -583.30674    14323.847    35961.499    50522.356   -43512.312      15.2149      13.1765      28.7324    5760.2466 
   25000       24.987     208.4189     8.701703   -591.99941    -583.2977    15849.072    36997.132    50202.872   -39652.788      15.2149      13.1765      28.7324    5760.2466 
   25500       25.487     208.3591    8.6992064   -591.98644   -583.28724    15883.994    37530.589    50252.369   -40130.976      15.2149      13.1765      28.7324    5760.2466 
   26000       25.987     217.2013    9.0683773   -592.34562   -583.27725    14030.142      39449.2    48719.131   -46077.906      15.2149      13.1765      28.7324    5760.2466 
   26500       26.487    207.97191     8.683041   -591.94946   -583.26641    13998.292    39498.194    47229.402   -44732.721      15.2149      13.1765      28.7324    5760.2466 
   27000       26.987    212.26059    8.8620974   -592.11819    -583.2561    15121.411    36780.405     49245.87   -40662.041      15.2149      13.1765      28.7324    5760.2466 
   27500       27.487    224.82812    9.3868047   -592.63277   -583.24597    15612.829    35973.124    49526.424    -38661.06      15.2149      13.1765      28.7324    5760.2466 
   28000       27.987     217.0913    9.0637848   -592.29906   -583.23528     14188.42    33194.938    50614.689   -41244.368      15.2149      13.1765      28.7324    5760.2466 
   28500       28.487    224.69191     9.381118   -592.60538   -583.22426    14829.115    33849.689    49630.802   -38993.147      15.2149      13.1765      28.7324    5760.2466 
   29000       28.987    205.05545    8.5612755   -591.77411   -583.21283    15015.609    39571.392    48527.037   -43051.603      15.2149      13.1765      28.7324    5760.2466 
   29500       29.487    213.52853    8.9150356   -592.11636   -583.20133    15038.393    33309.177      46161.4   -34355.397      15.2149      13.1765      28.7324    5760.2466 
   30000       29.987    214.52234    8.9565281   -592.14694   -583.19041    15622.839    33385.198      47531.2   -34047.881      15.2149      13.1765      28.7324    5760.2466 
   30500       30.487    218.27746    9.1133082   -592.29196   -583.17865    16268.027    38096.361    48708.796   -38001.075      15.2149      13.1765      28.7324    5760.2466 
   31000       30.987    209.59572    8.7508367   -591.91753   -583.16669    15251.778    35522.341    48078.708   -37845.716      15.2149      13.1765      28.7324    5760.2466 
   31500       31.487    214.55574    8.9579226   -592.11324   -583.15531    13635.372    33365.322    47395.426   -39854.633      15.2149      13.1765      28.7324    5760.2466 
   32000       31.987     214.8744    8.9712268   -592.11448   -583.14325     14844.41    35101.368    51733.051   -42301.188      15.2149      13.1765      28.7324    5760.2466 
   32500       32.487     223.0381    9.3120697   -592.44431   -583.13224    15308.331    33922.281    49024.689   -37021.977      15.2149      13.1765      28.7324    5760.2466 
   33000       32.987    214.26254    8.9456811   -592.06566   -583.11998     15275.76    35898.012    47055.393   -37126.125      15.2149      13.1765      28.7324    5760.2466 
   33500       33.487    219.57123    9.1673245   -592.27443   -583.10711    14125.961    33537.818    45278.224   -36438.158      15.2149      13.1765      28.7324    5760.2466 
   34000       33.987    223.72443    9.3407249   -592.43591   -583.09518    14200.267    34541.968     48149.68   -40090.848      15.2149      13.1765      28.7324    5760.2466 
   34500       34.487    226.91507    9.4739374   -592.55765   -583.08371     15709.48    33893.036    48153.133   -34917.728      15.2149      13.1765      28.7324    5760.2466 
   35000       34.987    222.53931    9.2912446   -592.36217   -583.07093    14052.883    34651.708    44506.074   -36999.132      15.2149      13.1765      28.7324    5760.2466 
   35500       35.487    214.70273    8.9640594   -592.02245   -583.05839    15645.513    36412.807    50159.377   -39635.645      15.2149      13.1765      28.7324    5760.2466 
   36000       35.987    201.53818    8.4144259   -591.45961   -583.04518    16365.428    37291.722    53294.891   -41490.328      15.2149      13.1765      28.7324    5760.2466 
   36500       36.487    217.90382    9.0977084   -592.13102   -583.03331    16015.877    41798.521    48803.704   -42554.593      15.2149      13.1765      28.7324    5760.2466 
   37000       36.987    210.57243    8.7916151   -591.81182    -583.0202    14735.182    33286.205    46924.336   -36004.995      15.2149      13.1765      28.7324    5760.2466 
   37500       37.487    209.42022    8.7435092   -591.75069   -583.00718    15165.144    40217.436    47355.958   -42077.963      15.2149      13.1765      28.7324    5760.2466 
   38000       37.987    213.60475    8.9182177   -591.91315   -582.99493    14952.929    33868.898    48146.511   -37156.622      15.2149      13.1765      28.7324    5760.2466 
   38500       38.487    214.44204    8.9531753   -591.93531   -582.98213    13600.448    37257.669    46578.762   -43035.087      15.2149      13.1765      28.7324    5760.2466 
   39000       38.987    218.29759    9.1141487   -592.08407   -582.96992     14667.23    35501.899    46325.709   -37825.919      15.2149      13.1765      28.7324    5760.2466 
   39500       39.487    216.76398    9.0501188   -592.00723   -582.95711    13936.553    36422.609    45306.768   -39919.718      15.2149      13.1765      28.7324    5760.2466 
   40000       39.987    211.23679    8.8193531   -591.76344   -582.94408    15589.004    35902.684    48300.851   -37436.523      15.2149      13.1765      28.7324    5760.2466 
   40500       40.487    213.00129    8.8930226    -591.8246   -582.93158     14716.36    37043.516    49784.317   -42678.751      15.2149      13.1765      28.7324    5760.2466 
   41000       40.987    214.89335     8.972018   -591.89053   -582.91851    14436.212    37154.854    48092.441   -41938.659      15.2149      13.1765      28.7324    5760.2466 
   41500       41.487    214.35382    8.9494921   -591.85506   -582.90556    13932.986    36405.659    47962.038    -42568.74      15.2149      13.1765      28.7324    5760.2466 
   42000       41.987    217.72097    9.0900741   -591.98355   -582.89348    14429.835     37532.55    49250.196   -43493.242      15.2149      13.1765      28.7324    5760.2466 
   42500       42.487    215.67043    9.0044621   -591.88453   -582.88007    14537.359    36138.659    50781.534   -43308.115      15.2149      13.1765      28.7324    5760.2466 
   43000       42.987     223.3041    9.3231753   -592.19162   -582.86844        15137    35684.561    49178.366   -39451.928      15.2149      13.1765      28.7324    5760.2466 
   43500       43.487    211.36646    8.8247668   -591.67954   -582.85477    15162.392    35175.962    49128.526   -38817.312      15.2149      13.1765      28.7324    5760.2466 
   44000       43.987    211.86783    8.8456994    -591.6882    -582.8425    15723.436    37244.073    50041.522   -40115.287      15.2149      13.1765      28.7324    5760.2466 
   44500       44.487    216.71379    9.0480231   -591.87772    -582.8297    14501.872    36822.355     47422.28   -40739.018      15.2149      13.1765      28.7324    5760.2466 
   45000       44.987    217.28125    9.0717155   -591.88987   -582.81815    15078.144    38211.922    45431.801   -38409.293      15.2149      13.1765      28.7324    5760.2466 
   45500       45.487    212.87629    8.8878036   -591.69267   -582.80487    14951.607     36189.11    46249.217   -37583.507      15.2149      13.1765      28.7324    5760.2466 
   46000       45.987    219.85277    9.1790788   -591.97215   -582.79307    15064.931    35877.102     46900.84   -37583.149      15.2149      13.1765      28.7324    5760.2466 
   46500       46.487    226.51224    9.4571186   -592.23754   -582.78042    16452.347    34328.271    46772.293   -31743.524      15.2149      13.1765      28.7324    5760.2466 
   47000       46.987    218.57461    9.1257145   -591.89388   -582.76816    14425.267    37539.944    48371.878   -42636.023      15.2149      13.1765      28.7324    5760.2466 
   47500       47.487    229.89203    9.5982283   -592.35418   -582.75595    15628.914    36809.499    48347.006   -38269.764      15.2149      13.1765      28.7324    5760.2466 
   48000       47.987    225.84794    9.4293834   -592.17271   -582.74332    14231.918    35589.751    49365.706   -42259.703      15.2149      13.1765      28.7324    5760.2466 
   48500       48.487    216.80662    9.0518992   -591.78394   -582.73204     13334.63    35168.704    45548.675    -40713.49      15.2149      13.1765      28.7324    5760.2466 
   49000       48.987    212.79465    8.8843952   -591.60306   -582.71866    14462.897    35226.497    48086.865   -39924.671      15.2149      13.1765      28.7324    5760.2466 
   49500       49.487     205.9219    8.5974509    -591.3038   -582.70635    14449.379    31691.427    49377.141   -37720.433      15.2149      13.1765      28.7324    5760.2466 
   50000       49.987    209.95682    8.7659127   -591.45998   -582.69407    16556.228    37236.522    51510.876   -39078.715      15.2149      13.1765      28.7324    5760.2466 
   50500       50.487    214.87638    8.9713093    -591.6545   -582.68319    15202.342    34542.355    50059.624   -38994.952      15.2149      13.1765      28.7324    5760.2466 
   51000       50.987    223.03646    9.3120014   -591.98335   -582.67135    14254.541    32747.355    51518.196   -41501.928      15.2149      13.1765      28.7324    5760.2466 
   51500       51.487    223.12012    9.3154942   -591.97478   -582.65928    15221.108    34709.848    49949.961   -38996.485      15.2149      13.1765      28.7324    5760.2466 
   52000       51.987    213.96465    8.9332437   -591.58046   -582.64721     15674.25     35269.36    49827.831   -38074.441      15.2149      13.1765      28.7324    5760.2466 
   52500       52.487    215.40005    8.9931731   -591.62856   -582.63539    15400.187    35613.565    48780.674   -38193.678      15.2149      13.1765      28.7324    5760.2466 
   53000       52.987    214.46999    8.9543425   -591.57796   -582.62361    14806.594    37414.912    50208.398   -43203.528      15.2149      13.1765      28.7324    5760.2466 
   53500       53.487    211.97748    8.8502777   -591.46197   -582.61169    15592.489    39359.647    46370.489   -38952.671      15.2149      13.1765      28.7324    5760.2466 
   54000       53.987    226.51567    9.4572618   -592.05868   -582.60142    15196.833     37169.54    48766.594   -40345.636      15.2149      13.1765      28.7324    5760.2466 
   54500       54.487    223.68271    9.3389827   -591.92789   -582.58891    15992.627    35509.121    49821.551   -37352.792      15.2149      13.1765      28.7324    5760.2466 
   55000       54.987    214.46375    8.9540819   -591.53192   -582.57784    16112.878    36145.485    51970.435   -39777.286      15.2149      13.1765      28.7324    5760.2466 
   55500       55.487    222.00058    9.2687523   -591.83501   -582.56626     16130.42    37299.485    49541.288   -38449.512      15.2149      13.1765      28.7324    5760.2466 
   56000       55.987    231.33409    9.6584358   -592.21404    -582.5556    14467.335    37895.448    50200.555   -44693.999      15.2149      13.1765      28.7324    5760.2466 
   56500       56.487    218.52157    9.1234998    -591.6672    -582.5437    15565.041    35648.465     50324.28   -39277.621      15.2149      13.1765      28.7324    5760.2466 
   57000       56.987    222.95072    9.3084215   -591.84133    -582.5329    15226.083    36881.844    45741.552   -36945.147      15.2149      13.1765      28.7324    5760.2466 
   57500       57.487      218.052    9.1038948   -591.62544   -582.52154    13368.123    34840.409    46145.408   -40881.448      15.2149      13.1765      28.7324    5760.2466 
   58000       57.987    226.61223    9.4612931   -591.97233   -582.51103    14593.681    35930.014    48378.537   -40527.508      15.2149      13.1765      28.7324    5760.2466 
   58500       58.487    229.14698    9.5671218   -592.06707   -582.49995    15263.658      36869.4    49520.875   -40599.302      15.2149      13.1765      28.7324    5760.2466 
   59000       58.987    217.05337    9.0622012   -591.54992   -582.48772    15235.672     36053.87    50982.801   -41329.656      15.2149      13.1765      28.7324    5760.2466 
   59500       59.487    217.75866    9.0916479   -591.56874   -582.47709    15896.628    34285.979    49506.131   -36102.227      15.2149      13.1765      28.7324    5760.2466 
   60000       59.987    223.75103    9.3418352    -591.8075   -582.46567    13211.875    36067.321    44077.852   -40509.548      15.2149      13.1765      28.7324    5760.2466 
   60500       60.487    219.74317    9.1745031   -591.62971    -582.4552    15554.538    36293.128    50404.369   -40033.882      15.2149      13.1765      28.7324    5760.2466 
   61000       60.987     223.4026    9.3272879   -591.77198   -582.44469    16012.072    36229.789     49275.06   -37468.633      15.2149      13.1765      28.7324    5760.2466 
   61500       61.487    213.74535    8.9240878   -591.35781   -582.43372    14859.138    36731.186    43985.459   -36139.231      15.2149      13.1765      28.7324    5760.2466 
   62000       61.987    214.27632    8.9462565   -591.36934   -582.42308    13818.249    34680.243    45138.829   -38364.325      15.2149      13.1765      28.7324    5760.2466 
   62500       62.487    213.06853      8.89583   -591.30812   -582.41229    15417.105    35815.443    47900.665   -37464.791      15.2149      13.1765      28.7324    5760.2466 
   63000       62.987    230.90888     9.640683   -592.04316   -582.40248    16002.768    36099.282    46263.229   -34354.207      15.2149      13.1765      28.7324    5760.2466 
   63500       63.487    218.90053    9.1393217   -591.53049   -582.39117    13984.589    37482.683    45172.289   -40701.204      15.2149      13.1765      28.7324    5760.2466 
   64000       63.987      242.619    10.129592   -592.51137   -582.38178    15439.072    34779.511    50532.946   -38995.241      15.2149      13.1765      28.7324    5760.2466 
   64500       64.487    222.88075    9.3055003   -591.67569   -582.37019    15386.841    32124.952    48323.912    -34288.34      15.2149      13.1765      28.7324    5760.2466 
   65000       64.987    225.05442    9.3962532   -591.75657   -582.36032    14248.788    35945.353    47332.145   -40531.135      15.2149      13.1765      28.7324    5760.2466 
   65500       65.487    220.59432    9.2100392    -591.5597   -582.34966    15342.557    37997.682    50012.214   -41982.225      15.2149      13.1765      28.7324    5760.2466 
   66000       65.987     226.6097    9.4611878   -591.80068   -582.33949    15632.353    36403.948    47826.227   -37333.117      15.2149      13.1765      28.7324    5760.2466 
   66500       66.487    224.53622    9.3746177   -591.70325   -582.32863     14880.37    37663.841    53738.856   -46761.588      15.2149      13.1765      28.7324    5760.2466 
   67000       66.987    234.18333    9.7773943   -592.09581   -582.31841    14975.428    35620.313    49590.035   -40284.065      15.2149      13.1765      28.7324    5760.2466 
   67500       67.487    226.83169    9.4704558   -591.77725   -582.30679    14622.676    36878.271    50224.005   -43234.249      15.2149      13.1765      28.7324    5760.2466 
   68000       67.987    226.14043    9.4415953   -591.73903   -582.29744    15011.783    35322.566     49024.64   -39311.858      15.2149      13.1765      28.7324    5760.2466 
   68500       68.487    225.24228    9.4040964   -591.69083   -582.28674    14874.216    35363.043    46952.909   -37693.303      15.2149      13.1765      28.7324    5760.2466 
   69000       68.987    219.12666    9.1487633   -591.42526   -582.27649    16455.813    37516.828    49385.603   -37534.992      15.2149      13.1765      28.7324    5760.2466 
   69500       69.487    232.05016    9.6883326    -591.9544   -582.26607    15803.053    39209.928    49937.925   -41738.694      15.2149      13.1765      28.7324    5760.2466 
   70000       69.987    215.94366    9.0158697   -591.27011   -582.25424    13962.847    35213.827    46070.147   -39395.432      15.2149      13.1765      28.7324    5760.2466 
   70500       70.487    225.80862    9.4277416   -591.67193   -582.24418    15416.246    37797.866    51459.157   -43008.284      15.2149      13.1765      28.7324    5760.2466 
   71000       70.987    221.44735    9.2456543   -591.47952   -582.23386    15346.723    33223.518    51764.889   -38948.238      15.2149      13.1765      28.7324    5760.2466 
   71500       71.487    214.62763    8.9609238    -591.1845   -582.22358    13995.995    33155.557    52492.038   -43659.612      15.2149      13.1765      28.7324    5760.2466 
   72000       71.987    223.60669     9.335809    -591.5486   -582.21279    15575.984    41566.497    47949.892   -42788.437      15.2149      13.1765      28.7324    5760.2466 
   72500       72.487    232.92838    9.7249992   -591.92766   -582.20266    13333.279    35030.675     46489.41   -41520.248      15.2149      13.1765      28.7324    5760.2466 
   73000       72.987    220.47007    9.2048519   -591.39644   -582.19159    14902.836    33213.261    46031.846   -34536.601      15.2149      13.1765      28.7324    5760.2466 
   73500       73.487    237.93382    9.9339814   -592.11502   -582.18104     15218.34    35355.294    50469.642   -40169.915      15.2149      13.1765      28.7324    5760.2466 
   74000       73.987    213.08989    8.8967218    -591.0665   -582.16978    13482.647    36115.653    49794.454   -45462.167      15.2149      13.1765      28.7324    5760.2466 
   74500       74.487    240.85494    10.055941   -592.21655   -582.16061    13335.929    34603.474    47473.669   -42069.356      15.2149      13.1765      28.7324    5760.2466 
   75000       74.987     223.6974     9.339596   -591.48836   -582.14876    15027.055    37039.232     49650.22   -41608.288      15.2149      13.1765      28.7324    5760.2466 
   75500       75.487    224.55233    9.3752902   -591.51327   -582.13798    15384.555    38778.692    44937.537   -37562.565      15.2149      13.1765      28.7324    5760.2466 
   76000       75.987    227.64329     9.504341   -591.63202   -582.12768    15067.426    36066.631    48561.174   -39425.526      15.2149      13.1765      28.7324    5760.2466 
   76500       76.487     233.7385    9.7588223   -591.87574   -582.11692    15142.627    36079.203      49364.8   -40016.123      15.2149      13.1765      28.7324    5760.2466 
   77000       76.987    221.18922     9.234877   -591.33958    -582.1047     15007.56    39040.664    49310.619   -43328.604      15.2149      13.1765      28.7324    5760.2466 
   77500       77.487    219.68967    9.1722695   -591.26644   -582.09417     16085.55    36391.339    49298.026   -37432.715      15.2149      13.1765      28.7324    5760.2466 
   78000       77.987    233.90649    9.7658361   -591.84996   -582.08412    13033.043    35097.296    47901.965   -43900.133      15.2149      13.1765      28.7324    5760.2466 
   78500       78.487    233.01367    9.7285599    -591.8007   -582.07214    14815.228    37737.121    48964.027   -42255.464      15.2149      13.1765      28.7324    5760.2466 
   79000       78.987    218.55245    9.1247892   -591.18668   -582.06189    14742.442    33509.549    48868.926    -38151.15      15.2149      13.1765      28.7324    5760.2466 
   79500       79.487    223.54634    9.3332893   -591.38346   -582.05017    15056.501    36646.442    44770.231    -36247.17      15.2149      13.1765      28.7324    5760.2466 
   80000       79.987    231.40831    9.6615346   -591.70108   -582.03955    14573.617    34246.707    42719.643   -33245.498      15.2149      13.1765      28.7324    5760.2466 
   80500       80.487    227.39829    9.4941122    -591.5224   -582.02829    13972.759     34354.86    48499.103   -40935.687      15.2149      13.1765      28.7324    5760.2466 
   81000       80.987    225.53676    9.4163913   -591.43416   -582.01777     15074.76    35437.552    46827.479    -37040.75      15.2149      13.1765      28.7324    5760.2466 
   81500       81.487    238.67633    9.9649819    -591.9716   -582.00662    15571.598    36633.499    51663.963   -41582.667      15.2149      13.1765      28.7324    5760.2466 
   82000       81.987    220.68894    9.2139898   -591.20867   -581.99468    13871.382    36320.869    43680.759   -38387.483      15.2149      13.1765      28.7324    5760.2466 
   82500       82.487    226.72887    9.4661629   -591.44992   -581.98375    14884.298    33906.376    50193.922   -39447.403      15.2149      13.1765      28.7324    5760.2466 
   83000       82.987    213.32167    8.9063986   -590.87845   -581.97205    14316.588    35435.486    48744.488   -41230.212      15.2149      13.1765      28.7324    5760.2466 
   83500       83.487    222.72327    9.2989251   -591.25968   -581.96076    15089.307    35463.882    46173.772   -36369.733      15.2149      13.1765      28.7324    5760.2466 
   84000       83.987    224.28579    9.3641622   -591.31392   -581.94976    16461.867    37727.621    53338.388   -41680.406      15.2149      13.1765      28.7324    5760.2466 
   84500       84.487    239.93666    10.017602   -591.95603   -581.93843    16458.953    38313.115    53272.005   -42208.259      15.2149      13.1765      28.7324    5760.2466 
   85000       84.987    227.46879    9.4970556   -591.42392   -581.92686      15737.7    35485.913    52343.442   -40616.256      15.2149      13.1765      28.7324    5760.2466 
   85500       85.487    222.17766    9.2761455   -591.19116   -581.91501    16847.923    37226.485    50526.766   -37209.481      15.2149      13.1765      28.7324    5760.2466 
   86000       85.987     233.9654    9.7682958   -591.67074   -581.90245    15689.804    35872.011    53336.414   -42139.014      15.2149      13.1765      28.7324    5760.2466 
   86500       86.487    243.61846    10.171321   -592.06249   -581.89117     13650.85    33677.517    44771.042    -37496.01      15.2149      13.1765      28.7324    5760.2466 
   87000       86.987    230.67832    9.6310568   -591.50926    -581.8782    15152.108    37066.157    49237.163   -40846.995      15.2149      13.1765      28.7324    5760.2466 
   87500       87.487     222.5366    9.2911317   -591.15775   -581.86662    13280.022    33997.243     48150.18   -42307.356      15.2149      13.1765      28.7324    5760.2466 
   88000       87.987    229.25654    9.5716962   -591.42674   -581.85504    15917.359    33750.863    49872.325   -35871.113      15.2149      13.1765      28.7324    5760.2466 
   88500       88.487    226.00073    9.4357625   -591.27836    -581.8426    15477.129      35297.3    52132.795   -40998.707      15.2149      13.1765      28.7324    5760.2466 
   89000       88.987    236.65096    9.8804207    -591.7117   -581.83127    15577.852    35125.089    49309.011   -37700.544      15.2149      13.1765      28.7324    5760.2466 
   89500       89.487    222.26138    9.2796407   -591.09795   -581.81831    15538.507    37913.061    48334.465   -39632.005      15.2149      13.1765      28.7324    5760.2466 
   90000       89.987    235.01068    9.8119371   -591.61878   -581.80684    13957.528    34861.914    50523.664   -43512.995      15.2149      13.1765      28.7324    5760.2466 
   90500       90.487    223.89785    9.3479651   -591.14267   -581.79471    15277.731    35707.771    50786.807   -40661.386      15.2149      13.1765      28.7324    5760.2466 
   91000       90.987    228.64156    9.5460201   -591.32814   -581.78212    13642.299    35967.636    51284.981   -46325.722      15.2149      13.1765      28.7324    5760.2466 
   91500       91.487    239.92747    10.017218    -591.7877   -581.77048    16190.378    35088.871    50634.624   -37152.361      15.2149      13.1765      28.7324    5760.2466 
   92000       91.987    232.60443    9.7114739     -591.469   -581.75753    15152.325    35088.742    48008.055    -37639.82      15.2149      13.1765      28.7324    5760.2466 
   92500       92.487    224.04493     9.354106   -591.09877   -581.74467    16202.746    36514.466    51176.296   -39082.524      15.2149      13.1765      28.7324    5760.2466 
   93000       92.987     231.0119     9.644984    -591.3772   -581.73221    17137.768    38720.115    49393.182   -36699.993      15.2149      13.1765      28.7324    5760.2466 
   93500       93.487    236.23411    9.8630167   -591.58286   -581.71984    16053.886    37344.923     47998.16   -37181.423      15.2149      13.1765      28.7324    5760.2466 
   94000       93.987    216.74635    9.0493826   -590.75575   -581.70637    15113.311    36015.614    49676.537   -40352.219      15.2149      13.1765      28.7324    5760.2466 
   94500       94.487     240.9706     10.06077   -591.75532   -581.69455    14768.513    34255.169    52791.027   -42740.657      15.2149      13.1765      28.7324    5760.2466 
   95000       94.987    230.71386    9.6325406   -591.31442   -581.68188     15117.58    37377.666    47081.538   -39106.463      15.2149      13.1765      28.7324    5760.2466 
   95500       95.487    225.58756    9.4185122   -591.08673   -581.66822    15826.864    32452.835    49445.165   -34417.407      15.2149      13.1765      28.7324    5760.2466 
   96000       95.987    221.41131    9.2441497   -590.89944   -581.65529    16106.303    36723.548    50390.659   -38795.299      15.2149      13.1765      28.7324    5760.2466 
   96500       96.487    225.47774     9.413927   -591.05654   -581.64262    17175.508    34984.062    52246.311   -35703.848      15.2149      13.1765      28.7324    5760.2466 
   97000       96.987    246.40691    10.287741   -591.91878   -581.63104     15717.45    37431.787    47695.891   -37975.327      15.2149      13.1765      28.7324    5760.2466 
   97500       97.487    236.59892    9.8782479    -591.4958   -581.61755     16328.52    38755.656    45826.755    -35596.85      15.2149      13.1765      28.7324    5760.2466 
   98000       97.987    231.41987    9.6620172   -591.26586   -581.60384    14913.231    35850.888    47160.736    -38271.93      15.2149      13.1765      28.7324    5760.2466 
   98500       98.487    245.13622    10.234689   -591.82625   -581.59156    15741.727    35094.847    49034.077   -36903.743      15.2149      13.1765      28.7324    5760.2466 
   99000       98.987    238.19723    9.9449787   -591.52287   -581.57789    15365.642    35357.558    50265.233   -39525.866      15.2149      13.1765      28.7324    5760.2466 
   99500       99.487    225.24336    9.4041415   -590.96872   -581.56458    14374.214    31558.024    48049.148   -36484.532      15.2149      13.1765      28.7324    5760.2466 
  100000       99.987    229.99617    9.6025763   -591.15366   -581.55108    15376.298    35841.583    48333.429   -38046.119      15.2149      13.1765      28.7324    5760.2466 
  100500      100.487    228.50394    9.5402743    -591.0775   -581.53722    15359.967    35770.027    51367.126   -41057.252      15.2149      13.1765      28.7324    5760.2466 
  101000      100.987    220.85877    9.2210804   -590.74493   -581.52385    15478.746    35970.653    46269.998   -35804.411      15.2149      13.1765      28.7324    5760.2466 
  101500      101.487    236.74832    9.8844854    -591.3955   -581.51101    14342.169    36303.368    46922.361   -40199.222      15.2149      13.1765      28.7324    5760.2466 
  102000      101.987     234.7212    9.7998512   -591.29765    -581.4978    15282.443    35669.202    46646.531   -36468.403      15.2149      13.1765      28.7324    5760.2466 
  102500      102.487     235.9269    9.8501903   -591.33419     -581.484    15879.829     38344.49    48429.508   -39134.512      15.2149      13.1765      28.7324    5760.2466 
  103000      102.987    243.96199    10.185663   -591.65603   -581.47037    15311.713    33554.143    48375.439   -35994.442      15.2149      13.1765      28.7324    5760.2466 
  103500      103.487    238.49372    9.9573578   -591.41358   -581.45623    16730.073      35495.1    47920.272   -33225.154      15.2149      13.1765      28.7324    5760.2466 
  104000      103.987    239.67744    10.006779   -591.44989   -581.44311    15425.353    36518.817    44110.463   -34353.221      15.2149      13.1765      28.7324    5760.2466 
  104500      104.487     236.2091    9.8619724   -591.29195   -581.42998    14676.556    42060.793    48125.941   -46157.065      15.2149      13.1765      28.7324    5760.2466 
  105000      104.987    234.73269    9.8003307   -591.21577   -581.41544    14335.514    34893.949    49858.517   -41745.925      15.2149      13.1765      28.7324    5760.2466 
  105500      105.487    239.21241    9.9873639    -591.3883   -581.40094     17486.13     34699.68    49384.658    -31625.95      15.2149      13.1765      28.7324    5760.2466 
  106000      105.987    224.76237    9.3840596   -590.77113   -581.38707    14262.428    38031.418     47142.66   -42386.794      15.2149      13.1765      28.7324    5760.2466 
  106500      106.487     237.9318    9.9338971   -591.30795   -581.37405    17357.802    40087.301    53476.447   -41490.343      15.2149      13.1765      28.7324    5760.2466 
  107000      106.987    222.22436    9.2780951   -590.63677   -581.35867    14890.827    37033.814    49026.872   -41388.204      15.2149      13.1765      28.7324    5760.2466 
  107500      107.487    231.65604    9.6718775   -591.01736   -581.34548     15364.26    36679.681    47117.478   -37704.379      15.2149      13.1765      28.7324    5760.2466 
  108000      107.987    240.15568    10.026746   -591.35854    -581.3318    16082.816    36656.703    50399.454   -38807.708      15.2149      13.1765      28.7324    5760.2466 
  108500      108.487    225.25446     9.404605   -590.72124   -581.31663    13905.102    34622.013    46822.923   -39729.629      15.2149      13.1765      28.7324    5760.2466 
  109000      108.987    249.49579    10.416706   -591.72039   -581.30368    15041.992    38148.377    45531.653   -38554.052      15.2149      13.1765      28.7324    5760.2466 
  109500      109.487    246.66597    10.298558   -591.58807   -581.28952    14601.249    36696.688    49481.168    -42374.11      15.2149      13.1765      28.7324    5760.2466 
  110000      109.987    231.65679    9.6719087   -590.94654   -581.27463    14756.494    36590.596    47536.769   -39857.884      15.2149      13.1765      28.7324    5760.2466 
  110500      110.487    233.09947    9.7321422   -590.99248   -581.26034    15299.314    34663.247    45553.826    -34319.13      15.2149      13.1765      28.7324    5760.2466 
  111000      110.987    237.81106    9.9288559   -591.17521   -581.24636    14983.552    34667.799    49220.433   -38937.577      15.2149      13.1765      28.7324    5760.2466 
  111500      111.487    238.44983    9.9555255   -591.18753     -581.232    15486.171    35757.953    48940.966   -38240.407      15.2149      13.1765      28.7324    5760.2466 
  112000      111.987    240.18228    10.027857   -591.24546    -581.2176    14548.825    36645.886    48001.376   -41000.788      15.2149      13.1765      28.7324    5760.2466 
  112500      112.487    244.79303     10.22036    -591.4238   -581.20344    15414.324    39804.433    49680.443   -43241.903      15.2149      13.1765      28.7324    5760.2466 
  113000      112.987    245.05363    10.231241   -591.42012   -581.18888     15765.94    33993.264    53118.127   -39813.571      15.2149      13.1765      28.7324    5760.2466 
  113500      113.487    242.68936     10.13253   -591.30627   -581.17374    14744.024    37158.238     50090.29   -43016.457      15.2149      13.1765      28.7324    5760.2466 
  114000      113.987    230.02739    9.6038798   -590.76306   -581.15918    15863.733    38315.565    47961.421   -38685.788      15.2149      13.1765      28.7324    5760.2466 
  114500      114.487      234.247    9.7800529    -590.9246   -581.14455    16807.443    40888.519    52745.994   -43212.183      15.2149      13.1765      28.7324    5760.2466 
  115000      114.987    239.46126    9.9977534   -591.12809   -581.13034    15585.051    36777.332     49478.29   -39500.469      15.2149      13.1765      28.7324    5760.2466 
  115500      115.487     219.9738    9.1841322   -590.29875   -581.11462    15069.848    37488.644    47554.514   -39833.615      15.2149      13.1765      28.7324    5760.2466 
  116000      115.987     233.6527    9.7552401   -590.85506   -581.09982    14639.413     35764.33    49192.939    -41039.03      15.2149      13.1765      28.7324    5760.2466 
  116500      116.487    248.76854    10.386342   -591.47174    -581.0854    14913.193    34382.187    51300.729   -40943.337      15.2149      13.1765      28.7324    5760.2466 
  117000      116.987    240.82741    10.054792   -591.12555   -581.07076     13961.86    35879.568    49215.584   -43209.571      15.2149      13.1765      28.7324    5760.2466 
  117500      117.487    232.69027    9.7150576   -590.77115   -581.05609    14922.762    38411.504    48493.993   -42137.209      15.2149      13.1765      28.7324    5760.2466 
  118000      117.987    231.26102     9.655385   -590.69661   -581.04123    16175.956    37067.411    48058.827   -36598.371      15.2149      13.1765      28.7324    5760.2466 
  118500      118.487    242.54043    10.126312   -591.15337   -581.02706     14144.42     38449.37    47442.428   -43458.539      15.2149      13.1765      28.7324    5760.2466 
  119000      118.987    242.52904    10.125837   -591.13782   -581.01198    16054.894     37763.88    49596.013   -39195.211      15.2149      13.1765      28.7324    5760.2466 
  119500      119.487    244.11391    10.192007   -591.18845   -580.99644    16379.124    33242.177    51387.738   -35492.542      15.2149      13.1765      28.7324    5760.2466 
  120000      119.987    232.22993    9.6958382   -590.67744    -580.9816    14206.999    37959.873    43357.821   -38696.699      15.2149      13.1765      28.7324    5760.2466 
  120500      120.487    232.60367    9.7114421   -590.67777   -580.96633    15765.067    40356.339    46529.089   -39590.225      15.2149      13.1765      28.7324    5760.2466 
  121000      120.987    236.23761     9.863163   -590.81437    -580.9512    14123.915    38316.762    49026.298   -44971.315      15.2149      13.1765      28.7324    5760.2466 
  121500      121.487    239.67082    10.006503   -590.94344   -580.93693    12625.185    37585.102    45298.894    -45008.44      15.2149      13.1765      28.7324    5760.2466 
  122000      121.987    246.55955    10.294115   -591.21705   -580.92293    15198.175    37558.315    51149.611     -43113.4      15.2149      13.1765      28.7324    5760.2466 
  122500      122.487    237.05163     9.897149    -590.8035   -580.90635    14530.418    34244.139     47364.48   -38017.365      15.2149      13.1765      28.7324    5760.2466 
  123000      122.987    241.48158    10.082104   -590.97386   -580.89175    15054.647    40454.474    49293.577    -44584.11      15.2149      13.1765      28.7324    5760.2466 
  123500      123.487    233.64094    9.7547493   -590.63117   -580.87642    14075.199    37944.123    44429.795   -40148.321      15.2149      13.1765      28.7324    5760.2466 
  124000      123.987    249.30126    10.408583   -591.26984   -580.86126     16303.05    36162.679    51601.243   -38854.771      15.2149      13.1765      28.7324    5760.2466 
  124500      124.487    239.18553    9.9862413   -590.83255    -580.8463     16991.34    40417.341    51497.287   -40940.607      15.2149      13.1765      28.7324    5760.2466 
  125000      124.987    240.71972    10.050296   -590.88062   -580.83032    15008.552    33188.344    48033.173   -36195.862      15.2149      13.1765      28.7324    5760.2466 
  125500      125.487    237.16109    9.9017189   -590.71736   -580.81564    15605.032    37135.056    50070.952   -40390.911      15.2149      13.1765      28.7324    5760.2466 
  126000      125.987     231.4623    9.6637885   -590.46428   -580.80049    15637.262    37601.393    49882.665   -40572.273      15.2149      13.1765      28.7324    5760.2466 
  126500      126.487    240.29457    10.032545   -590.81761   -580.78507    14808.395    35574.158    51704.995    -42853.97      15.2149      13.1765      28.7324    5760.2466 
  127000      126.987    245.03864    10.230615   -591.00137   -580.77076    17021.416    38885.825    53624.664    -41446.24      15.2149      13.1765      28.7324    5760.2466 
  127500      127.487    229.18776    9.5688242   -590.32217   -580.75334     15598.43    41055.025      49434.9   -43694.637      15.2149      13.1765      28.7324    5760.2466 
  128000      127.987    249.48285    10.416165   -591.15545   -580.73928    15225.106    36847.147    48468.744   -39640.573      15.2149      13.1765      28.7324    5760.2466 
  128500      128.487     238.8603    9.9726628   -590.69527   -580.72261    16644.636    41370.255     48359.32   -39795.667      15.2149      13.1765      28.7324    5760.2466 
  129000      128.987    226.78031    9.4683106   -590.17605   -580.70774     14731.04    37351.823    48021.929   -41180.634      15.2149      13.1765      28.7324    5760.2466 
  129500      129.487    247.35152     10.32718    -591.0201   -580.69292    15129.829    36150.009    49796.291   -40556.814      15.2149      13.1765      28.7324    5760.2466 
  130000      129.987    250.66736     10.46562   -591.14328   -580.67766    15517.359    36550.917    50403.385   -40402.226      15.2149      13.1765      28.7324    5760.2466 
  130500      130.487    244.23622    10.197113   -590.85924   -580.66213    16086.138    37359.474    46614.373   -35715.434      15.2149      13.1765      28.7324    5760.2466 
  131000      130.987    246.06321    10.273392   -590.91965   -580.64626     16033.76    35619.536    47605.295   -35123.552      15.2149      13.1765      28.7324    5760.2466 
  131500      131.487    258.91262    10.809868   -591.44077    -580.6309    15817.263    37766.684    48746.913   -39061.809      15.2149      13.1765      28.7324    5760.2466 
  132000      131.987    242.82258    10.138092   -590.75318   -580.61508    15147.801    40130.208    48919.153   -43605.957      15.2149      13.1765      28.7324    5760.2466 
  132500      132.487    244.18658    10.195041   -590.79385   -580.59881    13962.073    38164.825    47931.104   -44209.709      15.2149      13.1765      28.7324    5760.2466 
  133000      132.987    238.34925    9.9513258   -590.53394   -580.58261    15816.036    40746.539    46765.753   -40064.184      15.2149      13.1765      28.7324    5760.2466 
  133500      133.487    232.09441    9.6901801   -590.25682   -580.56664    13391.455    33959.901    47921.857   -41707.392      15.2149      13.1765      28.7324    5760.2466 
  134000      133.987    249.42839    10.413892   -590.96598   -580.55209    15091.297    37897.081    45546.163   -38169.354      15.2149      13.1765      28.7324    5760.2466 
  134500      134.487    252.24279    10.531396   -591.06774   -580.53635    15707.396    38023.334     46647.47   -37548.615      15.2149      13.1765      28.7324    5760.2466 
  135000      134.987    250.02783    10.438919   -590.96052   -580.52161    15201.385    39401.605     50899.95   -44697.401      15.2149      13.1765      28.7324    5760.2466 
  135500      135.487    244.17051    10.194369   -590.69919   -580.50482    14606.465    36367.452     48079.03   -40627.087      15.2149      13.1765      28.7324    5760.2466 
  136000      135.987    243.94173    10.184818   -590.67471   -580.48989    15335.811    38628.961    49051.768   -41673.297      15.2149      13.1765      28.7324    5760.2466 
  136500      136.487    238.51542    9.9582636   -590.43141   -580.47315    15619.864    39724.656    51969.525    -44834.59      15.2149      13.1765      28.7324    5760.2466 
  137000      136.987     255.7956    10.679729   -591.13839   -580.45867    15030.776    36719.327    49032.789   -40659.789      15.2149      13.1765      28.7324    5760.2466 
  137500      137.487    252.26675    10.532396   -590.97524   -580.44285    14044.511    37233.683    48071.568   -43171.717      15.2149      13.1765      28.7324    5760.2466 
  138000      137.987    253.41957    10.580527   -591.00644   -580.42591    15908.544    35515.014    49855.273   -37644.654      15.2149      13.1765      28.7324    5760.2466 
  138500      138.487    253.09536    10.566991   -590.97755   -580.41056     13992.73    38001.418    48345.659   -44368.886      15.2149      13.1765      28.7324    5760.2466 
  139000      138.987    248.09438    10.358195   -590.75294   -580.39474    15128.009    38553.176    44644.679   -37813.827      15.2149      13.1765      28.7324    5760.2466 
  139500      139.487    250.06402     10.44043   -590.81927   -580.37884    14672.012    40850.933     48721.99   -45556.885      15.2149      13.1765      28.7324    5760.2466 
  140000      139.987    259.09919    10.817657   -591.18044   -580.36279    15084.627    37737.449    47740.463    -40224.03      15.2149      13.1765      28.7324    5760.2466 
  140500      140.487    247.77409    10.344823   -590.69254   -580.34772    15559.405    39447.608    49810.743   -42580.135      15.2149      13.1765      28.7324    5760.2466 
  141000      140.987    254.89081    10.641953   -590.97389   -580.33193    13314.568    36717.481    48962.221   -45735.998      15.2149      13.1765      28.7324    5760.2466 
  141500      141.487    240.84005     10.05532    -590.3718   -580.31648    14332.204    38333.213    46358.412   -41695.013      15.2149      13.1765      28.7324    5760.2466 
  142000      141.987    246.05694     10.27313   -590.57281   -580.29968    15026.484    34190.977    49262.419   -38373.943      15.2149      13.1765      28.7324    5760.2466 
  142500      142.487    249.06586    10.398756   -590.68291   -580.28415     15552.77     39852.68    47824.736   -41019.105      15.2149      13.1765      28.7324    5760.2466 
  143000      142.987     252.2235     10.53059   -590.79867   -580.26808    14936.084    38896.457    48740.657    -42828.86      15.2149      13.1765      28.7324    5760.2466 
  143500      143.487    247.22236    10.321787   -590.57404   -580.25226    14977.276    33780.724    48836.883    -37685.78      15.2149      13.1765      28.7324    5760.2466 
  144000      143.987     253.7114    10.592711   -590.82958   -580.23687    14637.438    34597.605     48431.14   -39116.432      15.2149      13.1765      28.7324    5760.2466 
  144500      144.487     239.6619     10.00613   -590.22613      -580.22    14221.099    39913.549    47012.343   -44262.594      15.2149      13.1765      28.7324    5760.2466 
  145000      144.987    248.14401    10.360267   -590.56451   -580.20425    14820.606    37692.682    48256.073   -41486.938      15.2149      13.1765      28.7324    5760.2466 
  145500      145.487    240.13654    10.025947   -590.21435    -580.1884      16278.3     39297.73    52102.453   -42565.282      15.2149      13.1765      28.7324    5760.2466 
  146000      145.987    250.62916    10.464025   -590.63671   -580.17268    14826.012    36708.501    48957.705   -41188.169      15.2149      13.1765      28.7324    5760.2466 
  146500      146.487    265.48315    11.084194   -591.24102   -580.15682    15958.153    38134.493    50604.892   -40864.927      15.2149      13.1765      28.7324    5760.2466 
  147000      146.987    243.57731    10.169603   -590.30885   -580.13925    16131.961    36335.256    53389.912   -41329.285      15.2149      13.1765      28.7324    5760.2466 
  147500      147.487       255.53     10.66864   -590.79235   -580.12371    14391.188    33042.722    53125.346   -42994.504      15.2149      13.1765      28.7324    5760.2466 
  148000      147.987     237.1961    9.9031807   -590.01089   -580.10771    12857.142    35323.605    49214.412   -45966.591      15.2149      13.1765      28.7324    5760.2466 
  148500      148.487     248.5395    10.376779   -590.46911   -580.09233    15162.483    36396.712    47141.749   -38051.013      15.2149      13.1765      28.7324    5760.2466 
  149000      148.987    268.67883    11.217617    -591.2941   -580.07648    13779.673    37924.308    47916.516   -44501.805      15.2149      13.1765      28.7324    5760.2466 
  149500      149.487    245.73904    10.259857    -590.3189   -580.05904     14640.33    37870.151    48373.222   -42322.383      15.2149      13.1765      28.7324    5760.2466 
  150000      149.987    240.52016    10.041964   -590.08537   -580.04341    13733.452    36908.144    46359.088   -42066.876      15.2149      13.1765      28.7324    5760.2466 
  150500      150.487    239.74881    10.009759   -590.03652   -580.02676    13516.395    35299.741    51109.008   -45859.563      15.2149      13.1765      28.7324    5760.2466 
  151000      150.987    247.73188     10.34306   -590.35377   -580.01071    14699.477    37354.585    48460.688   -41716.843      15.2149      13.1765      28.7324    5760.2466 
  151500      151.487    244.64591    10.214218   -590.20942    -579.9952    14006.363    34316.591    46751.654   -39049.157      15.2149      13.1765      28.7324    5760.2466 
  152000      151.987    252.99737      10.5629   -590.54233   -579.97943     14884.52    39639.559    49227.944   -44213.943      15.2149      13.1765      28.7324    5760.2466 
  152500      152.487    244.33568    10.201266   -590.16387   -579.96261    14209.342    36682.058     49229.54   -43283.572      15.2149      13.1765      28.7324    5760.2466 
  153000      152.987    246.05982     10.27325   -590.21981   -579.94656    16243.829    39562.999    47542.319   -38373.832      15.2149      13.1765      28.7324    5760.2466 
  153500      153.487    256.35227     10.70297   -590.63367   -579.93069    15609.053    36503.734    47106.569   -36783.144      15.2149      13.1765      28.7324    5760.2466 
  154000      153.987    266.49763     11.12655   -591.04137   -579.91482    14716.865    37190.394    48888.898   -41928.695      15.2149      13.1765      28.7324    5760.2466 
  154500      154.487    257.78847    10.762934   -590.66029   -579.89736    15673.246    36692.631    50942.015   -40614.909      15.2149      13.1765      28.7324    5760.2466 
  155000      154.987    236.75948    9.8849515   -589.76545    -579.8805    14511.662     39777.31    46202.319   -42444.642      15.2149      13.1765      28.7324    5760.2466 
  155500      155.487    256.58159    10.712545   -590.57743   -579.86489    13719.774    37971.125    49685.668    -46497.47      15.2149      13.1765      28.7324    5760.2466 
  156000      155.987    250.84606     10.47308   -590.32198    -579.8489    15552.235     36721.82    47911.577   -37976.693      15.2149      13.1765      28.7324    5760.2466 
  156500      156.487    266.91992    11.144181   -590.97802   -579.83384     13420.31     35403.29    49427.736   -44570.098      15.2149      13.1765      28.7324    5760.2466 
  157000      156.987    247.36003    10.327535   -590.14346   -579.81593    14411.978    37742.288    48309.985    -42816.34      15.2149      13.1765      28.7324    5760.2466 
  157500      157.487    245.86712    10.265205   -590.06517   -579.79997    14384.271    39011.237    50544.473   -46402.897      15.2149      13.1765      28.7324    5760.2466 
  158000      157.987    267.64416    11.174418   -590.95857   -579.78415    15476.275    36963.223    51596.923   -42131.322      15.2149      13.1765      28.7324    5760.2466 
  158500      158.487     247.1201    10.317518   -590.08449   -579.76697    15240.963    38256.563    48251.057   -40784.732      15.2149      13.1765      28.7324    5760.2466 
  159000      158.987    262.40894    10.955843   -590.70741   -579.75157    14915.577      36821.8    53064.538   -45139.608      15.2149      13.1765      28.7324    5760.2466 
  159500      159.487    269.06914    11.233913   -590.96867   -579.73476    16483.939     35432.68    50621.488    -36602.35      15.2149      13.1765      28.7324    5760.2466 
  160000      159.987    264.33534    11.036272   -590.75399   -579.71772    15343.491    36337.165    47818.392   -38125.084      15.2149      13.1765      28.7324    5760.2466 
  160500      160.487    254.87811    10.641423   -590.34219   -579.70077    15912.931    36661.841    46493.849   -35416.896      15.2149      13.1765      28.7324    5760.2466 
  161000      160.987    239.21836    9.9876121   -589.67155   -579.68394    15325.653    35802.115    54197.607   -44022.763      15.2149      13.1765      28.7324    5760.2466 
  161500      161.487    250.68281    10.466265   -590.13399   -579.66773    14740.649    37073.096    48995.027   -41846.175      15.2149      13.1765      28.7324    5760.2466 
  162000      161.987    265.60225    11.089166   -590.74068   -579.65151     15771.74    36092.818    49441.755   -38219.352      15.2149      13.1765      28.7324    5760.2466 
  162500      162.487    257.91265    10.768118   -590.40305   -579.63493    15385.949    35171.516      50375.6   -39389.269      15.2149      13.1765      28.7324    5760.2466 
  163000      162.987    255.89654    10.683943   -590.30223   -579.61829    14701.212    34067.213    48982.392   -38945.969      15.2149      13.1765      28.7324    5760.2466 
  163500      163.487    259.03731    10.815074     -590.416   -579.60093    15539.933     34880.17    51044.931   -39305.303      15.2149      13.1765      28.7324    5760.2466 
  164000      163.987    268.50141    11.210209   -590.79554   -579.58533    15725.779    37500.909    49637.913   -39961.484      15.2149      13.1765      28.7324    5760.2466 
  164500      164.487    265.90185    11.101675   -590.67016   -579.56848    16380.687    37197.385    48546.862   -36602.185      15.2149      13.1765      28.7324    5760.2466 
  165000      164.987    270.04747    11.274759   -590.82585   -579.55109    15475.524    38251.385    51422.822   -43247.636      15.2149      13.1765      28.7324    5760.2466 
  165500      165.487    273.86455    11.434126   -590.96896   -579.53483    14931.157    34128.161    49579.212   -38913.901      15.2149      13.1765      28.7324    5760.2466 
  166000      165.987    258.50149    10.792702   -590.31082   -579.51812    15366.457    34453.146    51981.305    -40335.08      15.2149      13.1765      28.7324    5760.2466 
  166500      166.487    268.33612    11.203309   -590.70455   -579.50124    15212.227     38405.78    48493.795   -41262.893      15.2149      13.1765      28.7324    5760.2466 
  167000      166.987    253.05549    10.565326   -590.05035   -579.48502    16108.889    37472.332     50777.16   -39922.826      15.2149      13.1765      28.7324    5760.2466 
  167500      167.487     267.8215    11.181823   -590.65044   -579.46862    16601.582     36824.87    45640.123   -32660.247      15.2149      13.1765      28.7324    5760.2466 
  168000      167.987    245.59164    10.253703   -589.70436   -579.45065    14357.888    34466.919    46828.274   -38221.528      15.2149      13.1765      28.7324    5760.2466 
  168500      168.487    253.73854    10.593845   -590.02814   -579.43429    15770.479    37635.912    50048.686   -40373.162      15.2149      13.1765      28.7324    5760.2466 
  169000      168.987    267.51978    11.169225   -590.58648   -579.41726    15586.753    35956.425    49169.682   -38365.847      15.2149      13.1765      28.7324    5760.2466 
  169500      169.487    262.94673    10.978296   -590.37835   -579.40006    14191.855    35380.952    53217.831   -46023.219      15.2149      13.1765      28.7324    5760.2466 
  170000      169.987    258.80373    10.805322    -590.1882   -579.38288    15613.417    37786.287    48184.912   -39130.948      15.2149      13.1765      28.7324    5760.2466 
  170500      170.487    256.84143    10.723393    -590.0893    -579.3659     15178.56    36570.264    50424.019   -41458.605      15.2149      13.1765      28.7324    5760.2466 
  171000      170.987    266.19773    11.114029   -590.46262   -579.34859    16142.664    35678.514    49116.002   -36366.523      15.2149      13.1765      28.7324    5760.2466 
  171500      171.487    252.59298    10.546016   -589.87835   -579.33233    14754.429    37500.123    51143.385   -44380.221      15.2149      13.1765      28.7324    5760.2466 
  172000      171.987    266.17481    11.113072   -590.42831   -579.31524    15454.158    36379.275    49721.998   -39738.799      15.2149      13.1765      28.7324    5760.2466 
  172500      172.487    261.90221    10.934686   -590.23278   -579.29809    15027.164    37275.325    47462.527   -39656.361      15.2149      13.1765      28.7324    5760.2466 
  173000      172.987    256.83112    10.722963   -590.00514   -579.28218     14357.87    36922.458    51087.474   -44936.323      15.2149      13.1765      28.7324    5760.2466 
  173500      173.487    260.07425    10.858367   -590.12321   -579.26484    15931.441    38670.306    50617.164   -41493.148      15.2149      13.1765      28.7324    5760.2466 
  174000      173.987    259.67662    10.841765    -590.0898   -579.24804    14088.502    36082.114    52791.994   -46608.602      15.2149      13.1765      28.7324    5760.2466 
  174500      174.487    272.80481    11.389881   -590.62214   -579.23226    15681.713     35735.13    49055.174   -37745.165      15.2149      13.1765      28.7324    5760.2466 
  175000      174.987    264.58752    11.046801   -590.26095   -579.21415    15476.358     35392.07    48500.448   -37463.443      15.2149      13.1765      28.7324    5760.2466 
  175500      175.487    267.89646    11.184952   -590.38131   -579.19635    15203.164    37960.071    49323.787   -41674.365      15.2149      13.1765      28.7324    5760.2466 
  176000      175.987    264.60956    11.047721   -590.22711   -579.17938    16475.549    39778.214    48635.108   -38986.674      15.2149      13.1765      28.7324    5760.2466 
  176500      176.487    241.47342    10.081763   -589.24361   -579.16184    15305.505    38642.991    50754.258   -43480.736      15.2149      13.1765      28.7324    5760.2466 
  177000      176.987     263.8666    11.016702   -590.16257   -579.14587    15445.796    35519.814    50782.873   -39965.299      15.2149      13.1765      28.7324    5760.2466 
  177500      177.487    254.23389    10.614526   -589.74253     -579.128    14582.911    36019.031    48373.379   -40643.676      15.2149      13.1765      28.7324    5760.2466 
  178000      177.987    272.58715    11.380794   -590.49266   -579.11187    14560.822     37572.44    49524.543   -43414.518      15.2149      13.1765      28.7324    5760.2466 
  178500      178.487    263.08797    10.984193   -590.07831   -579.09411    15890.182    34665.733    49390.729   -36385.917      15.2149      13.1765      28.7324    5760.2466 
  179000      178.987    257.58581    10.754472   -589.83144   -579.07697    15767.582    36414.847    48320.262   -37432.362      15.2149      13.1765      28.7324    5760.2466 
  179500      179.487    281.74119    11.762984   -590.82512   -579.06214    16975.127    37893.478    47746.706   -34714.805      15.2149      13.1765      28.7324    5760.2466 
  180000      179.987    252.94597    10.560754   -589.60345   -579.04269    16452.534    37310.328    51290.027   -39242.754      15.2149      13.1765      28.7324    5760.2466 
  180500      180.487    261.96715    10.937398   -589.96419    -579.0268     16048.01    37288.633    50176.781   -39321.383      15.2149      13.1765      28.7324    5760.2466 
  181000      180.987    267.74274    11.178534   -590.18801   -579.00947    16014.961    34719.108    52624.888   -39299.113      15.2149      13.1765      28.7324    5760.2466 
  181500      181.487    277.37851    11.580838   -590.57269   -578.99185    15372.436    35205.481    47739.746   -36827.919      15.2149      13.1765      28.7324    5760.2466 
  182000      181.987    265.36485    11.079255   -590.05347   -578.97421    13541.115    36444.546    50768.458   -46589.658      15.2149      13.1765      28.7324    5760.2466 
  182500      182.487    277.83844     11.60004   -590.55716   -578.95712    16308.829    35228.353    51534.098   -37835.966      15.2149      13.1765      28.7324    5760.2466 
  183000      182.987    278.40275    11.623601   -590.56246   -578.93886    15904.401    36720.621     50263.49   -39270.907      15.2149      13.1765      28.7324    5760.2466 
  183500      183.487    276.86291    11.559311   -590.48177   -578.92246    15082.169    36404.342    52920.565     -44078.4      15.2149      13.1765      28.7324    5760.2466 
  184000      183.987    273.24226    11.408145   -590.31244   -578.90429    15882.577    34670.297     48940.83   -35963.397      15.2149      13.1765      28.7324    5760.2466 
  184500      184.487    265.95459    11.103877   -589.99106   -578.88718    15326.704    35594.259    50432.684   -40046.831      15.2149      13.1765      28.7324    5760.2466 
  185000      184.987    250.78816    10.470663    -589.3392   -578.86854    14367.407    35328.652    50342.171   -42568.602      15.2149      13.1765      28.7324    5760.2466 
  185500      185.487    269.40115    11.247775   -590.09943   -578.85165    14994.728    36518.242    52506.931   -44040.989      15.2149      13.1765      28.7324    5760.2466 
  186000      185.987    271.96949    11.355006   -590.18971   -578.83471    17643.812     40297.97    51063.203   -38429.739      15.2149      13.1765      28.7324    5760.2466 
  186500      186.487    260.41127    10.872438   -589.69044     -578.818    15618.854     35315.86    49457.575   -37916.874      15.2149      13.1765      28.7324    5760.2466 
  187000      186.987    271.32578     11.32813   -590.12813       -578.8    15458.268    41494.003    52555.975   -47675.174      15.2149      13.1765      28.7324    5760.2466 
  187500      187.487    266.60997     11.13124   -589.91395   -578.78271    15566.429    33016.681    52002.003   -38319.396      15.2149      13.1765      28.7324    5760.2466 
  188000      187.987    264.39175    11.038627   -589.80373    -578.7651    18064.886    39400.318    53262.888   -38468.547      15.2149      13.1765      28.7324    5760.2466 
  188500      188.487    263.05729    10.982912   -589.73001    -578.7471    15486.911    35538.463    51883.888   -40961.619      15.2149      13.1765      28.7324    5760.2466 
  189000      188.987    269.14048    11.236891   -589.96766   -578.73077    15808.043     40251.68    48415.049   -41242.598      15.2149      13.1765      28.7324    5760.2466 
  189500      189.487    252.60376    10.546466   -589.25883   -578.71237    15591.469    38718.705     48031.05   -39975.346      15.2149      13.1765      28.7324    5760.2466 
  190000      189.987    253.61248    10.588581    -589.2827   -578.69412    14809.441    38476.511    49298.454   -43346.643      15.2149      13.1765      28.7324    5760.2466 
  190500      190.487    275.76513    11.513477   -590.19217    -578.6787    16203.015    37638.974    50077.768   -39107.696      15.2149      13.1765      28.7324    5760.2466 
  191000      190.987    278.39952    11.623466   -590.28432   -578.66085    15488.041     38494.51    50390.613       -42421      15.2149      13.1765      28.7324    5760.2466 
  191500      191.487    281.65644    11.759445   -590.40261   -578.64317    15460.635    35204.789    47636.078   -36458.962      15.2149      13.1765      28.7324    5760.2466 
  192000      191.987    273.39897    11.414688   -590.04043   -578.62574    17093.876    34360.086    55272.932   -38351.392      15.2149      13.1765      28.7324    5760.2466 
  192500      192.487    265.47713    11.083943    -589.6909   -578.60696    15934.127    37771.011    51577.012   -41545.641      15.2149      13.1765      28.7324    5760.2466 
  193000      192.987    268.80257    11.222783    -589.8128   -578.59002    14673.063    37033.617    46912.917   -39927.345      15.2149      13.1765      28.7324    5760.2466 
  193500      193.487    273.65308    11.425297   -589.99854   -578.57324    16045.371    39614.082    54963.288   -46441.258      15.2149      13.1765      28.7324    5760.2466 
  194000      193.987    261.22549    10.906432   -589.46118   -578.55474    14147.601    37768.437    52069.881   -47395.515      15.2149      13.1765      28.7324    5760.2466 
  194500      194.487    274.51586    11.461319    -589.9986   -578.53728    15294.991     38983.52     50582.71   -43681.257      15.2149      13.1765      28.7324    5760.2466 
  195000      194.987    281.21878    11.741173   -590.26153   -578.52035    17176.976    35726.814    51563.365   -35759.252      15.2149      13.1765      28.7324    5760.2466 
  195500      195.487    263.15267    10.986894   -589.48863   -578.50173    14250.096    37032.415     50610.84   -44892.968      15.2149      13.1765      28.7324    5760.2466 
  196000      195.987    274.52704    11.461786   -589.94716   -578.48537    16297.604    33488.939    52095.239   -36691.365      15.2149      13.1765      28.7324    5760.2466 
  196500      196.487    265.92441    11.102617   -589.56933   -578.46672    16890.968    38276.043    47180.552   -34783.691      15.2149      13.1765      28.7324    5760.2466 
  197000      196.987    277.79942    11.598411   -590.04804   -578.44963    15846.595     37693.75    50405.451   -40559.414      15.2149      13.1765      28.7324    5760.2466 
  197500      197.487    261.89807    10.934513    -589.3661   -578.43158    15708.731    36380.361    50626.131     -39880.3      15.2149      13.1765      28.7324    5760.2466 
  198000      197.987    258.65453    10.799092    -589.2127    -578.4136    16023.715     40184.76    47471.124   -39584.739      15.2149      13.1765      28.7324    5760.2466 
  198500      198.487      269.838    11.266013   -589.66241   -578.39639    15870.058    39732.252     49924.98   -42047.059      15.2149      13.1765      28.7324    5760.2466 
  199000      198.987    282.96564    11.814106   -590.19295   -578.37884    15250.663    36958.236    50461.524    -41667.77      15.2149      13.1765      28.7324    5760.2466 
  199500      199.487    275.61558    11.507233   -589.86822   -578.36099      16096.3     36996.76    51570.642   -40278.503      15.2149      13.1765      28.7324    5760.2466 
  200000      199.987    269.10947    11.235597   -589.57754   -578.34194    14625.113    32384.379    56442.908   -44951.947      15.2149      13.1765      28.7324    5760.2466 
  200500      200.487    281.06948     11.73494    -590.0603   -578.32536    16432.137    33681.707    51684.278   -36069.573      15.2149      13.1765      28.7324    5760.2466 
  201000      200.987    258.11909    10.776737   -589.08438   -578.30764    16918.612     37889.52    52046.263   -39179.945      15.2149      13.1765      28.7324    5760.2466 
  201500      201.487    270.35493    11.287596   -589.57768   -578.29008    15557.085    33304.043    49781.199   -36413.988      15.2149      13.1765      28.7324    5760.2466 
  202000      201.987    285.26394    11.910063   -590.18276   -578.27269    15924.568      33542.3    50841.035    -36609.63      15.2149      13.1765      28.7324    5760.2466 
  202500      202.487    269.05088    11.233151   -589.48784   -578.25469    16048.954    37439.735    50837.289   -40130.162      15.2149      13.1765      28.7324    5760.2466 
  203000      202.987    272.36048     11.37133   -589.60713    -578.2358    15945.518    37614.057    49775.951   -39553.454      15.2149      13.1765      28.7324    5760.2466 
  203500      203.487    281.91985    11.770443   -589.98992   -578.21948    15229.813    34211.699    50914.968   -39437.229      15.2149      13.1765      28.7324    5760.2466 
  204000      203.987     272.8799    11.393016   -589.59508   -578.20206    16103.823    36947.955    50136.725   -38773.211      15.2149      13.1765      28.7324    5760.2466 
  204500      204.487    276.59693    11.548206   -589.73156   -578.18336    15458.668    36144.636    52630.234   -42398.867      15.2149      13.1765      28.7324    5760.2466 
  205000      204.987     279.4568    11.667609   -589.83281    -578.1652    14956.262    38517.431    50433.996   -44082.642      15.2149      13.1765      28.7324    5760.2466 
  205500      205.487    270.23628    11.282642   -589.42978   -578.14714    15203.088    38590.941    50024.936   -43006.613      15.2149      13.1765      28.7324    5760.2466 
  206000      205.987    265.98661    11.105214   -589.23515   -578.12993    15771.586    36734.671    55010.958    -44430.87      15.2149      13.1765      28.7324    5760.2466 
  206500      206.487    279.35294    11.663272     -589.776   -578.11272    15565.715    35812.106    50222.812   -39337.772      15.2149      13.1765      28.7324    5760.2466 
  207000      206.987    283.51879    11.837201   -589.93203   -578.09483    16669.951    36614.568     56563.97   -43168.684      15.2149      13.1765      28.7324    5760.2466 
  207500      207.487    295.65874    12.344056   -590.42094   -578.07688    15122.788    38616.361     48691.26   -41939.257      15.2149      13.1765      28.7324    5760.2466 
  208000      207.987    277.60416    11.590259   -589.64823   -578.05797    16720.692    39355.762    53314.451   -42508.138      15.2149      13.1765      28.7324    5760.2466 
  208500      208.487    283.83674    11.850475   -589.89095   -578.04048    14266.194    36354.598    48557.673    -42113.69      15.2149      13.1765      28.7324    5760.2466 
  209000      208.987    265.72288    11.094203   -589.11578   -578.02158    15375.383    37872.598    50050.533   -41796.984      15.2149      13.1765      28.7324    5760.2466 
  209500      209.487    270.58332    11.297132   -589.30126   -578.00413    13843.254     35553.28    52618.102   -46641.621      15.2149      13.1765      28.7324    5760.2466 
  210000      209.987     287.3415    11.996803   -589.98259   -577.98578    16447.514    36288.541    49971.422   -36917.422      15.2149      13.1765      28.7324    5760.2466 
  210500      210.487    286.83258    11.975555   -589.94323   -577.96767     15142.96    36749.746    48003.165   -39324.029      15.2149      13.1765      28.7324    5760.2466 
  211000      210.987    268.36494    11.204512   -589.15451      -577.95    14670.769     35328.99    50881.193   -42197.877      15.2149      13.1765      28.7324    5760.2466 
  211500      211.487    280.51535    11.711804   -589.64355   -577.93175    15401.946    36121.339    55529.366   -45444.866      15.2149      13.1765      28.7324    5760.2466 
  212000      211.987    281.99765    11.773692   -589.68756   -577.91387    16928.003    37374.304    50261.896   -36852.192      15.2149      13.1765      28.7324    5760.2466 
[...]
  948500      948.487    371.19374     15.49772   -585.59098   -570.09326    17937.474    41917.104    52765.072   -40869.753      15.2149      13.1765      28.7324    5760.2466 
  949000      948.987    369.85881    15.441985    -585.5351   -570.09311    16953.051    40066.962    55857.847   -45065.655      15.2149      13.1765      28.7324    5760.2466 
  949500      949.487    390.49665    16.303636   -586.39837   -570.09473    17291.786     42478.07    52541.982   -43144.694      15.2149      13.1765      28.7324    5760.2466 
  950000      949.987    356.39293    14.879771   -584.97104   -570.09127    16470.523    37862.032    53005.641   -41456.104      15.2149      13.1765      28.7324    5760.2466 
  950500      950.487    350.76594    14.644838   -584.73582   -570.09098    17926.227     43369.12     51196.86     -40787.3      15.2149      13.1765      28.7324    5760.2466 
  951000      950.987    371.78005    15.522199   -585.61347   -570.09127    17092.616    41745.456     54007.17   -44474.777      15.2149      13.1765      28.7324    5760.2466 
  951500      951.487    379.78601    15.856456   -585.94551   -570.08906    18187.259    41211.646    50240.937   -36890.805      15.2149      13.1765      28.7324    5760.2466 
  952000      951.987    384.00233    16.032492    -586.1208   -570.08831    17244.261    39128.186    55207.699     -42603.1      15.2149      13.1765      28.7324    5760.2466 
  952500      952.487    401.83716    16.777114   -586.86556   -570.08845    16806.111    40209.154    54304.458    -44095.28      15.2149      13.1765      28.7324    5760.2466 
  953000      952.987    368.68469    15.392964    -585.4796   -570.08663    16897.783    37674.172    53499.169   -40479.993      15.2149      13.1765      28.7324    5760.2466 
  953500      953.487    348.05486    14.531648   -584.61676   -570.08512    18336.831    42454.774    54860.334   -42304.614      15.2149      13.1765      28.7324    5760.2466 
  954000      953.987      362.225    15.123266   -585.20858   -570.08532     18387.87    40075.297    53223.961   -38135.649      15.2149      13.1765      28.7324    5760.2466 
  954500      954.487    392.28521     16.37831   -586.46362   -570.08531     16907.93    40999.956    52800.734   -43076.899      15.2149      13.1765      28.7324    5760.2466 
  955000      954.987    368.04917    15.366431   -585.45056   -570.08413    15357.863    39078.809    45713.583   -38718.802      15.2149      13.1765      28.7324    5760.2466 
  955500      955.487    362.81243    15.147792   -585.23026   -570.08247    17989.307    43097.973    52937.211   -42067.264      15.2149      13.1765      28.7324    5760.2466 
  956000      955.987    363.01345    15.156184   -585.23744   -570.08126    18809.537    40325.417    56898.039   -40794.845      15.2149      13.1765      28.7324    5760.2466 
  956500      956.487    368.56369    15.387913   -585.46866   -570.08075    16859.452    38013.574    52468.625   -39903.843      15.2149      13.1765      28.7324    5760.2466 
  957000      956.987    361.93412    15.111121   -585.19056   -570.07943    17272.389    37512.684    51828.107   -37523.624      15.2149      13.1765      28.7324    5760.2466 
  957500      957.487    370.14144    15.453785   -585.53182   -570.07803    16976.039    40928.239     51930.65    -41930.77      15.2149      13.1765      28.7324    5760.2466 
  958000      957.987    392.31097    16.379386    -586.4574   -570.07801    17370.563    39163.894    54232.589   -41284.794      15.2149      13.1765      28.7324    5760.2466 
  958500      958.487    374.54332    15.637568   -585.71397   -570.07641    17754.937    41263.304    49676.934   -37675.428      15.2149      13.1765      28.7324    5760.2466 
  959000      958.987    364.51997    15.219083   -585.29305   -570.07396    16504.108     37698.52    53204.436    -41390.63      15.2149      13.1765      28.7324    5760.2466 
  959500      959.487    377.11174    15.744802   -585.81732   -570.07252    18569.383    42650.139    49228.897   -36170.887      15.2149      13.1765      28.7324    5760.2466 
  960000      959.987    381.39102    15.923467     -585.995   -570.07153    17145.172    39068.134    51103.291   -38735.909      15.2149      13.1765      28.7324    5760.2466 
  960500      960.487    374.33466    15.628856   -585.69846   -570.06961    15852.909    38613.172    51333.482   -42387.929      15.2149      13.1765      28.7324    5760.2466 
  961000      960.987    380.17861    15.872847   -585.94253   -570.06968    15158.434    35935.423    54521.289    -44981.41      15.2149      13.1765      28.7324    5760.2466 
  961500      961.487    371.59163    15.514332    -585.5819   -570.06757    17260.518    36418.671     48024.77   -32661.888      15.2149      13.1765      28.7324    5760.2466 
  962000      961.987    369.36277    15.421275   -585.48756   -570.06629    16986.237    37299.041    50213.874   -36554.205      15.2149      13.1765      28.7324    5760.2466 
  962500      962.487    363.91487    15.193819   -585.25889   -570.06508    17494.813    41412.186    50351.363   -39279.109      15.2149      13.1765      28.7324    5760.2466 
  963000      962.987    361.55372    15.095239   -585.15821   -570.06297    16485.537    42400.062    53654.283   -46597.734      15.2149      13.1765      28.7324    5760.2466 
  963500      963.487    398.64626    16.643891   -586.70689     -570.063    18732.961    39563.849    55847.996   -39212.963      15.2149      13.1765      28.7324    5760.2466 
  964000      963.987    361.66925    15.100063   -585.15952   -570.05946    15862.826    37653.476    53043.065   -43108.063      15.2149      13.1765      28.7324    5760.2466 
  964500      964.487    364.33405    15.211321   -585.26943   -570.05811    17681.101    38298.405    52395.114   -37650.215      15.2149      13.1765      28.7324    5760.2466 
  965000      964.987    374.36817    15.630256   -585.68778   -570.05753    17225.093     38756.69    53863.629    -40945.04      15.2149      13.1765      28.7324    5760.2466 
  965500      965.487    385.09458    16.078094   -586.13481   -570.05671    17275.995     39872.12    53148.066   -41192.203      15.2149      13.1765      28.7324    5760.2466 
  966000      965.987    367.11905    15.327597   -585.38051   -570.05292    17596.759    42410.095    53403.307   -43023.124      15.2149      13.1765      28.7324    5760.2466 
  966500      966.487    340.48637    14.215656   -584.26586   -570.05021    17258.812    38512.744    54467.329   -41203.637      15.2149      13.1765      28.7324    5760.2466 
  967000      966.987    366.69227    15.309779   -585.35844   -570.04866     18831.16    41938.569    55188.025   -40633.113      15.2149      13.1765      28.7324    5760.2466 
  967500      967.487    385.40032    16.090859    -586.1387   -570.04784    15885.705    38233.448    51707.487   -42283.821      15.2149      13.1765      28.7324    5760.2466 
  968000      967.987    397.19246    16.583193   -586.62959    -570.0464    15857.752    41350.257     45342.53    -39119.53      15.2149      13.1765      28.7324    5760.2466 
  968500      968.487    369.19869    15.414424   -585.45817   -570.04374    17636.735     42384.59     48167.34   -37641.726      15.2149      13.1765      28.7324    5760.2466 
  969000      968.987    382.81474    15.982909   -586.02403   -570.04112    17816.516    42216.845    48256.426   -37023.722      15.2149      13.1765      28.7324    5760.2466 
  969500      969.487    366.07935    15.284189   -585.32348    -570.0393    16185.664    38461.438    51955.668   -41860.114      15.2149      13.1765      28.7324    5760.2466 
  970000      969.987    378.21941    15.791049   -585.82972   -570.03868    15488.085    40372.943     48517.72   -42426.409      15.2149      13.1765      28.7324    5760.2466 
  970500      970.487    377.21048    15.748925   -585.78632   -570.03739    15890.674    39494.988    51630.786   -43453.753      15.2149      13.1765      28.7324    5760.2466 
  971000      970.987    352.53368    14.718643   -584.75131   -570.03267    17372.018    38725.893    50568.659   -37178.499      15.2149      13.1765      28.7324    5760.2466 
  971500      971.487    372.11926    15.536361   -585.56706    -570.0307    15843.956    39818.434    55338.743   -47625.309      15.2149      13.1765      28.7324    5760.2466 
  972000      971.987    364.61384    15.223002   -585.25149   -570.02849    17861.599    43403.046    60252.867   -50071.116      15.2149      13.1765      28.7324    5760.2466 
  972500      972.487    352.92948    14.735168   -584.76037    -570.0252    18439.009    38625.673    55963.028   -39271.675      15.2149      13.1765      28.7324    5760.2466 
  973000      972.987    364.49916    15.218214   -585.24073   -570.02252    15914.726    40935.787    52613.761    -45805.37      15.2149      13.1765      28.7324    5760.2466 
  973500      973.487    378.19101    15.789863   -585.81253   -570.02267    17820.133    38999.275    52937.572   -38476.449      15.2149      13.1765      28.7324    5760.2466 
  974000      973.987    370.09254    15.451744   -585.47034   -570.01859    17755.756    39202.766    51681.515   -37617.012      15.2149      13.1765      28.7324    5760.2466 
  974500      974.487    375.17112     15.66378   -585.67891   -570.01513    16823.837    41216.084    54132.733   -44877.307      15.2149      13.1765      28.7324    5760.2466 
  975000      974.987    396.21225    16.542268   -586.55688   -570.01461    16425.746    40104.656    51196.391   -42023.809      15.2149      13.1765      28.7324    5760.2466 
  975500      975.487    375.00598    15.656885   -585.66768    -570.0108    15516.536    35679.304    48205.047   -37334.741      15.2149      13.1765      28.7324    5760.2466 
  976000      975.987    369.83223    15.440875   -585.44798    -570.0071    17453.839    40270.546    50650.385   -38559.415      15.2149      13.1765      28.7324    5760.2466 
  976500      976.487    368.92017    15.402796   -585.40692   -570.00413    17087.215    39826.907    49910.338   -38475.598      15.2149      13.1765      28.7324    5760.2466 
  977000      976.987    373.71566    15.603013   -585.60535   -570.00234    17786.822    40380.265    50808.537   -37828.337      15.2149      13.1765      28.7324    5760.2466 
  977500      977.487     397.3852     16.59124   -586.59147   -570.00023    18133.088    37764.683     49353.27   -32718.689      15.2149      13.1765      28.7324    5760.2466 
  978000      977.987    384.77928     16.06493    -586.0614   -569.99646    17854.334    38061.739    53342.222   -37840.961      15.2149      13.1765      28.7324    5760.2466 
  978500      978.487    360.54623    15.053175   -585.04472   -569.99154    19485.153    41237.933    53691.651   -36474.125      15.2149      13.1765      28.7324    5760.2466 
  979000      978.987    374.42577     15.63266   -585.62183   -569.98917     17232.84    38740.069    48544.605   -35586.153      15.2149      13.1765      28.7324    5760.2466 
  979500      979.487    384.41668    16.049791   -586.03549    -569.9857    16063.811     43995.54    51561.973   -47366.082      15.2149      13.1765      28.7324    5760.2466 
  980000      979.987    344.18081    14.369902   -584.35243   -569.98253    15583.173    38103.288    53714.446   -45068.216      15.2149      13.1765      28.7324    5760.2466 
  980500      980.487    352.80803    14.730098   -584.71091   -569.98081    18063.523    43169.208    52929.826   -41908.464      15.2149      13.1765      28.7324    5760.2466 
  981000      980.987     380.9338    15.904377   -585.88178    -569.9774    16983.437    39964.986    52752.297   -41766.972      15.2149      13.1765      28.7324    5760.2466 
  981500      981.487    388.69738    16.228515    -586.2031   -569.97459    15039.853    36470.864    45693.317   -37044.622      15.2149      13.1765      28.7324    5760.2466 
  982000      981.987    360.55454    15.053522   -585.02516   -569.97163    16333.885    41601.898    48222.641   -40822.883      15.2149      13.1765      28.7324    5760.2466 
  982500      982.487    385.15658    16.080683   -586.04881   -569.96813    19386.997     43126.55    49230.809   -34196.367      15.2149      13.1765      28.7324    5760.2466 
  983000      982.987    385.16429    16.081004    -586.0445    -569.9635    19349.637    40994.879    57122.604    -40068.57      15.2149      13.1765      28.7324    5760.2466 
  983500      983.487     363.2174    15.164699   -585.12576   -569.96106    16267.377    38484.575    49412.753   -39095.198      15.2149      13.1765      28.7324    5760.2466 
  984000      983.987    391.02823     16.32583    -586.2827   -569.95687    17452.563    41179.522    51872.389   -40694.221      15.2149      13.1765      28.7324    5760.2466 
  984500      984.487    364.01783    15.198118    -585.1504   -569.95228    17785.485    42885.824        56044    -45573.37      15.2149      13.1765      28.7324    5760.2466 
  985000      984.987    355.24666    14.831913   -584.78153   -569.94962    17241.282    39587.681    50240.117   -38103.954      15.2149      13.1765      28.7324    5760.2466 
  985500      985.487    376.60231    15.723533   -585.67045   -569.94692    16983.689    37719.058    55346.905   -42114.897      15.2149      13.1765      28.7324    5760.2466 
  986000      985.987    380.45616    15.884435   -585.82857   -569.94414    16217.509    36829.656    52273.517   -40450.646      15.2149      13.1765      28.7324    5760.2466 
  986500      986.487    361.58939    15.096728    -585.0358   -569.93907    16528.193    40719.589    53451.003   -44586.014      15.2149      13.1765      28.7324    5760.2466 
  987000      986.987    374.20608    15.623488   -585.55976   -569.93627    17743.148    41132.741    57068.236   -44971.534      15.2149      13.1765      28.7324    5760.2466 
  987500      987.487    393.31821    16.421439   -586.35475   -569.93332    17489.103    40469.624    51658.496   -39660.811      15.2149      13.1765      28.7324    5760.2466 
  988000      987.987     378.4517    15.800747   -585.73066   -569.92991     17559.45      41601.9    55117.308   -44040.859      15.2149      13.1765      28.7324    5760.2466 
  988500      988.487    382.76554    15.980854   -585.90688   -569.92602    15424.768    39354.145    49997.167   -43077.008      15.2149      13.1765      28.7324    5760.2466 
  989000      988.987    370.90659    15.485731    -585.4064   -569.92067    17915.768    42133.377    49189.602   -37575.676      15.2149      13.1765      28.7324    5760.2466 
  989500      989.487    373.05341    15.575363   -585.49303   -569.91767    17937.582    42573.918    52290.203   -41051.374      15.2149      13.1765      28.7324    5760.2466 
  990000      989.987    400.25144    16.710909   -586.62469   -569.91378    16786.453    36028.892    55248.516   -40918.049      15.2149      13.1765      28.7324    5760.2466 
  990500      990.487    366.71804    15.310855   -585.22027   -569.90942    16766.192    42328.084    52212.089   -44241.595      15.2149      13.1765      28.7324    5760.2466 
  991000      990.987    381.40833    15.924189   -585.82901   -569.90482    15977.208     35466.18    55917.771   -43452.328      15.2149      13.1765      28.7324    5760.2466 
  991500      991.487    386.34717    16.130391   -586.03219    -569.9018    17719.195    45677.291    53264.895   -45784.599      15.2149      13.1765      28.7324    5760.2466 
  992000      991.987    357.72238    14.935277   -584.83218    -569.8969    16970.759    34724.857    58795.029   -42607.608      15.2149      13.1765      28.7324    5760.2466 
  992500      992.487    386.51643    16.137458   -586.03146     -569.894    17840.541    39412.171    54927.389   -40817.938      15.2149      13.1765      28.7324    5760.2466 
  993000      992.987    386.34541    16.130318   -586.01943   -569.88911    16754.984    40954.269     46300.79   -36990.108      15.2149      13.1765      28.7324    5760.2466 
  993500      993.487    368.79313    15.397492   -585.28402   -569.88652    16918.533    42169.026    46458.744   -37872.171      15.2149      13.1765      28.7324    5760.2466 
  994000      993.987    375.75914     15.68833   -585.57124   -569.88291     17335.77    40481.139    47667.354   -36141.182      15.2149      13.1765      28.7324    5760.2466 
  994500      994.487    358.82385    14.981264   -584.85925   -569.87799    17467.164    39945.685     48609.17   -36153.362      15.2149      13.1765      28.7324    5760.2466 
  995000      994.987    374.05539    15.617196    -585.4908    -569.8736    15746.142    35812.368    48384.337   -36958.278      15.2149      13.1765      28.7324    5760.2466 
  995500      995.487    376.36745    15.713728   -585.58421   -569.87048    16589.555    38004.081    51329.077   -39564.493      15.2149      13.1765      28.7324    5760.2466 
  996000      995.987    369.79322    15.439247   -585.30578   -569.86653    17207.418    41151.554    50074.446   -39603.745      15.2149      13.1765      28.7324    5760.2466 
  996500      996.487    343.97635    14.361366   -584.22174   -569.86037    16904.315    43297.519    48678.344   -41262.918      15.2149      13.1765      28.7324    5760.2466 
  997000      996.987    354.46867    14.799431   -584.65677   -569.85734    16106.913    39332.353     52449.88   -43461.494      15.2149      13.1765      28.7324    5760.2466 
  997500      997.487    368.51108    15.385716   -585.23888   -569.85316    17484.116    39842.467    49653.321    -37043.44      15.2149      13.1765      28.7324    5760.2466 
  998000      997.987    371.20396    15.498147    -585.3454   -569.84725    15383.271     41147.12     49425.88   -44423.186      15.2149      13.1765      28.7324    5760.2466 
  998500      998.487    378.65036    15.809041   -585.65117   -569.84213     18932.62    42304.812    53252.191   -38759.143      15.2149      13.1765      28.7324    5760.2466 
  999000      998.987    345.44164    14.422543   -584.26051   -569.83796    15674.634    39128.523    54963.516   -47068.137      15.2149      13.1765      28.7324    5760.2466 
  999500      999.487    381.08975    15.910889    -585.7451   -569.83421    16605.545    43033.395    51094.969   -44311.729      15.2149      13.1765      28.7324    5760.2466 
 1000000      999.987    382.88603    15.985885   -585.81483   -569.82894    15241.329    43645.446    43212.395   -41133.852      15.2149      13.1765      28.7324    5760.2466 
 1000013         1000    394.52378    16.471773   -586.30159   -569.82981    15788.693    42435.425    47833.832   -42903.179      15.2149      13.1765      28.7324    5760.2466 
Loop time of 925.188 on 28 procs for 1000000 steps with 324 atoms

Performance: 93.386 ns/day, 0.257 hours/ns, 1080.862 timesteps/s
88.5% CPU use with 28 MPI tasks x no OpenMP threads

MPI task timing breakdown:
Section |  min time  |  avg time  |  max time  |%varavg| %total
---------------------------------------------------------------
Pair    | 747.72     | 798.2      | 859.73     |  98.5 | 86.27
Neigh   | 0          | 0          | 0          |   0.0 |  0.00
Comm    | 52.983     | 113.88     | 163.49     | 262.1 | 12.31
Output  | 0.099053   | 0.1014     | 0.12037    |   1.2 |  0.01
Modify  | 4.4348     | 7.8559     | 15.647     | 118.4 |  0.85
Other   |            | 5.143      |            |       |  0.56

Nlocal:    11.5714 ave 16 max 7 min
Histogram: 2 3 3 1 4 5 2 2 5 1
Nghost:    661.321 ave 719 max 620 min
Histogram: 10 2 0 2 6 0 0 0 2 6
Neighs:    725.75 ave 1051 max 427 min
Histogram: 2 5 1 1 5 4 2 4 3 1
FullNghs:  1451.5 ave 2049 max 886 min
Histogram: 2 3 3 1 4 5 2 2 5 1

Total # of neighbors = 40642
Ave neighs/atom = 125.438
Neighbor list builds = 0
Dangerous builds = 0

write_restart   POSCAR_1x1x1.rest

#unfix    1
#undump   1
Total wall time: 0:15:25
