LAMMPS (7 Dec 2015)
#----------- Initialize Simulation ------------ restart01
#processors	2 2 2
units		metal
boundary	p p p     ## periodic boundary condition  on x y z axis ##
atom_style atomic
#atom_modify map array sort 0 0.0

read_data	POSCAR_1x1x1.lammps
  triclinic box = (0 0 0) to (15.2149 13.1765 28.7324) with tilt (-7.60743 0 0)
  2 by 2 by 7 MPI processor grid
  reading atoms ...
  324 atoms

#----------- Define Potential -----------------
pair_style meam
pair_coeff * * MgAlZn.library.meam Mg Al Zn MgAlZn.parameter.meam Mg Al Zn 	#1=Mg 2=Al 3=Zn	#atoms/mass

#----------- Neighbor List --------------------
neighbor 2.0 bin
neigh_modify delay 10 check yes

#--------------  Run a simulation (minimization) ---------------------------------------
minimize       1.0e-4   1.0e-6   100   1000          #結構優化的條件
WARNING: Resetting reneighboring criteria during minimization (../min.cpp:168)
Neighbor list info ...
  2 neighbor list requests
  update every 1 steps, delay 0 steps, check yes
  max neighbors/atom: 2000, page size: 100000
  master list distance cutoff = 8
  ghost atom cutoff = 8
  binsize = 4 -> bins = 6 4 8
Memory usage per processor = 8.65004 Mbytes
Step Temp E_pair E_mol TotEng Press 
       0            0   -648.40688            0   -648.40688    18839.751 
      16            0   -664.51332            0   -664.51332    18857.252 
Loop time of 0.0300333 on 28 procs for 16 steps with 324 atoms

83.7% CPU use with 28 MPI tasks x no OpenMP threads

Minimization stats:
  Stopping criterion = energy tolerance
  Energy initial, next-to-last, final = 
        -648.406875321     -664.456952395     -664.513318477
  Force two-norm initial, final = 22.1735 1.52727
  Force max component initial, final = 2.59874 0.65096
  Final line search alpha, max atom move = 0.113892 0.0741391
  Iterations, force evaluations = 16 31

MPI task timing breakdown:
Section |  min time  |  avg time  |  max time  |%varavg| %total
---------------------------------------------------------------
Pair    | 0.022998   | 0.025269   | 0.027273   |   0.7 | 84.14
Neigh   | 0          | 0          | 0          |   0.0 |  0.00
Comm    | 0.0018695  | 0.003758   | 0.0060285  |   1.9 | 12.51
Output  | 0          | 0          | 0          |   0.0 |  0.00
Modify  | 0          | 0          | 0          |   0.0 |  0.00
Other   |            | 0.001006   |            |       |  3.35

Nlocal:    11.5714 ave 15 max 7 min
Histogram: 4 4 0 0 0 0 7 6 3 4
Nghost:    647.179 ave 706 max 605 min
Histogram: 5 6 3 2 1 1 1 4 3 2
Neighs:    722.643 ave 989 max 421 min
Histogram: 4 4 0 0 1 4 6 4 2 3
FullNghs:  1445.29 ave 1904 max 872 min
Histogram: 4 4 0 0 0 4 4 5 3 4

Total # of neighbors = 40468
Ave neighs/atom = 124.901
Neighbor list builds = 0
Dangerous builds = 0
velocity all  create 393.0 4928459 #rot yes dist gaussian

#--------------  Run a simulation (Relaxation)  ----------------------------------------
fix  1  all  nvt   temp  393.0  393.0  100				#damping constant
#fix  2  all  npt   temp  393.0  393.0  50 iso 0.0 0.0 1000.0
#fix  2  all deform 1 x final 0 15.6906 y final 0 13.5884 z final 0 25.2339 xy final -7.8452 units lattice
#fix  3  all  npt   temp  393.0  393.0  50 z 0.0 0.0 1000.0

#variable b equal 1
#fix 2 all efield  0.0  0.0  v_b
#compute pot all pe/atom


#----------- Output --------------------------
thermo	 500
timestep  0.001		#1.0 fs
thermo_style	custom step time temp ke pe etotal press pxx pyy pzz lx ly lz vol

dump 1 all custom 10000 dump.eq id type x y z
dump_modify 1 sort  id

run        1000000	#10000	 ps
Neighbor list info ...
  2 neighbor list requests
  update every 1 steps, delay 10 steps, check yes
  max neighbors/atom: 2000, page size: 100000
  master list distance cutoff = 8
  ghost atom cutoff = 8
  binsize = 4 -> bins = 6 4 8
Memory usage per processor = 7.54051 Mbytes
Step Time Temp KinEng PotEng TotEng Press Pxx Pyy Pzz Lx Ly Lz Volume 
      16            0          393    16.408154   -664.51332   -648.10516    21899.802    40397.275    42771.595   -17469.464      15.2149      13.1765      28.7324    5760.2466 
     500        0.484    212.90863    8.8891539   -656.98833   -648.09918     22236.49    44537.683     46060.84   -23889.052      15.2149      13.1765      28.7324    5760.2466 
    1000        0.984    201.11798    8.3968822    -656.4955   -648.09862    20631.301    46136.971    47231.703   -31474.769      15.2149      13.1765      28.7324    5760.2466 
    1500        1.484    210.27451    8.7791768    -656.8777   -648.09853    20166.706    44920.249    45466.429   -29886.559      15.2149      13.1765      28.7324    5760.2466 
    2000        1.984    210.99272    8.8091627   -656.90696    -648.0978    20965.019    45675.132    44686.697   -27466.771      15.2149      13.1765      28.7324    5760.2466 
    2500        2.484    219.57795     9.167605   -657.26528   -648.09768    22726.845    42820.568    46306.821   -20946.854      15.2149      13.1765      28.7324    5760.2466 
    3000        2.984     204.8366    8.5521386   -656.64814     -648.096    21178.744     44305.36    46181.362    -26950.49      15.2149      13.1765      28.7324    5760.2466 
    3500        3.484    214.84613    8.9700467   -657.06468   -648.09463    21950.856    43028.813     46028.94   -23205.185      15.2149      13.1765      28.7324    5760.2466 
    4000        3.984    206.35239    8.6154241   -656.70806   -648.09264    20994.374    45443.405    45512.202   -27972.485      15.2149      13.1765      28.7324    5760.2466 
    4500        4.484    205.42753    8.5768105   -656.66829   -648.09148    21782.002    45271.353    46721.787   -26647.134      15.2149      13.1765      28.7324    5760.2466 
    5000        4.984    207.67231    8.6705322   -656.76004   -648.08951    21600.185    44184.186    43598.818    -22982.45      15.2149      13.1765      28.7324    5760.2466 
    5500        5.484    205.25436    8.5695805   -656.65644   -648.08686    20629.482    43051.108    44612.599   -25775.261      15.2149      13.1765      28.7324    5760.2466 
    6000        5.984    214.61284    8.9603065   -657.04507   -648.08476    20883.691    43762.919    46731.495   -27843.342      15.2149      13.1765      28.7324    5760.2466 
    6500        6.484    213.14427    8.8989923   -656.98154   -648.08255    20222.409    42463.776    44541.327   -26337.876      15.2149      13.1765      28.7324    5760.2466 
    7000        6.984     207.8055     8.676093   -656.75547   -648.07938    21652.823    44728.932    44463.705   -24234.169      15.2149      13.1765      28.7324    5760.2466 
    7500        7.484    206.91759    8.6390218    -656.7156   -648.07658    21360.468    45413.486    43280.008   -24612.091      15.2149      13.1765      28.7324    5760.2466 
    8000        7.984    217.67604     9.088198   -657.16231   -648.07412    22910.633    40910.817    47382.362   -19561.281      15.2149      13.1765      28.7324    5760.2466 
    8500        8.484    211.16202    8.8162312   -656.88619   -648.06996    20253.238    43850.006    45857.677   -28947.969      15.2149      13.1765      28.7324    5760.2466 
    9000        8.984     208.2557    8.6948894   -656.76146   -648.06657    20493.527    45397.616    48551.702   -32468.736      15.2149      13.1765      28.7324    5760.2466 
    9500        9.484    211.67987    8.8378518    -656.9003   -648.06245    21992.954    43222.135     46209.28   -23452.554      15.2149      13.1765      28.7324    5760.2466 
   10000        9.984    220.86157    9.2211972   -657.27919   -648.05799    22691.104     44758.82    46740.739   -23426.247      15.2149      13.1765      28.7324    5760.2466 
   10500       10.484    213.69232    8.9218739   -656.97591   -648.05403     20772.02    44499.898    46199.019   -28382.856      15.2149      13.1765      28.7324    5760.2466 
   11000       10.984    215.04628    8.9784029   -657.02826   -648.04986    21103.827    43267.133    47435.738   -27391.389      15.2149      13.1765      28.7324    5760.2466 
   11500       11.484    222.44472    9.2872954   -657.33298   -648.04568    21310.223    41539.069    48700.989   -26309.388      15.2149      13.1765      28.7324    5760.2466 
   12000       11.984     198.4348    8.2848568   -656.32518   -648.04032    20926.184     42706.49    46483.127   -26411.064      15.2149      13.1765      28.7324    5760.2466 
   12500       12.484    213.74694    8.9241542   -656.95956   -648.03541    21461.608    42332.666    45436.845   -23384.686      15.2149      13.1765      28.7324    5760.2466 
   13000       12.984    203.54439    8.4981871   -656.52854   -648.03035    21449.888    43393.887    48646.721   -27690.943      15.2149      13.1765      28.7324    5760.2466 
   13500       13.484    216.62891    9.0444792   -657.06899   -648.02451    20358.014    42894.902    46206.685   -28027.546      15.2149      13.1765      28.7324    5760.2466 
   14000       13.984    212.41194    8.8684166   -656.88752    -648.0191    22088.121    43190.392    48773.269   -25699.298      15.2149      13.1765      28.7324    5760.2466 
   14500       14.484    220.14962    9.1914728   -657.20463   -648.01316    21075.142    41899.452    49576.847   -28250.874      15.2149      13.1765      28.7324    5760.2466 
   15000       14.984    207.08704    8.6460966   -656.65259   -648.00649    21800.176    41017.305    47810.993   -23427.771      15.2149      13.1765      28.7324    5760.2466 
   15500       15.484    208.72227    8.7143692   -656.71433   -647.99996    21112.281    44405.605    48863.359    -29932.12      15.2149      13.1765      28.7324    5760.2466 
   16000       15.984    221.09898    9.2311096   -657.22541    -647.9943    21271.043     45633.88    46084.104   -27904.856      15.2149      13.1765      28.7324    5760.2466 
   16500       16.484    214.20031     8.943083   -656.93039    -647.9873    21056.496    44636.068    47563.598   -29030.177      15.2149      13.1765      28.7324    5760.2466 
   17000       16.984    228.24375    9.5294111   -657.50953   -647.98012    19867.601    41744.193    45736.451   -27877.842      15.2149      13.1765      28.7324    5760.2466 
   17500       17.484    203.25435    8.4860779   -656.45873   -647.97265    20219.735    42489.451     47365.03   -29195.276      15.2149      13.1765      28.7324    5760.2466 
   18000       17.984    214.69929    8.9639159   -656.92903   -647.96512     22568.14     41421.06    50338.004   -24054.645      15.2149      13.1765      28.7324    5760.2466 
   18500       18.484     217.3693    9.0753914   -657.03336   -647.95797      20399.3    39566.443     48545.84   -26914.384      15.2149      13.1765      28.7324    5760.2466 
   19000       18.984    223.71738    9.3404303   -657.29135   -647.95092    21304.021    46692.041    47661.942   -30441.919      15.2149      13.1765      28.7324    5760.2466 
   19500       19.484    231.19916    9.6528023   -657.59544   -647.94264    20169.857    41208.269    47852.041   -28550.741      15.2149      13.1765      28.7324    5760.2466 
   20000       19.984    215.72625    9.0067925   -656.94077   -647.93398    21979.205     39372.83    49616.308   -23051.524      15.2149      13.1765      28.7324    5760.2466 
   20500       20.484    213.20107    8.9013636    -656.8268   -647.92544    21542.743    41316.892    49316.502   -26005.166      15.2149      13.1765      28.7324    5760.2466 
   21000       20.984    217.01378    9.0605482   -656.97759   -647.91704    21621.614    40075.807    52785.411   -27996.377      15.2149      13.1765      28.7324    5760.2466 
   21500       21.484    224.89303    9.3895149   -657.29865   -647.90913    22365.255    42407.684    48001.551   -23313.469      15.2149      13.1765      28.7324    5760.2466 
   22000       21.984    209.42687     8.743787   -656.64325   -647.89947    21420.258    45584.423    47099.915   -28423.563      15.2149      13.1765      28.7324    5760.2466 
   22500       22.484    212.20966    8.8599714   -656.74987    -647.8899    20905.117    40993.746    48534.432   -26812.828      15.2149      13.1765      28.7324    5760.2466 
   23000       22.984    238.32079    9.9501376    -657.8315   -647.88136    21379.975    42269.655    46029.823   -24159.551      15.2149      13.1765      28.7324    5760.2466 
   23500       23.484    224.98624    9.3934066   -657.26481    -647.8714    22020.417     43637.23    48760.995   -26336.972      15.2149      13.1765      28.7324    5760.2466 
   24000       23.984    226.21619    9.4447582   -657.30686    -647.8621     22876.79     42534.06    46777.669   -20681.358      15.2149      13.1765      28.7324    5760.2466 
   24500       24.484     211.9557    8.8493683   -656.70145   -647.85208    21157.275    42757.256    49768.258   -29053.688      15.2149      13.1765      28.7324    5760.2466 
   25000       24.984    223.29141    9.3226455   -657.16483   -647.84218    21029.463     40414.73     48986.65    -26312.99      15.2149      13.1765      28.7324    5760.2466 
   25500       25.484    216.26849    9.0294316   -656.86081   -647.83138    22902.862    44535.556    48527.141    -24354.11      15.2149      13.1765      28.7324    5760.2466 
   26000       25.984    220.38077    9.2011235   -657.02255   -647.82143    21087.517    43303.806    45352.439   -25393.693      15.2149      13.1765      28.7324    5760.2466 
   26500       26.484     218.0145    9.1023293   -656.91327   -647.81095    21823.428    42383.111    50108.062    -27020.89      15.2149      13.1765      28.7324    5760.2466 
   27000       26.984    231.04604    9.6464095   -657.44763   -647.80122    21903.652    42473.928    47990.921   -24753.894      15.2149      13.1765      28.7324    5760.2466 
   27500       27.484     208.1286    8.6895827   -656.47843   -647.78885    20828.329    43524.507    48835.229    -29874.75      15.2149      13.1765      28.7324    5760.2466 
   28000       27.984    223.60508    9.3357419   -657.11445   -647.77871    21871.682    43012.026    44741.703   -22138.684      15.2149      13.1765      28.7324    5760.2466 
   28500       28.484    202.52814    8.4557579   -656.22211   -647.76636    20658.372    43603.816    48596.229   -30224.929      15.2149      13.1765      28.7324    5760.2466 
   29000       28.984    223.45966    9.3296702    -657.0858   -647.75613    20439.691    41025.309    51127.835   -30834.072      15.2149      13.1765      28.7324    5760.2466 
   29500       29.484    220.50027    9.2061128   -656.95037   -647.74426    21450.008     44671.06    49769.545   -30090.581      15.2149      13.1765      28.7324    5760.2466 
   30000       29.984    227.19698    9.4857073   -657.21897   -647.73326    19840.008    43523.009    47030.039   -31033.024      15.2149      13.1765      28.7324    5760.2466 
   30500       30.484    224.05742    9.3546272   -657.07599   -647.72136    22206.499    44044.053    49531.269   -26955.824      15.2149      13.1765      28.7324    5760.2466 
   31000       30.984    214.95242    8.9744841   -656.68325   -647.70877    20546.024     43762.15    49168.355   -31292.433      15.2149      13.1765      28.7324    5760.2466 
   31500       31.484    228.92969    9.5580495   -657.25618   -647.69813    22034.749    45147.941    48622.246   -27665.939      15.2149      13.1765      28.7324    5760.2466 
   32000       31.984    213.45789     8.912086   -656.59752   -647.68544    20643.257    39600.428    48308.406   -25979.061      15.2149      13.1765      28.7324    5760.2466 
   32500       32.484    227.55567    9.5006827   -657.17465   -647.67396    22363.372    42585.418    47990.929   -23486.232      15.2149      13.1765      28.7324    5760.2466 
   33000       32.984    216.20756    9.0268877   -656.68799    -647.6611    21653.147    41261.437    47390.924   -23692.921      15.2149      13.1765      28.7324    5760.2466 
   33500       33.484    224.73723    9.3830101   -657.03191    -647.6489    22139.193    44710.117     50265.43   -28557.968      15.2149      13.1765      28.7324    5760.2466 
   34000       33.984    217.23149    9.0696377   -656.70611   -647.63647    21258.394    43994.009    45931.831   -26150.657      15.2149      13.1765      28.7324    5760.2466 
   34500       34.484     232.2454    9.6964839   -657.32058    -647.6241    22175.461    44418.692    49657.722   -27550.033      15.2149      13.1765      28.7324    5760.2466 
   35000       34.984    228.23832    9.5291841   -657.14117   -647.61198    21422.523    43725.575    43838.164   -23296.171      15.2149      13.1765      28.7324    5760.2466 
   35500       35.484    227.25309    9.4880498   -657.08662   -647.59857    21657.929    44786.335    47251.791    -27064.34      15.2149      13.1765      28.7324    5760.2466 
   36000       35.984    228.29405    9.5315111   -657.11804   -647.58653    20804.922    44047.672    49132.543   -30765.449      15.2149      13.1765      28.7324    5760.2466 
   36500       36.484    215.82863    9.0110671   -656.58408   -647.57301    21901.984    43518.325    50482.416   -28294.788      15.2149      13.1765      28.7324    5760.2466 
   37000       36.984    220.41794    9.2026755   -656.76302   -647.56034    20835.672    40044.072    45865.977   -23403.033      15.2149      13.1765      28.7324    5760.2466 
   37500       37.484    220.82558    9.2196948   -656.76718   -647.54748     20782.05    42771.638    48485.091   -28910.579      15.2149      13.1765      28.7324    5760.2466 
   38000       37.984    204.41011    8.5343322   -656.06835   -647.53401    21511.702    43431.685    52424.425   -31321.002      15.2149      13.1765      28.7324    5760.2466 
   38500       38.484    217.38898     9.076213   -656.59769   -647.52147    22289.425    43540.611    47751.029   -24423.364      15.2149      13.1765      28.7324    5760.2466 
   39000       38.984      230.958    9.6427336   -657.15156   -647.50882    21729.455    43666.821    45800.434   -24278.891      15.2149      13.1765      28.7324    5760.2466 
   39500       39.484    227.53867    9.4999732     -656.996   -647.49603    21910.441    44015.821    50451.309   -28735.805      15.2149      13.1765      28.7324    5760.2466 
   40000       39.984    222.07508    9.2718626   -656.75473   -647.48287    20146.803    42609.917    46795.738   -28965.246      15.2149      13.1765      28.7324    5760.2466 
   40500       40.484    234.47546    9.7895914   -657.26023   -647.47064    20927.528    42566.899     47350.13   -27134.446      15.2149      13.1765      28.7324    5760.2466 
   41000       40.984    214.18884    8.9426038     -656.399   -647.45639    21630.897    44012.375    48483.811   -27603.495      15.2149      13.1765      28.7324    5760.2466 
   41500       41.484    231.80005    9.6778899   -657.12225   -647.44436    21240.779    41484.944    47215.732   -24978.338      15.2149      13.1765      28.7324    5760.2466 
   42000       41.984    236.57175    9.8771133   -657.30881   -647.43169    21992.066    41876.642    49283.339   -25183.781      15.2149      13.1765      28.7324    5760.2466 
   42500       42.484    225.40521    9.4108992   -656.82921   -647.41832    23489.655    42248.664    50585.452   -22365.151      15.2149      13.1765      28.7324    5760.2466 
   43000       42.984     227.2733    9.4888935   -656.89465   -647.40576    23093.396    43670.726    49766.796   -24157.332      15.2149      13.1765      28.7324    5760.2466 
   43500       43.484    231.01666    9.6451827   -657.03746   -647.39227    22305.088    42648.415     51399.71   -27132.861      15.2149      13.1765      28.7324    5760.2466 
   44000       43.984    221.64596    9.2539464   -656.63269   -647.37875    21759.986    42154.116    48951.404   -25825.563      15.2149      13.1765      28.7324    5760.2466 
   44500       44.484     221.7752    9.2593422   -656.62462   -647.36528    22086.191    44067.536    48870.154   -26679.117      15.2149      13.1765      28.7324    5760.2466 
   45000       44.984    232.43308    9.7043197   -657.05729   -647.35297    21054.479    42583.452    50425.412   -29845.428      15.2149      13.1765      28.7324    5760.2466 
   45500       45.484    216.84673    9.0535735   -656.39408    -647.3405    21105.803    41836.658    49064.312   -27583.562      15.2149      13.1765      28.7324    5760.2466 
   46000       45.984    221.05674     9.229346   -656.55693   -647.32758     22180.27    41865.703    49878.093   -25202.986      15.2149      13.1765      28.7324    5760.2466 
   46500       46.484     237.9773    9.9357965   -657.25239   -647.31659    20696.675    39721.105    47591.083   -25222.162      15.2149      13.1765      28.7324    5760.2466 
   47000       46.984    224.76846    9.3843142   -656.68752   -647.30321    22063.064    46469.883    49054.434   -29335.125      15.2149      13.1765      28.7324    5760.2466 
   47500       47.484    220.13062    9.1906796   -656.48046   -647.28978    21258.735    42228.747    48661.813   -27114.355      15.2149      13.1765      28.7324    5760.2466 
   48000       47.984    228.97667    9.5600112   -656.83772   -647.27771     21959.74    47015.613    48001.261   -29137.653      15.2149      13.1765      28.7324    5760.2466 
   48500       48.484    221.88196    9.2637996   -656.52879   -647.26499    21399.479    41682.277    49392.403   -26876.243      15.2149      13.1765      28.7324    5760.2466 
   49000       48.984    227.02808    9.4786556   -656.73145    -647.2528    23165.488    44159.619    51832.272   -26495.427      15.2149      13.1765      28.7324    5760.2466 
   49500       49.484    222.75426    9.3002191   -656.54048   -647.24027    20597.624    43980.989    48707.848   -30895.964      15.2149      13.1765      28.7324    5760.2466 
   50000       49.984     223.8362    9.3453914   -656.57361   -647.22822    21520.993    42425.281    50069.225   -27931.528      15.2149      13.1765      28.7324    5760.2466 
   50500       50.484    223.16774    9.3174823   -656.53313   -647.21565    20439.724    42419.416    48448.286   -29548.529      15.2149      13.1765      28.7324    5760.2466 
   51000       50.984    233.28491    9.7398846   -656.94419    -647.2043    20681.868    45197.809    47984.574    -31136.78      15.2149      13.1765      28.7324    5760.2466 
   51500       51.484    224.48404    9.3724392   -656.56346   -647.19102    22962.187    43115.825    50345.959   -24575.223      15.2149      13.1765      28.7324    5760.2466 
   52000       51.984    227.70597    9.5069579   -656.68648   -647.17953    22726.237    42860.705    49550.096   -24232.089      15.2149      13.1765      28.7324    5760.2466 
   52500       52.484    236.48295    9.8734058   -657.04234   -647.16894    20495.529    41402.688    45231.233   -25147.333      15.2149      13.1765      28.7324    5760.2466 
   53000       52.984    219.97831    9.1843204   -656.34008   -647.15576    22158.753    40694.164    46865.419   -21083.324      15.2149      13.1765      28.7324    5760.2466 
   53500       53.484    220.79481    9.2184102   -656.36245   -647.14404    21821.599    43684.363    45389.572   -23609.137      15.2149      13.1765      28.7324    5760.2466 
   54000       53.984    231.50212    9.6654514   -656.79757   -647.13212    22265.298    42750.263    50540.253   -26494.621      15.2149      13.1765      28.7324    5760.2466 
   54500       54.484     239.7569    10.010097   -657.13097   -647.12087     21269.43     41286.25    48400.122    -25878.08      15.2149      13.1765      28.7324    5760.2466 
   55000       54.984    223.03601    9.3119826   -656.42138    -647.1094    20867.449    41419.609    50154.067   -28971.329      15.2149      13.1765      28.7324    5760.2466 
   55500       55.484    247.62274    10.338504   -657.43705   -647.09855    19216.405    41350.421    48631.822   -32333.027      15.2149      13.1765      28.7324    5760.2466 
   56000       55.984    224.49852    9.3730438   -656.45882   -647.08578    22476.947    44693.946    50941.846   -28204.952      15.2149      13.1765      28.7324    5760.2466 
   56500       56.484    224.98848    9.3935002   -656.46907   -647.07557    21595.495     42428.56    51098.766   -28740.842      15.2149      13.1765      28.7324    5760.2466 
   57000       56.984    226.01784    9.4364769   -656.50024   -647.06377    20861.348    42150.831    46569.337   -26136.122      15.2149      13.1765      28.7324    5760.2466 
   57500       57.484    235.53663    9.8338961   -656.88629   -647.05239    22080.104    40794.845     54370.96   -28925.493      15.2149      13.1765      28.7324    5760.2466 
   58000       57.984    235.01265    9.8120194   -656.85328   -647.04126    21235.223    39517.748    47346.324   -23158.402      15.2149      13.1765      28.7324    5760.2466 
   58500       58.484    241.99762    10.103649   -657.13389   -647.03024    22115.656    42534.668    48421.185   -24608.885      15.2149      13.1765      28.7324    5760.2466 
   59000       58.984    219.29597     9.155832   -656.17347   -647.01764     21391.75    44422.147    48351.435   -28598.332      15.2149      13.1765      28.7324    5760.2466 
   59500       59.484    235.21955    9.8206576     -656.828   -647.00734    19013.789     41803.66    45156.327   -29918.621      15.2149      13.1765      28.7324    5760.2466 
   60000       59.984    239.57309    10.002422   -656.99917   -646.99675    21549.086    43126.192    48371.805   -26850.739      15.2149      13.1765      28.7324    5760.2466 
   60500       60.484    240.71858    10.050248   -657.03645    -646.9862    22590.054    41265.264    50218.739   -23713.842      15.2149      13.1765      28.7324    5760.2466 
   61000       60.984    219.13497      9.14911   -656.12337   -646.97426    21856.499    48056.489    44113.155   -26600.148      15.2149      13.1765      28.7324    5760.2466 
   61500       61.484    218.13542    9.1073776   -656.07025   -646.96288    22742.527    44093.284    50530.731   -26396.432      15.2149      13.1765      28.7324    5760.2466 
   62000       61.984    232.46987    9.7058558   -656.65982   -646.95396    22516.307    43396.495    47947.421   -23794.993      15.2149      13.1765      28.7324    5760.2466 
   62500       62.484    234.55092    9.7927419   -656.73501   -646.94227    23213.611    43167.086    51000.817    -24527.07      15.2149      13.1765      28.7324    5760.2466 
   63000       62.984    220.07207    9.1882348   -656.11942   -646.93119    21844.091    42093.816    50152.302   -26713.844      15.2149      13.1765      28.7324    5760.2466 
   63500       63.484     230.2452    9.6129735   -656.53337   -646.92039    23211.267    42752.158    50623.949   -23742.304      15.2149      13.1765      28.7324    5760.2466 
   64000       63.984    232.74484     9.717336   -656.62675   -646.90942     22217.02    40567.562    50554.233   -24470.734      15.2149      13.1765      28.7324    5760.2466 
   64500       64.484    221.00041    9.2269939   -656.12503   -646.89804    21215.875    42031.462    46571.579   -24955.415      15.2149      13.1765      28.7324    5760.2466 
   65000       64.984    229.86448     9.597078   -656.48503   -646.88795    22152.942    43497.105    48991.321   -26029.599      15.2149      13.1765      28.7324    5760.2466 
   65500       65.484    233.52442    9.7498845   -656.62707   -646.87719     21557.91     43914.39    46724.901   -25965.561      15.2149      13.1765      28.7324    5760.2466 
   66000       65.984    229.99888    9.6026894    -656.4695   -646.86681    21304.853    43153.709    45734.969   -24974.118      15.2149      13.1765      28.7324    5760.2466 
   66500       66.484     242.6631    10.131434   -656.98811   -646.85668    23501.289    44359.496    48583.385   -22439.015      15.2149      13.1765      28.7324    5760.2466 
   67000       66.984    245.76894    10.261106   -657.10737   -646.84626     22379.14    41015.951    49178.552   -23057.084      15.2149      13.1765      28.7324    5760.2466 
   67500       67.484    213.88448    8.9298967   -655.76441   -646.83452    21412.803    40094.391     49589.57   -25445.553      15.2149      13.1765      28.7324    5760.2466 
   68000       67.984    218.55572    9.1249258   -655.94896   -646.82403    22061.727    46196.858    44725.561   -24737.237      15.2149      13.1765      28.7324    5760.2466 
   68500       68.484     226.2926    9.4479483   -656.26095     -646.813    22030.848    43692.396    51834.718   -29434.572      15.2149      13.1765      28.7324    5760.2466 
   69000       68.984    235.42064    9.8290534   -656.63184   -646.80279    19959.999    39664.867    49526.156   -29311.026      15.2149      13.1765      28.7324    5760.2466 
   69500       69.484    225.54185    9.4166039   -656.20907   -646.79247    21187.226    41698.054    48600.529   -26736.906      15.2149      13.1765      28.7324    5760.2466 
   70000       69.984    230.01218    9.6032448   -656.38518   -646.78194     21510.51     42098.74    50685.795   -28253.006      15.2149      13.1765      28.7324    5760.2466 
   70500       70.484    216.94548    9.0576968   -655.82781   -646.77011     22223.64    41122.545    49215.528   -23667.153      15.2149      13.1765      28.7324    5760.2466 
   71000       70.984    234.23146    9.7794039   -656.54075   -646.76135    21912.938    43473.033    51511.927   -29246.147      15.2149      13.1765      28.7324    5760.2466 
   71500       71.484    228.17225    9.5264258   -656.27634   -646.74991    22086.448    45553.096    49371.652   -28665.403      15.2149      13.1765      28.7324    5760.2466 
   72000       71.984    219.15534    9.1499607   -655.88835   -646.73838    19966.055    38644.331    47580.621   -26326.787      15.2149      13.1765      28.7324    5760.2466 
   72500       72.484    246.22899    10.280313   -657.01041    -646.7301    22301.251    44456.706    49806.089   -27359.042      15.2149      13.1765      28.7324    5760.2466 
   73000       72.984    241.11804    10.066926   -656.78543    -646.7185    21278.654    45001.225    47151.065   -28316.327      15.2149      13.1765      28.7324    5760.2466 
   73500       73.484    233.62197    9.7539573   -656.46084   -646.70689    21331.472    44610.439    49738.723   -30354.745      15.2149      13.1765      28.7324    5760.2466 
   74000       73.984    246.48611    10.291048   -656.98752   -646.69647    22135.034    41776.182    48478.668   -23849.746      15.2149      13.1765      28.7324    5760.2466 
   74500       74.484    245.04282    10.230789   -656.91701   -646.68622    21297.045    41904.436    45782.861   -23796.163      15.2149      13.1765      28.7324    5760.2466 
   75000       74.984    234.59287     9.794493   -656.46898   -646.67449    21987.526    42577.978    48774.432   -25389.832      15.2149      13.1765      28.7324    5760.2466 
   75500       75.484    241.58238    10.086312   -656.75047   -646.66416    23061.272    45415.181    47902.897   -24134.262      15.2149      13.1765      28.7324    5760.2466 
   76000       75.984    231.06555    9.6472239   -656.30025   -646.65303     21527.91    43265.135    51799.806   -30481.213      15.2149      13.1765      28.7324    5760.2466 
   76500       76.484    234.60532    9.7950131   -656.43677   -646.64175    22717.369    46522.818    48140.789   -26511.499      15.2149      13.1765      28.7324    5760.2466 
   77000       76.984    241.74325    10.093029   -656.72486   -646.63184    23652.048    45263.081     50038.88   -24345.818      15.2149      13.1765      28.7324    5760.2466 
   77500       77.484    238.64975    9.9638721   -656.58406   -646.62019    21745.686    42651.305    49471.969   -26886.216      15.2149      13.1765      28.7324    5760.2466 
   78000       77.984    236.85888    9.8891013   -656.49851   -646.60941    22030.353    43122.305    46994.909   -24026.154      15.2149      13.1765      28.7324    5760.2466 
   78500       78.484    227.14282    9.4834459   -656.08092   -646.59748    21763.477    42873.424     49793.28   -27376.272      15.2149      13.1765      28.7324    5760.2466 
   79000       78.984    223.47424    9.3302789   -655.91753   -646.58725    23019.682    41486.797     54466.82   -26894.572      15.2149      13.1765      28.7324    5760.2466 
   79500       79.484    237.30723    9.9078203   -656.48344   -646.57562    21914.599    42162.491    46527.405   -22946.098      15.2149      13.1765      28.7324    5760.2466 
   80000       79.984    245.96968    10.269487   -656.83499    -646.5655    20129.929    42650.637    49162.364   -31423.214      15.2149      13.1765      28.7324    5760.2466 
   80500       80.484    243.97901    10.186374   -656.74138     -646.555    20620.003    43826.475     46164.12   -28130.586      15.2149      13.1765      28.7324    5760.2466 
   81000       80.984    228.16707    9.5262097   -656.06874   -646.54253    21488.165    42699.136    49083.777   -27318.418      15.2149      13.1765      28.7324    5760.2466 
   81500       81.484    240.44751    10.038931   -656.57097   -646.53203    22543.049    45516.919    49822.874   -27710.647      15.2149      13.1765      28.7324    5760.2466 
   82000       81.984    238.70432    9.9661504   -656.48682   -646.52067     21534.99    42617.697    50055.898   -28068.626      15.2149      13.1765      28.7324    5760.2466 
   82500       82.484     237.4315    9.9130089   -656.42343   -646.51042    22428.264    44557.886    49675.326   -26948.419      15.2149      13.1765      28.7324    5760.2466 
   83000       82.984    239.19026    9.9864389   -656.48432   -646.49788    21001.598    42003.109    47473.611   -26471.925      15.2149      13.1765      28.7324    5760.2466 
   83500       83.484    236.03997     9.854911   -656.34121    -646.4863    20836.494    42370.113    50045.776   -29906.408      15.2149      13.1765      28.7324    5760.2466 
   84000       83.984     231.5735    9.6684314   -656.14311   -646.47468    22328.051    47712.025    46794.218   -27522.089      15.2149      13.1765      28.7324    5760.2466 
   84500       84.484    229.26101    9.5718827   -656.03477   -646.46289    20796.616    42609.118    44413.191   -24632.462      15.2149      13.1765      28.7324    5760.2466 
   85000       84.984    235.82802    9.8460621   -656.29837    -646.4523    21646.376    41053.613    48881.591   -24996.077      15.2149      13.1765      28.7324    5760.2466 
   85500       85.484    227.54912    9.5004095   -655.94068   -646.44027    22981.158    43762.419    50855.764   -25674.711      15.2149      13.1765      28.7324    5760.2466 
   86000       85.984    231.29263     9.656705   -656.08546   -646.42876    22444.541    42246.567    49424.104   -24337.047      15.2149      13.1765      28.7324    5760.2466 
   86500       86.484     236.2224    9.8625277   -656.28002   -646.41749    20880.372    43077.878    49908.065   -30344.828      15.2149      13.1765      28.7324    5760.2466 
   87000       86.984    235.80055    9.8449151   -656.25081   -646.40589    21877.148    41924.261    49803.491   -26096.308      15.2149      13.1765      28.7324    5760.2466 
   87500       87.484    236.74159    9.8842045   -656.27753   -646.39333    20708.293    40676.583    48442.971   -26994.676      15.2149      13.1765      28.7324    5760.2466 
   88000       87.984    234.18496    9.7774624   -656.15902   -646.38156    21681.671    42818.479    50574.283    -28347.75      15.2149      13.1765      28.7324    5760.2466 
   88500       88.484    232.21327    9.6951424   -656.06483   -646.36969     20610.01    37810.466    49522.737   -25503.172      15.2149      13.1765      28.7324    5760.2466 
   89000       88.984    240.03536    10.021723   -656.38014   -646.35842    22152.911    45559.713    50722.259   -29823.239      15.2149      13.1765      28.7324    5760.2466 
   89500       89.484    245.79692    10.262274   -656.60828   -646.34601     21171.29    43175.148    46305.383   -25966.662      15.2149      13.1765      28.7324    5760.2466 
   90000       89.984    224.05758    9.3546342   -655.68752   -646.33288    21942.165    42991.077    45207.163   -22371.745      15.2149      13.1765      28.7324    5760.2466 
   90500       90.484    241.85975    10.097893   -656.41987   -646.32198    23119.533    45133.349    48474.867   -24249.616      15.2149      13.1765      28.7324    5760.2466 
   91000       90.984    237.51966    9.9166895   -656.22646   -646.30977    21192.448    45860.376    48058.361   -30341.393      15.2149      13.1765      28.7324    5760.2466 
   91500       91.484    233.23634    9.7378567   -656.03576    -646.2979    22436.596    39007.329    49257.549    -20955.09      15.2149      13.1765      28.7324    5760.2466 
   92000       91.984    246.13879    10.276547   -656.56181   -646.28527    21418.383    43681.449    45932.857   -25359.158      15.2149      13.1765      28.7324    5760.2466 
   92500       92.484     226.9054    9.4735334   -655.74672   -646.27318    21079.421    44477.754    48271.897   -29511.388      15.2149      13.1765      28.7324    5760.2466 
   93000       92.984    252.60177    10.546383   -656.80719   -646.26081    22475.913    45855.254    49468.587   -27896.103      15.2149      13.1765      28.7324    5760.2466 
   93500       93.484    250.40877    10.454823   -656.70323   -646.24841    21367.161    45523.485    49291.778   -30713.779      15.2149      13.1765      28.7324    5760.2466 
   94000       93.984    241.01021    10.062424   -656.29788   -646.23546    20202.595     42053.87    50221.148   -31667.234      15.2149      13.1765      28.7324    5760.2466 
   94500       94.484    223.60587    9.3357749   -655.55786   -646.22209    23852.876    46416.053    50396.082   -25253.505      15.2149      13.1765      28.7324    5760.2466 
   95000       94.984    242.08721     10.10739   -656.31736   -646.20997    21140.745    42459.501    51084.551   -30121.817      15.2149      13.1765      28.7324    5760.2466 
   95500       95.484    250.56696    10.461428    -656.6586   -646.19717    20301.816    41791.622    48417.812   -29303.984      15.2149      13.1765      28.7324    5760.2466 
   96000       95.984    246.83218    10.305497   -656.49039    -646.1849    22713.026    43638.338    49742.773   -25242.031      15.2149      13.1765      28.7324    5760.2466 
   96500       96.484    257.45428     10.74898    -656.9209   -646.17192    20651.819    43956.422    46410.967   -28411.934      15.2149      13.1765      28.7324    5760.2466 
   97000       96.984    249.55971    10.419374   -656.57773   -646.15835    22235.489    41783.465    50720.121   -25797.118      15.2149      13.1765      28.7324    5760.2466 
   97500       97.484    244.94005    10.226498   -656.37195   -646.14546    21765.269    43645.044    50647.114   -28996.352      15.2149      13.1765      28.7324    5760.2466 
   98000       97.984     234.4414    9.7881694   -655.91998   -646.13181    21852.727    44795.403    48573.838   -27811.062      15.2149      13.1765      28.7324    5760.2466 
   98500       98.484    240.29554    10.032585   -656.15264   -646.12006     20554.95    42547.456     47949.13   -28831.736      15.2149      13.1765      28.7324    5760.2466 
   99000       98.984    244.02432    10.188266   -656.29408   -646.10581    22805.554    44642.874    50049.951   -26276.162      15.2149      13.1765      28.7324    5760.2466 
   99500       99.484    230.72565    9.6330329   -655.72436   -646.09133    20555.579    41344.187    49119.063   -28796.513      15.2149      13.1765      28.7324    5760.2466 
  100000       99.984    232.70936    9.7158546   -655.79525   -646.07939    21731.697    42239.801    47226.723   -24271.432      15.2149      13.1765      28.7324    5760.2466 
  100500      100.484    244.69692    10.216348   -656.28164   -646.06529    20444.389    41360.106    48555.146   -28582.084      15.2149      13.1765      28.7324    5760.2466 
  101000      100.984    242.47989    10.123784   -656.17658   -646.05279     22487.25    44654.052    47487.125   -24679.426      15.2149      13.1765      28.7324    5760.2466 
  101500      101.484    238.30688    9.9495568   -655.98843   -646.03888    22083.789    44254.607     47048.53    -25051.77      15.2149      13.1765      28.7324    5760.2466 
  102000      101.984    240.60997    10.045713   -656.07076   -646.02505    22028.776      45111.6    46299.296   -25324.568      15.2149      13.1765      28.7324    5760.2466 
  102500      102.484    238.79788    9.9700568   -655.98175   -646.01169    21391.684     42743.65    46064.271    -24632.87      15.2149      13.1765      28.7324    5760.2466 
  103000      102.984    242.07432    10.106852   -656.10485     -645.998    21366.187    43504.695     48714.76   -28120.893      15.2149      13.1765      28.7324    5760.2466 
  103500      103.484    236.42559    9.8710112   -655.85463   -645.98362    22051.677    44648.278    50987.116   -29480.363      15.2149      13.1765      28.7324    5760.2466 
  104000      103.984    240.25983    10.031095   -656.00164   -645.97055    21871.608    43080.292    50454.668   -27920.136      15.2149      13.1765      28.7324    5760.2466 
  104500      104.484    238.54957    9.9596895   -655.91657   -645.95688    20899.456    38355.507    48088.698   -23745.838      15.2149      13.1765      28.7324    5760.2466 
  105000      104.984    247.79869     10.34585   -656.28944   -645.94359    21915.045    43220.989    47138.753   -24614.607      15.2149      13.1765      28.7324    5760.2466 
  105500      105.484    235.62486    9.8375799   -655.76678    -645.9292    22075.804    39626.498    50772.999   -24172.085      15.2149      13.1765      28.7324    5760.2466 
  106000      105.984    234.92732    9.8084568   -655.72365   -645.91519     21147.86    43143.071    51821.393   -31520.883      15.2149      13.1765      28.7324    5760.2466 
  106500      106.484     268.4399    11.207641   -657.11028   -645.90264    21649.529     41455.54     51795.75   -28302.704      15.2149      13.1765      28.7324    5760.2466 
  107000      106.984     260.1018    10.859517   -656.74735   -645.88783    22583.596    44331.023    51389.002   -27969.236      15.2149      13.1765      28.7324    5760.2466 
  107500      107.484    252.36355    10.536437   -656.41075   -645.87432    20788.846    39246.541    48482.629   -25362.633      15.2149      13.1765      28.7324    5760.2466 
  108000      107.984     241.6728    10.090088   -655.94908     -645.859    20087.956    39854.015     47824.55   -27414.697      15.2149      13.1765      28.7324    5760.2466 
  108500      108.484    252.91251    10.559357   -656.40544   -645.84609    20539.535    42481.982    50199.025   -31062.402      15.2149      13.1765      28.7324    5760.2466 
  109000      108.984     240.0832     10.02372   -655.85534   -645.83162    22155.205    44358.782    50159.666   -28052.833      15.2149      13.1765      28.7324    5760.2466 
  109500      109.484    244.92132    10.225716   -656.04328   -645.81756     22540.04    42955.219    51551.423   -26886.523      15.2149      13.1765      28.7324    5760.2466 
  110000      109.984    245.37913    10.244831   -656.04751   -645.80268     21488.29    42218.256    53142.623   -30896.009      15.2149      13.1765      28.7324    5760.2466 
  110500      110.484    256.08419    10.691778   -656.48096   -645.78918    23007.942    42913.053    51734.614   -25623.842      15.2149      13.1765      28.7324    5760.2466 
  111000      110.984    241.36877    10.077394   -655.85106   -645.77367     22325.37    44096.772    48525.838   -25646.501      15.2149      13.1765      28.7324    5760.2466 
  111500      111.484    260.47348    10.875035   -656.63584    -645.7608    22323.977    41553.761    49799.269   -24381.099      15.2149      13.1765      28.7324    5760.2466 
  112000      111.984    247.92003    10.350916   -656.09656   -645.74565    21003.362    43734.834    45611.359   -26336.105      15.2149      13.1765      28.7324    5760.2466 
  112500      112.484    243.20087    10.153886   -655.88535   -645.73146    22336.901    44292.087    49614.285    -26895.67      15.2149      13.1765      28.7324    5760.2466 
  113000      112.984    241.92127    10.100461   -655.81671   -645.71625    22116.483    45000.803    47290.506   -25941.859      15.2149      13.1765      28.7324    5760.2466 
  113500      113.484     236.0561    9.8555845   -655.55722   -645.70164    21468.884    43405.883    46202.729   -25201.958      15.2149      13.1765      28.7324    5760.2466 
  114000      113.984    251.00932    10.479897   -656.16676   -645.68687    22320.116    45691.563    48307.144   -27038.361      15.2149      13.1765      28.7324    5760.2466 
  114500      114.484    268.99336    11.230749   -656.90386   -645.67311    20721.665     40766.57    47761.223   -26362.799      15.2149      13.1765      28.7324    5760.2466 
  115000      114.984     242.4521    10.122624   -655.78037   -645.65775    20240.937    40303.724    48527.372   -28108.286      15.2149      13.1765      28.7324    5760.2466 
  115500      115.484    262.41308    10.956015   -656.59977   -645.64375    23693.122    42111.345    50598.967   -21630.947      15.2149      13.1765      28.7324    5760.2466 
  116000      115.984      243.557    10.168755   -655.79732   -645.62856    22798.264    43516.239    46526.442    -21647.89      15.2149      13.1765      28.7324    5760.2466 
  116500      116.484    250.52443    10.459652   -656.07348   -645.61383    21252.463     41109.51    48706.346   -26058.467      15.2149      13.1765      28.7324    5760.2466 
  117000      116.984    239.85969    10.014388   -655.61341   -645.59902    22435.181     43654.58    47584.904   -23933.942      15.2149      13.1765      28.7324    5760.2466 
  117500      117.484    248.52049    10.375986     -655.961   -645.58501    22777.776    43758.013    46717.624    -22142.31      15.2149      13.1765      28.7324    5760.2466 
  118000      117.984    245.30919    10.241911   -655.81123   -645.56932     21587.95     42376.42    47587.614   -25200.184      15.2149      13.1765      28.7324    5760.2466 
  118500      118.484    249.14573     10.40209   -655.95648   -645.55439    21463.905    43978.975    49520.956   -29108.215      15.2149      13.1765      28.7324    5760.2466 
  119000      118.984    257.83951    10.765065   -656.30468   -645.53962    20789.938    43658.699    46586.728   -27875.612      15.2149      13.1765      28.7324    5760.2466 
  119500      119.484    253.05933    10.565487   -656.09003   -645.52454    21367.339    41761.127    51282.105   -28941.214      15.2149      13.1765      28.7324    5760.2466 
  120000      119.984    242.50001    10.124625   -655.63349   -645.50887    21440.879    46390.981    52019.669   -34088.015      15.2149      13.1765      28.7324    5760.2466 
  120500      120.484    239.99587    10.020074   -655.51374   -645.49366    23621.077    45258.325    49140.864   -23535.957      15.2149      13.1765      28.7324    5760.2466 
  121000      120.984    252.90394    10.558999   -656.03775   -645.47875    23217.933     44831.62    50151.285   -25329.105      15.2149      13.1765      28.7324    5760.2466 
  121500      121.484    249.68364    10.424548   -655.88844   -645.46389    22320.199    39486.932    51443.327   -23969.662      15.2149      13.1765      28.7324    5760.2466 
  122000      121.984    259.41704    10.830928   -656.28022   -645.44929     23186.88    46653.908    49623.649   -26716.917      15.2149      13.1765      28.7324    5760.2466 
  122500      122.484    248.92432    10.392846   -655.82608   -645.43324    21894.857    41640.824    52013.673   -27969.926      15.2149      13.1765      28.7324    5760.2466 
  123000      122.984    245.30058    10.241551   -655.65954   -645.41799    21577.055    43413.907    51825.625   -30508.367      15.2149      13.1765      28.7324    5760.2466 
  123500      123.484    252.11717    10.526151   -655.92878   -645.40262    22789.358    43969.572    51511.715   -27113.212      15.2149      13.1765      28.7324    5760.2466 
  124000      123.984    258.12093    10.776814   -656.16487   -645.38806    21441.088    43411.344    49492.042   -28580.123      15.2149      13.1765      28.7324    5760.2466 
  124500      124.484    258.92088    10.810213    -656.1831   -645.37289    22280.283     43287.46    49810.304   -26256.917      15.2149      13.1765      28.7324    5760.2466 
  125000      124.984    254.59982    10.629804   -655.98664   -645.35684     21646.78    46457.375     49156.01   -30673.044      15.2149      13.1765      28.7324    5760.2466 
  125500      125.484    250.75058    10.469094   -655.81029   -645.34119    20793.575    44613.448    49190.611   -31423.335      15.2149      13.1765      28.7324    5760.2466 
  126000      125.984    246.41435    10.288052   -655.61492   -645.32687    21634.132    42009.574    48068.201   -25175.378      15.2149      13.1765      28.7324    5760.2466 
  126500      126.484    235.17163     9.818657   -655.12915   -645.31049    22824.456    41628.179    51582.262   -24737.073      15.2149      13.1765      28.7324    5760.2466 
  127000      126.984    249.46744    10.415522   -655.71094   -645.29542    21964.271    39573.875    48959.841   -22640.904      15.2149      13.1765      28.7324    5760.2466 
  127500      127.484    264.46798     11.04181   -656.32267   -645.28086    20740.437    43182.122    46428.148    -27388.96      15.2149      13.1765      28.7324    5760.2466 
  128000      127.984    241.25985    10.072847   -655.33758   -645.26474    21980.055    43607.896    51260.632   -28928.362      15.2149      13.1765      28.7324    5760.2466 
  128500      128.484    233.59532    9.7528443   -655.00228   -645.24944    21818.486    43137.046    47177.178   -24858.766      15.2149      13.1765      28.7324    5760.2466 
  129000      128.984    248.13096    10.359722   -655.59385   -645.23413    20996.653    41755.278    46189.432   -24954.751      15.2149      13.1765      28.7324    5760.2466 
  129500      129.484    247.10987    10.317091   -655.53628   -645.21919    22921.674    46045.119    48985.301   -26265.397      15.2149      13.1765      28.7324    5760.2466 
  130000      129.984    252.55138     10.54428   -655.74879   -645.20451    23399.607    40731.527    50596.257   -21128.964      15.2149      13.1765      28.7324    5760.2466 
  130500      130.484    248.19728    10.362491   -655.55062   -645.18813    23499.002    42217.953    50415.776   -22136.723      15.2149      13.1765      28.7324    5760.2466 
  131000      130.984    251.32585    10.493112   -655.66621    -645.1731    20999.094    41117.683      51057.4   -29177.802      15.2149      13.1765      28.7324    5760.2466 
  131500      131.484    236.76528    9.8851935   -655.04125   -645.15605    20481.392    42736.399    50311.165   -31603.387      15.2149      13.1765      28.7324    5760.2466 
  132000      131.984    256.35275     10.70299   -655.84489    -645.1419     21786.85    41213.519     55219.83     -31072.8      15.2149      13.1765      28.7324    5760.2466 
  132500      132.484    244.91442    10.225428   -655.35058   -645.12515    20896.663    42186.946    49782.469   -29279.425      15.2149      13.1765      28.7324    5760.2466 
  133000      132.984    248.06821    10.357102   -655.46715   -645.11005    23006.742    43335.427    48514.456   -22829.658      15.2149      13.1765      28.7324    5760.2466 
  133500      133.484    263.06725    10.983328   -656.07819   -645.09486    21338.728    44160.981    47075.157   -27219.954      15.2149      13.1765      28.7324    5760.2466 
  134000      133.984    239.56249     10.00198    -655.0805   -645.07852    19929.716     42996.35    47682.388    -30889.59      15.2149      13.1765      28.7324    5760.2466 
  134500      134.484    245.91358    10.267145   -655.33018   -645.06303    22957.359    46350.743    48849.399   -26328.065      15.2149      13.1765      28.7324    5760.2466 
  135000      134.984    252.75382    10.552731   -655.60065   -645.04792    21680.277    44905.667    49833.867   -29698.702      15.2149      13.1765      28.7324    5760.2466 
  135500      135.484    261.04045    10.898707    -655.9316   -645.03289    21426.643    40551.027     51970.33   -28241.429      15.2149      13.1765      28.7324    5760.2466 
  136000      135.984    254.56643     10.62841   -655.64436   -645.01595    22139.555    42135.118    48003.745   -23720.197      15.2149      13.1765      28.7324    5760.2466 
  136500      136.484    249.35539    10.410844    -655.4115   -645.00066    21289.738    42805.942    49565.476   -28502.203      15.2149      13.1765      28.7324    5760.2466 
  137000      136.984    239.49013    9.9989587    -654.9836   -644.98464    20785.796    42723.045    48148.865   -28514.522      15.2149      13.1765      28.7324    5760.2466 
  137500      137.484    258.13671    10.777473   -655.74684   -644.96937    22115.934    44768.172    49424.601    -27844.97      15.2149      13.1765      28.7324    5760.2466 
  138000      137.984    252.75111    10.552618   -655.50531    -644.9527    21840.477    48707.474     46423.31   -29609.354      15.2149      13.1765      28.7324    5760.2466 
  138500      138.484    259.56602    10.837148   -655.77556   -644.93841    23241.728    45191.477    50494.146   -25960.437      15.2149      13.1765      28.7324    5760.2466 
  139000      138.984    254.56384    10.628302   -655.55066   -644.92236    23127.701    44007.657    50478.849   -25103.403      15.2149      13.1765      28.7324    5760.2466 
  139500      139.484    250.65424    10.465072   -655.37123   -644.90615    22167.626    46916.058    46805.894   -27219.074      15.2149      13.1765      28.7324    5760.2466 
  140000      139.984    255.09172    10.650341   -655.54091   -644.89056    20730.952    44099.541    47891.253   -29797.937      15.2149      13.1765      28.7324    5760.2466 
  140500      140.484    254.74724    10.635959   -655.51036    -644.8744    21683.976     46274.25    45514.461   -26736.784      15.2149      13.1765      28.7324    5760.2466 
  141000      140.984    248.01281    10.354789   -655.21286   -644.85807    21593.725    45869.132    49542.478   -30630.434      15.2149      13.1765      28.7324    5760.2466 
  141500      141.484    251.72624    10.509829   -655.35278   -644.84295    21701.237    45433.309    50811.332   -31140.928      15.2149      13.1765      28.7324    5760.2466 
  142000      141.984    258.51662    10.793334   -655.62035   -644.82702     21967.39    44226.937     50381.98   -28706.745      15.2149      13.1765      28.7324    5760.2466 
  142500      142.484    260.86064      10.8912    -655.7019    -644.8107    22486.841    42415.201    50034.423   -24989.101      15.2149      13.1765      28.7324    5760.2466 
  143000      142.984    252.79981    10.554652   -655.34907   -644.79442     21629.04    46866.136    51064.781   -33043.796      15.2149      13.1765      28.7324    5760.2466 
  143500      143.484    266.93925    11.144988   -655.92453   -644.77954    22825.692    44345.679    51281.704   -27150.309      15.2149      13.1765      28.7324    5760.2466 
  144000      143.984    258.69232     10.80067   -655.56356   -644.76289    21189.351    41868.101    49114.642    -27414.69      15.2149      13.1765      28.7324    5760.2466 
  144500      144.484    261.86896    10.933298   -655.68045   -644.74715    21985.213    39964.089    52586.908   -26595.357      15.2149      13.1765      28.7324    5760.2466 
  145000      144.984    253.89535    10.600392    -655.3305   -644.73011    19866.732    42279.143    49197.956   -31876.902      15.2149      13.1765      28.7324    5760.2466 
  145500      145.484    261.59154    10.921715   -655.63649   -644.71478    21044.909    43293.615     49655.31   -29814.198      15.2149      13.1765      28.7324    5760.2466 
  146000      145.984    259.19459     10.82164   -655.51991   -644.69827    22060.469    42054.766    51058.065   -26931.425      15.2149      13.1765      28.7324    5760.2466 
  146500      146.484    259.80573    10.847156   -655.52987   -644.68271    21173.337     45568.45    46199.461     -28247.9      15.2149      13.1765      28.7324    5760.2466 
  147000      146.984    245.26212    10.239945   -654.90591   -644.66597    21137.779    42892.825    49000.686   -28480.174      15.2149      13.1765      28.7324    5760.2466 
  147500      147.484    272.20805    11.364966   -656.01522   -644.65025    22579.414    43003.562    49697.834   -24963.154      15.2149      13.1765      28.7324    5760.2466 
  148000      147.984    264.84468    11.057537   -655.69273    -644.6352    22094.855    42088.939    50163.388   -25967.762      15.2149      13.1765      28.7324    5760.2466 
  148500      148.484     272.9889    11.397567   -656.01553   -644.61796    20796.753    42516.574    48960.882   -29087.196      15.2149      13.1765      28.7324    5760.2466 
  149000      148.984    256.34722     10.70276   -655.30419   -644.60144    22358.508    42326.294    51888.711   -27139.481      15.2149      13.1765      28.7324    5760.2466 
  149500      149.484    259.83293    10.848292   -655.43453   -644.58623    22776.406    45670.804    51024.152   -28365.738      15.2149      13.1765      28.7324    5760.2466 
  150000      149.984    267.75016    11.178844   -655.74841   -644.56957    22980.216     42625.26    51951.792   -25636.405      15.2149      13.1765      28.7324    5760.2466 
  150500      150.484     253.7859    10.595822   -655.14862    -644.5528     21304.16    44667.825    50314.174   -31069.518      15.2149      13.1765      28.7324    5760.2466 
  151000      150.984    258.44146    10.790196   -655.32686   -644.53667    21289.701    46268.649    48133.015   -30532.561      15.2149      13.1765      28.7324    5760.2466 
  151500      151.484    250.14353    10.443749   -654.96402   -644.52027    22620.388    43160.203    48648.878   -23947.917      15.2149      13.1765      28.7324    5760.2466 
  152000      151.984    279.71237    11.678279   -656.18296   -644.50468    21168.001     43554.12    46614.357   -26664.474      15.2149      13.1765      28.7324    5760.2466 
  152500      152.484     274.1837    11.447451   -655.93502   -644.48757    22843.223    45941.282    49999.163   -27410.775      15.2149      13.1765      28.7324    5760.2466 
  153000      152.984        250.9    10.475332   -654.94598   -644.47065    22364.833     44339.29    49322.297   -26567.089      15.2149      13.1765      28.7324    5760.2466 
  153500      153.484    268.62249    11.215265   -655.67019   -644.45493    21833.353    47877.769    45154.512   -27532.222      15.2149      13.1765      28.7324    5760.2466 
  154000      153.984    256.77249    10.720515   -655.15888   -644.43836    22966.728    42545.027    51403.653   -25048.496      15.2149      13.1765      28.7324    5760.2466 
  154500      154.484    267.99671    11.189138   -655.61112   -644.42199    22965.313    44070.832    51364.242   -26539.136      15.2149      13.1765      28.7324    5760.2466 
  155000      154.984    257.39294     10.74642   -655.15215   -644.40573    24019.899    43905.876    52170.492   -24016.669      15.2149      13.1765      28.7324    5760.2466 
  155500      155.484    263.49676     11.00126    -655.3906   -644.38934    21685.815    43543.545    49741.104   -28227.205      15.2149      13.1765      28.7324    5760.2466 
  156000      155.984    258.24963    10.782187   -655.15502   -644.37283    23529.575    44793.408    50425.448   -24630.132      15.2149      13.1765      28.7324    5760.2466 
  156500      156.484    259.53219    10.835736   -655.19232   -644.35658    23014.696    43777.396    52149.159   -26882.467      15.2149      13.1765      28.7324    5760.2466 
  157000      156.984    249.71731    10.425954   -654.76533   -644.33938    22790.622    43373.878    54861.529   -29863.541      15.2149      13.1765      28.7324    5760.2466 
  157500      157.484    265.10559    11.068431   -655.39342   -644.32499     20292.91    43065.429    45058.854   -27245.554      15.2149      13.1765      28.7324    5760.2466 
  158000      157.984    257.11404    10.734775     -655.042   -644.30722    22450.841    40835.327    51409.617   -24892.423      15.2149      13.1765      28.7324    5760.2466 
  158500      158.484    268.87128    11.225652   -655.51605   -644.29039    21868.236    43187.423    51477.893   -29060.606      15.2149      13.1765      28.7324    5760.2466 
  159000      158.984    247.47629    10.332389     -654.606   -644.27361     23227.11    41593.276    52496.385    -24408.33      15.2149      13.1765      28.7324    5760.2466 
  159500      159.484    264.37261    11.037828   -655.29637   -644.25854    22455.302    42427.959    54089.756   -29151.807      15.2149      13.1765      28.7324    5760.2466 
  160000      159.984    257.81078    10.763865   -655.00441   -644.24055    22892.175    41818.456    53420.583   -26562.514      15.2149      13.1765      28.7324    5760.2466 
  160500      160.484    260.22443    10.864637   -655.08904    -644.2244     23636.07    45143.949     53127.25   -27362.988      15.2149      13.1765      28.7324    5760.2466 
  161000      160.984    259.52645    10.835496    -655.0436    -644.2081    21875.667    43189.252     49878.75   -27441.003      15.2149      13.1765      28.7324    5760.2466 
  161500      161.484    271.88705    11.351563   -655.54324   -644.19167    22129.349    45856.087    48029.425   -27497.465      15.2149      13.1765      28.7324    5760.2466 
  162000      161.984    272.14731     11.36243    -655.5388   -644.17637    23193.888     44564.68    49640.764   -24623.779      15.2149      13.1765      28.7324    5760.2466 
  162500      162.484    271.12899    11.319914   -655.47873   -644.15882     20333.98    42526.607    46680.903    -28205.57      15.2149      13.1765      28.7324    5760.2466 
  163000      162.984    265.79627    11.097267   -655.23985   -644.14259    21949.385    46136.303    49102.958   -29391.105      15.2149      13.1765      28.7324    5760.2466 
  163500      163.484    260.50456    10.876333   -655.00146   -644.12513    21736.309    43142.071    48714.176   -26647.319      15.2149      13.1765      28.7324    5760.2466 
  164000      163.984    264.81863     11.05645   -655.16538   -644.10893    20857.771    42157.591     49974.11   -29558.388      15.2149      13.1765      28.7324    5760.2466 
  164500      164.484    263.23706    10.990418   -655.08304   -644.09262    24455.124    48026.223     50024.86   -24685.712      15.2149      13.1765      28.7324    5760.2466 
  165000      164.984    271.23423    11.324308   -655.40048   -644.07617    22419.038     45316.25    48395.564     -26454.7      15.2149      13.1765      28.7324    5760.2466 
  165500      165.484    280.77882    11.722804   -655.78267   -644.05987    22899.038    46997.658    49124.083   -27424.625      15.2149      13.1765      28.7324    5760.2466 
  166000      165.984    249.18911    10.403901   -654.44583   -644.04193    21808.812    44730.425    46932.212     -26236.2      15.2149      13.1765      28.7324    5760.2466 
  166500      166.484    254.57118    10.628608   -654.65425   -644.02564    22433.499     50795.52    47837.092   -31332.114      15.2149      13.1765      28.7324    5760.2466 
  167000      166.984    258.10515    10.776155   -654.78509   -644.00894     22127.18    48817.355    44403.181   -26838.995      15.2149      13.1765      28.7324    5760.2466 
  167500      167.484    274.20913    11.448513   -655.44154   -643.99302    22083.532    47204.132     48882.17   -29835.706      15.2149      13.1765      28.7324    5760.2466 
  168000      167.984    285.06499    11.901756   -655.87935   -643.97759    22571.612    44456.107    48520.642   -25261.913      15.2149      13.1765      28.7324    5760.2466 
  168500      168.484    247.62475    10.338588   -654.29721   -643.95862    22223.262    44012.207    49246.839   -26589.262      15.2149      13.1765      28.7324    5760.2466 
  169000      168.984    258.51356    10.793206   -654.73577   -643.94257    22073.985    44070.335    46098.279   -23946.659      15.2149      13.1765      28.7324    5760.2466 
  169500      169.484    255.10765    10.651006   -654.57743   -643.92643    20532.178    46919.113    44270.333   -29592.911      15.2149      13.1765      28.7324    5760.2466 
  170000      169.984    245.84356    10.264221   -654.17373   -643.90951    19882.113    48089.151    45594.271   -34037.083      15.2149      13.1765      28.7324    5760.2466 
  170500      170.484    275.00371    11.481687   -655.37552   -643.89383    21938.189    41677.386    48027.021   -23889.841      15.2149      13.1765      28.7324    5760.2466 
  171000      170.984    261.68817     10.92575   -654.80234   -643.87659    22204.682     46300.63    47534.254    -27220.84      15.2149      13.1765      28.7324    5760.2466 
  171500      171.484     273.5628    11.421528   -655.28252   -643.86099    21386.305    43165.826    45975.912   -24982.824      15.2149      13.1765      28.7324    5760.2466 
  172000      171.984    277.98588    11.606196   -655.44963   -643.84343    22038.304    44401.392    44808.108   -23094.589      15.2149      13.1765      28.7324    5760.2466 
  172500      172.484     266.3708    11.121254   -654.94794   -643.82668    23491.332    44434.053    48358.274   -22318.332      15.2149      13.1765      28.7324    5760.2466 
  173000      172.984    274.38154    11.455711   -655.26663   -643.81092    21745.878    43855.548    47632.837   -26250.751      15.2149      13.1765      28.7324    5760.2466 
  173500      173.484    275.27349    11.492951   -655.28703   -643.79408    22218.962    44949.385    47325.719   -25618.218      15.2149      13.1765      28.7324    5760.2466 
  174000      173.984    282.12098    11.778841   -655.55609   -643.77725    22349.427    42504.498     48466.44   -23922.657      15.2149      13.1765      28.7324    5760.2466 
  174500      174.484     267.9612    11.187655   -654.94781   -643.76015     21677.83    44501.127     49566.93   -29034.566      15.2149      13.1765      28.7324    5760.2466 
  175000      174.984    274.65071    11.466949   -655.21012   -643.74318    22840.375    46464.965     51798.06   -29741.899      15.2149      13.1765      28.7324    5760.2466 
  175500      175.484    274.63935    11.466475   -655.19314   -643.72666    22869.311    43305.344    48887.679    -23585.09      15.2149      13.1765      28.7324    5760.2466 
  176000      175.984    273.51588    11.419569   -655.12877    -643.7092    21516.846    43692.671     46673.56   -25815.694      15.2149      13.1765      28.7324    5760.2466 
  176500      176.484    282.92501     11.81241    -655.5061   -643.69369    21780.826    41164.432    49257.767    -25079.72      15.2149      13.1765      28.7324    5760.2466 
  177000      176.984    271.64158    11.341315   -655.01611    -643.6748      22554.6    44516.487    49929.883   -26782.571      15.2149      13.1765      28.7324    5760.2466 
  177500      177.484    259.41442    10.830819   -654.48883   -643.65802    21180.392    42759.564    48645.174   -27863.562      15.2149      13.1765      28.7324    5760.2466 
  178000      177.984    276.47639    11.543173   -655.18464   -643.64147    21634.482    44639.024    47925.399   -27660.977      15.2149      13.1765      28.7324    5760.2466 
  178500      178.484    265.60025    11.089083   -654.71319   -643.62411    21737.772    44880.073    49700.268   -29367.024      15.2149      13.1765      28.7324    5760.2466 
  179000      178.984    269.24698    11.241338   -654.84878   -643.60744    23201.462    44080.966     49367.57    -23844.15      15.2149      13.1765      28.7324    5760.2466 
  179500      179.484    273.22404    11.407384   -654.99743   -643.59004    22260.218    42297.413    48989.803   -24506.561      15.2149      13.1765      28.7324    5760.2466 
  180000      179.984     268.7765    11.221695   -654.79445   -643.57275    23028.871    46539.835    49412.013   -26865.234      15.2149      13.1765      28.7324    5760.2466 
  180500      180.484    272.97906    11.397156   -654.95314   -643.55598    22265.206    45859.255    48303.763   -27367.401      15.2149      13.1765      28.7324    5760.2466 
  181000      180.984    292.53292     12.21355     -655.753   -643.53945    24652.746    46145.427    55348.782   -27535.971      15.2149      13.1765      28.7324    5760.2466 
  181500      181.484    280.87772    11.726933   -655.24924   -643.52231    23856.163    46770.056    48777.902    -23979.47      15.2149      13.1765      28.7324    5760.2466 
  182000      181.984    280.15451    11.696739   -655.20089   -643.50416    22056.921    41113.418    49627.049   -24569.706      15.2149      13.1765      28.7324    5760.2466 
  182500      182.484    269.82685    11.265548   -654.75294   -643.48739    21051.718    46407.338    48926.772   -32178.955      15.2149      13.1765      28.7324    5760.2466 
  183000      182.984    261.56253    10.920504   -654.38993   -643.46942    20081.919    44165.056    45480.186   -29399.483      15.2149      13.1765      28.7324    5760.2466 
  183500      183.484    273.48409    11.418242   -654.87094    -643.4527    23272.224    47775.737    49822.322   -27781.387      15.2149      13.1765      28.7324    5760.2466 
  184000      183.984    280.81202     11.72419   -655.16037   -643.43618    21573.654    44146.349    48707.228   -28132.614      15.2149      13.1765      28.7324    5760.2466 
  184500      184.484    277.18446    11.572736   -654.99173     -643.419    23003.544    44547.506    53375.971   -28912.845      15.2149      13.1765      28.7324    5760.2466 
  185000      184.984      280.725    11.720557    -655.1222   -643.40165    20794.814    45618.912    46266.851   -29501.323      15.2149      13.1765      28.7324    5760.2466 
  185500      185.484    283.36978    11.830979   -655.21539   -643.38441    22463.381    42185.003    47880.986   -22675.846      15.2149      13.1765      28.7324    5760.2466 
  186000      185.984    271.65926    11.342053   -654.70901   -643.36695    21458.528    47318.364    47178.716   -30121.495      15.2149      13.1765      28.7324    5760.2466 
  186500      186.484    277.92732    11.603751   -654.95425    -643.3505    21469.646    44077.177    47510.651   -27178.889      15.2149      13.1765      28.7324    5760.2466 
  187000      186.984    277.38268    11.581012   -654.91321    -643.3322    23138.105     46315.68    47744.569   -24645.935      15.2149      13.1765      28.7324    5760.2466 
  187500      187.484     274.8797     11.47651   -654.79147   -643.31496    21787.829    41878.356    50327.805   -26842.675      15.2149      13.1765      28.7324    5760.2466 
  188000      187.984    272.26989    11.367547   -654.66566   -643.29812    21843.385    44994.181    45664.554   -25128.581      15.2149      13.1765      28.7324    5760.2466 
  188500      188.484    271.33701    11.328599   -654.60905   -643.28045    22093.433    47942.303    48973.838   -30635.844      15.2149      13.1765      28.7324    5760.2466 
  189000      188.984    268.23056    11.198901     -654.463   -643.26409    21771.212    46954.168    47101.614   -28742.147      15.2149      13.1765      28.7324    5760.2466 
  189500      189.484    284.34976    11.871894    -655.1196    -643.2477    23602.312    46517.055    45606.025   -21316.144      15.2149      13.1765      28.7324    5760.2466 
  190000      189.984    283.68175    11.844004   -655.07362   -643.22962    21817.689    41723.831    48998.661   -25269.426      15.2149      13.1765      28.7324    5760.2466 
  190500      190.484    283.97391    11.856203   -655.06745   -643.21125    23942.999    46320.193    53657.891   -28149.089      15.2149      13.1765      28.7324    5760.2466 
  191000      190.984    270.40795     11.28981   -654.48422   -643.19441    23724.227    44746.458    50815.513    -24389.29      15.2149      13.1765      28.7324    5760.2466 
  191500      191.484    288.27784    12.035896   -655.21216   -643.17627    24348.052    42421.893    52079.272   -21457.009      15.2149      13.1765      28.7324    5760.2466 
  192000      191.984    280.14108    11.696178   -654.85604   -643.15987    20928.099    46121.313    44189.211   -27526.227      15.2149      13.1765      28.7324    5760.2466 
  192500      192.484    284.19614    11.865481   -655.00741   -643.14193     22583.27    43296.505    48386.631   -23933.326      15.2149      13.1765      28.7324    5760.2466 
  193000      192.984    287.09033    11.986316   -655.10996   -643.12364    22813.881     42843.38    48718.413    -23120.15      15.2149      13.1765      28.7324    5760.2466 
  193500      193.484     278.7449    11.637886   -654.74448   -643.10659    22155.909    42825.814    48153.805   -24511.893      15.2149      13.1765      28.7324    5760.2466 
  194000      193.984    283.42151    11.833139   -654.92207   -643.08893    21973.864    44398.786    47857.812   -26335.005      15.2149      13.1765      28.7324    5760.2466 
  194500      194.484     279.6312     11.67489   -654.74685   -643.07196    21180.493    43886.452    48813.038   -29158.013      15.2149      13.1765      28.7324    5760.2466 
  195000      194.984      271.644    11.341416   -654.39545   -643.05403    21466.644    44652.396    46462.538   -26715.003      15.2149      13.1765      28.7324    5760.2466 
  195500      195.484    278.15573    11.613287   -654.64965   -643.03637    21305.205    41535.588    50152.426   -27772.399      15.2149      13.1765      28.7324    5760.2466 
  196000      195.984    266.59316    11.130538   -654.14904    -643.0185    23139.587    46260.611    47670.796   -24512.646      15.2149      13.1765      28.7324    5760.2466 
  196500      196.484    278.74767    11.638001   -654.63927   -643.00127    21869.807    45136.812     51902.88   -31430.272      15.2149      13.1765      28.7324    5760.2466 
  197000      196.984    296.50632    12.379444   -655.36397   -642.98452    21884.076    45747.396    47432.607   -27527.775      15.2149      13.1765      28.7324    5760.2466 
  197500      197.484    279.80245    11.682039    -654.6484   -642.96636    21848.993     48666.35    47746.888    -30866.26      15.2149      13.1765      28.7324    5760.2466 
  198000      197.984     280.0535    11.692521    -654.6416   -642.94908    21363.571    43755.649    47671.805    -27336.74      15.2149      13.1765      28.7324    5760.2466 
  198500      198.484    280.63938    11.716982   -654.64923   -642.93225    22871.038    47828.326    47609.226   -26824.438      15.2149      13.1765      28.7324    5760.2466 
  199000      198.984    257.57523     10.75403   -653.66687   -642.91284    21151.372    45308.298    51439.135   -33293.317      15.2149      13.1765      28.7324    5760.2466 
  199500      199.484    295.20874    12.325268   -655.22204   -642.89677    23353.032    46850.492    49098.209   -25889.606      15.2149      13.1765      28.7324    5760.2466 
  200000      199.984    279.33806    11.662651   -654.54126   -642.87861    23924.115     47430.29     47612.37   -23270.316      15.2149      13.1765      28.7324    5760.2466 
  200500      200.484    272.03192    11.357612   -654.21814   -642.86053    23955.346    48119.675     50880.05   -27133.688      15.2149      13.1765      28.7324    5760.2466 
  201000      200.984     288.5644     12.04786   -654.89134   -642.84348    21090.497    45570.949    48417.679   -30717.139      15.2149      13.1765      28.7324    5760.2466 
  201500      201.484     278.8936    11.644094   -654.46934   -642.82525    22113.559     42601.75    46886.124   -23147.197      15.2149      13.1765      28.7324    5760.2466 
  202000      201.984    284.94293     11.89666   -654.70489   -642.80823    21636.038     44728.17    50245.212   -30065.268      15.2149      13.1765      28.7324    5760.2466 
  202500      202.484    272.16346    11.363104   -654.15346   -642.79036    24742.745    46448.929    48419.172   -20639.865      15.2149      13.1765      28.7324    5760.2466 
  203000      202.984    283.62478    11.841626   -654.61386   -642.77224     23438.49    47725.636    48479.509   -25889.676      15.2149      13.1765      28.7324    5760.2466 
  203500      203.484    271.56405    11.338078   -654.09313   -642.75505    21467.688    43033.362    51163.642   -29793.941      15.2149      13.1765      28.7324    5760.2466 
  204000      203.984    285.67821    11.927359   -654.66604   -642.73868    22295.239    46091.086    45352.609   -24557.977      15.2149      13.1765      28.7324    5760.2466 
  204500      204.484    286.03755    11.942362   -654.66193   -642.71957    22846.605    45324.594    49937.348   -26722.126      15.2149      13.1765      28.7324    5760.2466 
  205000      204.984    284.91849     11.89564   -654.59769   -642.70206    21463.513    41737.054    50132.397    -27478.91      15.2149      13.1765      28.7324    5760.2466 
  205500      205.484    281.39491    11.748526   -654.43341   -642.68488    23124.847     45757.07    52181.761   -28564.291      15.2149      13.1765      28.7324    5760.2466 
  206000      205.984    286.58209    11.965096   -654.63078   -642.66568    21316.967    41554.287    52317.983   -29921.369      15.2149      13.1765      28.7324    5760.2466 
  206500      206.484    275.15348     11.48794   -654.13568   -642.64774    23558.779    47065.244    50718.453   -27107.361      15.2149      13.1765      28.7324    5760.2466 
  207000      206.984     302.3715     12.62432   -655.25465   -642.63033    22595.877    43558.843    50358.224   -26129.437      15.2149      13.1765      28.7324    5760.2466 
  207500      207.484     282.2503     11.78424    -654.3961   -642.61186    23025.789     45758.11    50678.674   -27359.416      15.2149      13.1765      28.7324    5760.2466 
  208000      207.984    272.13167    11.361777   -653.95538    -642.5936    23398.278     46396.02    47480.024   -23681.209      15.2149      13.1765      28.7324    5760.2466 
  208500      208.484    285.46121    11.918299   -654.49495   -642.57666    22220.123    45815.739    45843.992   -24999.361      15.2149      13.1765      28.7324    5760.2466 
  209000      208.984    287.88583    12.019529   -654.57819   -642.55866     23293.37    44416.112    50911.046   -25447.047      15.2149      13.1765      28.7324    5760.2466 
  209500      209.484    289.21802     12.07515    -654.6163   -642.54115     22944.74    47899.267     48771.96   -27837.008      15.2149      13.1765      28.7324    5760.2466 
  210000      209.984    298.47423    12.461606    -654.9847   -642.52309    22846.454    39529.009    49677.357   -20667.003      15.2149      13.1765      28.7324    5760.2466 
  210500      210.484    294.57578    12.298841   -654.80361   -642.50477     22204.72    43706.649    48417.189    -25509.68      15.2149      13.1765      28.7324    5760.2466 
  211000      210.984    305.25707    12.744796   -655.23219   -642.48739    21929.253    45698.208     52623.02   -32533.469      15.2149      13.1765      28.7324    5760.2466 
  211500      211.484    276.39724    11.539869   -654.00832   -642.46845    22050.061    43563.094    51654.576   -29067.488      15.2149      13.1765      28.7324    5760.2466 
  212000      211.984     291.1451    12.155607    -654.6083   -642.45269    23400.173    45981.619    47969.771    -23750.87      15.2149      13.1765      28.7324    5760.2466 
[...]
  948500      948.484    369.24375    15.416306   -650.59465   -635.17835    23222.708    46763.821     49289.34   -26385.036      15.2149      13.1765      28.7324    5760.2466 
  949000      948.984    364.41065    15.214519   -650.39016   -635.17564    22087.576    44966.024    48034.464   -26737.761      15.2149      13.1765      28.7324    5760.2466 
  949500      949.484    361.31474    15.085261   -650.25825   -635.17299    24703.787    45193.944    53054.375   -24136.959      15.2149      13.1765      28.7324    5760.2466 
  950000      949.984     369.4247    15.423861   -650.59841   -635.17455     22393.83    44563.205    48200.896   -25582.611      15.2149      13.1765      28.7324    5760.2466 
  950500      950.484    373.50099     15.59405   -650.76764   -635.17359    24583.032    49537.831    50761.374    -26550.11      15.2149      13.1765      28.7324    5760.2466 
  951000      950.984    359.29178    15.000801   -650.17186   -635.17106     26681.63    45461.829    57810.251    -23227.19      15.2149      13.1765      28.7324    5760.2466 
  951500      951.484     388.5816    16.223681    -651.3952   -635.17152     24316.96    47377.208    52875.482   -27301.809      15.2149      13.1765      28.7324    5760.2466 
  952000      951.984    374.22675    15.624351   -650.79528   -635.17093    22822.166    51013.738    52408.417   -34955.657      15.2149      13.1765      28.7324    5760.2466 
  952500      952.484    376.05098    15.700515   -650.86844   -635.16792    25030.638     48387.22    53625.018   -26920.324      15.2149      13.1765      28.7324    5760.2466 
  953000      952.984    375.08133    15.660031   -650.82714   -635.16711    23168.125     50630.57      49043.3   -30169.496      15.2149      13.1765      28.7324    5760.2466 
  953500      953.484    378.10955    15.786462   -650.95324   -635.16677    23317.686    47337.808    54186.135   -31570.885      15.2149      13.1765      28.7324    5760.2466 
  954000      953.984    390.66632     16.31072   -651.47495   -635.16423    24482.241    47466.753    51479.742   -25499.772      15.2149      13.1765      28.7324    5760.2466 
  954500      954.484    377.74317    15.771165   -650.93347    -635.1623    24219.993    46081.894    49579.857   -23001.772      15.2149      13.1765      28.7324    5760.2466 
  955000      954.984    387.91947    16.196036   -651.35767   -635.16164    25083.139     46857.74    50835.416   -22443.738      15.2149      13.1765      28.7324    5760.2466 
  955500      955.484    380.88422    15.902307   -651.06167   -635.15936    24529.536    49307.401    46491.838    -22210.63      15.2149      13.1765      28.7324    5760.2466 
  956000      955.984    370.08836    15.451569   -650.60935   -635.15778    21675.812    46753.422     47167.76   -28893.746      15.2149      13.1765      28.7324    5760.2466 
  956500      956.484     376.0723    15.701405   -650.85804   -635.15664     22455.98    43623.505    48545.313   -24800.878      15.2149      13.1765      28.7324    5760.2466 
  957000      956.984    349.90257    14.608791   -649.76202   -635.15323    23776.845    48946.734    50034.857   -27651.055      15.2149      13.1765      28.7324    5760.2466 
  957500      957.484    376.63618    15.724947   -650.87818   -635.15323    21745.447    44976.887    50199.789   -29940.336      15.2149      13.1765      28.7324    5760.2466 
  958000      957.984    374.30832    15.627757   -650.77967   -635.15191    22663.689     49540.99     52103.88   -33653.804      15.2149      13.1765      28.7324    5760.2466 
  958500      958.484    358.37385    14.962476   -650.11225   -635.14977     23729.06    45725.497    49660.707   -24199.025      15.2149      13.1765      28.7324    5760.2466 
  959000      958.984      361.358    15.087068   -650.23518   -635.14811    24809.428    49076.617    49266.259   -23914.593      15.2149      13.1765      28.7324    5760.2466 
  959500      959.484    397.57618    16.599214   -651.74666   -635.14744    23331.536    43883.754    48229.475   -22118.621      15.2149      13.1765      28.7324    5760.2466 
  960000      959.984    383.84765    16.026034   -651.17106   -635.14502    21372.746    45268.525    52171.549   -33321.837      15.2149      13.1765      28.7324    5760.2466 
  960500      960.484    385.17716    16.081542   -651.22493   -635.14339    24190.711    48204.676    52098.147   -27730.691      15.2149      13.1765      28.7324    5760.2466 
  961000      960.984    378.51876    15.803547   -650.94452   -635.14098    21616.833     45252.76     48893.54   -29295.801      15.2149      13.1765      28.7324    5760.2466 
  961500      961.484    378.43776    15.800165   -650.93872   -635.13856    24017.241    48856.446    51315.833   -28120.556      15.2149      13.1765      28.7324    5760.2466 
  962000      961.984    378.15585    15.788395   -650.92582   -635.13743    25003.365    47054.798    52263.088   -24307.792      15.2149      13.1765      28.7324    5760.2466 
  962500      962.484    366.03254    15.282234   -650.41582   -635.13359    23502.893    48805.479    49531.328   -27828.127      15.2149      13.1765      28.7324    5760.2466 
  963000      962.984    366.09188    15.284712   -650.41591    -635.1312    24621.973    43585.481    50416.922   -20136.483      15.2149      13.1765      28.7324    5760.2466 
  963500      963.484     377.8177    15.774277   -650.90421   -635.12993    22252.243    47332.486    48715.413   -29291.169      15.2149      13.1765      28.7324    5760.2466 
  964000      963.984    370.36912    15.463291   -650.59103   -635.12774     22888.86    42304.829    55328.908   -28967.158      15.2149      13.1765      28.7324    5760.2466 
  964500      964.484    362.73834    15.144698   -650.26905   -635.12435    22875.138    47875.719    50112.641   -29362.947      15.2149      13.1765      28.7324    5760.2466 
  965000      964.984    378.10141    15.786122   -650.90886   -635.12274    22242.351    46023.951    52130.146   -31427.043      15.2149      13.1765      28.7324    5760.2466 
  965500      965.484    364.58368    15.221743   -650.34327   -635.12152    24742.904    46261.157    48037.415   -20069.861      15.2149      13.1765      28.7324    5760.2466 
  966000      965.984    362.88997    15.151029   -650.26891   -635.11789    22282.755    45623.051    47123.848   -25898.634      15.2149      13.1765      28.7324    5760.2466 
  966500      966.484    359.45587    15.007652   -650.12293   -635.11528    22717.379    50849.966     47079.66   -29777.491      15.2149      13.1765      28.7324    5760.2466 
  967000      966.984    367.95604    15.362543   -650.47611   -635.11357     23930.47    49528.099    47573.374   -25310.062      15.2149      13.1765      28.7324    5760.2466 
  967500      967.484    403.08719    16.829304   -651.94179   -635.11248    21534.526     44206.39    48046.757   -27649.569      15.2149      13.1765      28.7324    5760.2466 
  968000      967.984    369.53269    15.428369   -650.53634   -635.10797    22229.655    45072.263    51553.429   -29936.725      15.2149      13.1765      28.7324    5760.2466 
  968500      968.484    384.06251    16.035004   -651.14166   -635.10666    23359.423    47800.499      46709.7    -24431.93      15.2149      13.1765      28.7324    5760.2466 
  969000      968.984    393.30687    16.420966   -651.52387    -635.1029     21724.94    47986.117    47272.499   -30083.796      15.2149      13.1765      28.7324    5760.2466 
  969500      969.484    375.61357    15.682252   -650.78225   -635.09999    22519.917    47347.243    52734.174   -32521.665      15.2149      13.1765      28.7324    5760.2466 
  970000      969.984     371.0269    15.490754   -650.58875     -635.098    22538.025    45250.118    45992.773   -23628.816      15.2149      13.1765      28.7324    5760.2466 
  970500      970.484    387.63584    16.184195   -651.27988   -635.09568    23672.657    46025.154    50902.199   -25909.381      15.2149      13.1765      28.7324    5760.2466 
  971000      970.984    383.20776    15.999317   -651.09296   -635.09364    23514.626    45696.502    52575.093   -27727.717      15.2149      13.1765      28.7324    5760.2466 
  971500      971.484    361.58709    15.096632   -650.18441   -635.08778    23607.228    49489.944    48613.604   -27281.865      15.2149      13.1765      28.7324    5760.2466 
  972000      971.984    387.76677    16.189661   -651.27582   -635.08616    23688.923     45270.17    53873.492   -28076.894      15.2149      13.1765      28.7324    5760.2466 
  972500      972.484    379.63727    15.850246   -650.93335   -635.08311      23255.4    45865.217    48343.164   -24442.181      15.2149      13.1765      28.7324    5760.2466 
  973000      972.984    383.48364    16.010836   -651.09097   -635.08013    22813.031    43301.876    48278.756   -23141.539      15.2149      13.1765      28.7324    5760.2466 
  973500      973.484    369.03342    15.407524   -650.48416   -635.07663    22344.149    46152.443    46578.008   -25698.004      15.2149      13.1765      28.7324    5760.2466 
  974000      973.984    374.97052    15.655404   -650.72877   -635.07336    26094.749    46208.349    54722.957    -22647.06      15.2149      13.1765      28.7324    5760.2466 
  974500      974.484    361.29548    15.084457    -650.1546   -635.07014      24458.8    46543.775    51927.793   -25095.169      15.2149      13.1765      28.7324    5760.2466 
  975000      974.984    358.57119    14.970715   -650.03715   -635.06643    24358.721     50220.78    45837.613    -22982.23      15.2149      13.1765      28.7324    5760.2466 
  975500      975.484    351.33938     14.66878   -649.73201   -635.06323    23130.156     46337.56    50766.786   -27713.878      15.2149      13.1765      28.7324    5760.2466 
  976000      975.984    362.82092    15.148146   -650.20929   -635.06114    21965.337     44804.45    52846.794   -31755.233      15.2149      13.1765      28.7324    5760.2466 
  976500      976.484    353.81067    14.771959   -649.82879   -635.05684    23891.217    43814.681    49757.849    -21898.88      15.2149      13.1765      28.7324    5760.2466 
  977000      976.984    373.65011    15.600276   -650.65558    -635.0553    23621.257    40422.182    54692.386   -24250.798      15.2149      13.1765      28.7324    5760.2466 
  977500      977.484     382.1656    15.955806    -651.0081   -635.05229    23459.583    44995.111    51714.637   -26331.001      15.2149      13.1765      28.7324    5760.2466 
  978000      977.984    391.47078    16.344307   -651.39274   -635.04843    23874.158    46851.061    48914.435   -24143.022      15.2149      13.1765      28.7324    5760.2466 
  978500      978.484    390.09177    16.286732   -651.33289   -635.04616    21568.663     47462.48    53216.624   -35973.113      15.2149      13.1765      28.7324    5760.2466 
  979000      978.984    385.85389    16.109796   -651.15227   -635.04247    23599.117    43550.498    48773.706   -21526.853      15.2149      13.1765      28.7324    5760.2466 
  979500      979.484    379.35719    15.838552   -650.87631   -635.03776    25671.504    51498.539    50071.025   -24555.052      15.2149      13.1765      28.7324    5760.2466 
  980000      979.984    365.68911    15.267896    -650.3016   -635.03371    21393.373    44241.466    46444.069   -26505.416      15.2149      13.1765      28.7324    5760.2466 
  980500      980.484    381.63556    15.933676   -650.96465   -635.03097    22633.988    46193.462    48342.338   -26633.838      15.2149      13.1765      28.7324    5760.2466 
  981000      980.984    393.29069     16.42029   -651.44802   -635.02773    22987.604    47759.115     52369.67   -31165.972      15.2149      13.1765      28.7324    5760.2466 
  981500      981.484    389.52882    16.263228   -651.28781   -635.02458    21468.341    44384.635    55104.332   -35083.945      15.2149      13.1765      28.7324    5760.2466 
  982000      981.984    358.56535    14.970472   -649.99032   -635.01985    23929.385    44975.445    54395.451   -27582.741      15.2149      13.1765      28.7324    5760.2466 
  982500      982.484    380.55288    15.888473    -650.9045   -635.01603    22783.069    49797.443    50606.369   -32054.604      15.2149      13.1765      28.7324    5760.2466 
  983000      982.984    395.53655    16.514057   -651.52756   -635.01351    21366.829    43874.721    51516.161   -31290.394      15.2149      13.1765      28.7324    5760.2466 
  983500      983.484    380.59518     15.89024   -650.90062   -635.01038    23709.852    43659.678    53459.559   -25989.683      15.2149      13.1765      28.7324    5760.2466 
  984000      983.984     377.5119    15.761509   -650.76746   -635.00595    23041.954    47796.913    51985.574   -30656.626      15.2149      13.1765      28.7324    5760.2466 
  984500      984.484    381.17265    15.914349   -650.91592   -635.00157    23915.933    46190.451    49873.382   -24316.034      15.2149      13.1765      28.7324    5760.2466 
  985000      984.984    390.02911    16.284116   -651.28184   -634.99772    23438.186    48245.179    51200.713   -29131.333      15.2149      13.1765      28.7324    5760.2466 
  985500      985.484    374.48691    15.635213   -650.62746   -634.99224    23452.561     44608.31     53933.69   -28184.318      15.2149      13.1765      28.7324    5760.2466 
  986000      985.984    361.44802    15.090826   -650.08037   -634.98955    23116.341    47690.782    46601.744   -24943.505      15.2149      13.1765      28.7324    5760.2466 
  986500      986.484     385.6329     16.10057   -651.08677    -634.9862    22865.278    39631.758    55900.349   -26936.272      15.2149      13.1765      28.7324    5760.2466 
  987000      986.984    388.83833      16.2344   -651.21624   -634.98184    22320.216    45494.121    51965.894   -30499.367      15.2149      13.1765      28.7324    5760.2466 
  987500      987.484    381.50581    15.928259   -650.90502   -634.97676     25062.81    44940.391    55785.668   -25537.627      15.2149      13.1765      28.7324    5760.2466 
  988000      987.984    377.37389    15.755747   -650.72744   -634.97169    22961.339      44953.9    48381.917   -24451.801      15.2149      13.1765      28.7324    5760.2466 
  988500      988.484    375.20371     15.66514    -650.6332   -634.96806    24953.344    49365.121    50458.781   -24963.869      15.2149      13.1765      28.7324    5760.2466 
  989000      988.984    378.77533    15.814259   -650.77869   -634.96443    22751.719    44754.533    50825.906   -27325.282      15.2149      13.1765      28.7324    5760.2466 
  989500      989.484     379.8182      15.8578   -650.81874   -634.96094     24796.98    46146.875    50317.722   -22073.657      15.2149      13.1765      28.7324    5760.2466 
  990000      989.984    398.07814    16.620171   -651.57667    -634.9565    23881.106    45745.922    49589.625   -23692.231      15.2149      13.1765      28.7324    5760.2466 
  990500      990.484    384.53095    16.054562   -651.00625   -634.95169    24544.025    47727.833    50314.692    -24410.45      15.2149      13.1765      28.7324    5760.2466 
  991000      990.984    382.57986    15.973102   -650.92232   -634.94922    23552.225     44692.87    52538.879   -26575.074      15.2149      13.1765      28.7324    5760.2466 
  991500      991.484    385.30266    16.086782   -651.03027   -634.94349     24280.22    48156.468    50408.739   -25724.548      15.2149      13.1765      28.7324    5760.2466 
  992000      991.984    379.94975    15.863292   -650.80195   -634.93865    23740.577    51198.429    46635.645   -26612.343      15.2149      13.1765      28.7324    5760.2466 
  992500      992.484    380.77638    15.897805   -650.83263   -634.93483    22558.547    47293.181    47806.169    -27423.71      15.2149      13.1765      28.7324    5760.2466 
  993000      992.984    377.53321    15.762399   -650.69163   -634.92923    23427.848    48387.432    49911.825   -28015.712      15.2149      13.1765      28.7324    5760.2466 
  993500      993.484    362.40409    15.130743    -650.0553   -634.92455    22943.417     39066.55    53244.746   -23481.046      15.2149      13.1765      28.7324    5760.2466 
  994000      993.984    372.46346    15.550732   -650.47109   -634.92036    22186.948    40237.535    46382.429    -20059.12      15.2149      13.1765      28.7324    5760.2466 
  994500      994.484    377.57099    15.763976   -650.67997   -634.91599     22773.28     43352.08    52233.905   -27266.146      15.2149      13.1765      28.7324    5760.2466 
  995000      994.984    376.85727    15.734178    -650.6458   -634.91163    22178.339     42914.09    49645.638   -26024.711      15.2149      13.1765      28.7324    5760.2466 
  995500      995.484    402.64392    16.810797   -651.71919   -634.90839    21197.035    43396.799    47990.204   -27795.899      15.2149      13.1765      28.7324    5760.2466 
  996000      995.984     348.9347    14.568382   -649.46995   -634.90156    23545.474    49740.345    50965.793   -30069.717      15.2149      13.1765      28.7324    5760.2466 
  996500      996.484    374.11053    15.619499   -650.51662   -634.89712    20909.368    45953.187    47288.789   -30513.872      15.2149      13.1765      28.7324    5760.2466 
  997000      996.984    367.24977    15.333055   -650.22491   -634.89185    23290.874    45027.595    49057.042   -24212.016      15.2149      13.1765      28.7324    5760.2466 
  997500      997.484    387.77632     16.19006   -651.07823   -634.88817    21810.655    46054.515    48409.907   -29032.458      15.2149      13.1765      28.7324    5760.2466 
  998000      997.984    365.97885    15.279993   -650.16116   -634.88117    21237.474    42618.531     50899.12   -29805.229      15.2149      13.1765      28.7324    5760.2466 
  998500      998.484    383.40295    16.007467   -650.88557   -634.87811    23649.822    47261.573    46887.194   -23199.302      15.2149      13.1765      28.7324    5760.2466 
  999000      998.984    381.47027    15.926775   -650.79996   -634.87318    21459.404    43511.676    49168.466   -28301.932      15.2149      13.1765      28.7324    5760.2466 
  999500      999.484    378.10997     15.78648   -650.65385   -634.86737    22546.325    45360.466    52696.551   -30418.043      15.2149      13.1765      28.7324    5760.2466 
 1000000      999.984    356.12058      14.8684    -649.7308    -634.8624     22894.29    44287.116    51341.362   -26945.607      15.2149      13.1765      28.7324    5760.2466 
 1000016         1000    384.82541    16.066856   -650.93054   -634.86369    22222.371    41643.124    49113.754   -24089.765      15.2149      13.1765      28.7324    5760.2466 
Loop time of 927.425 on 28 procs for 1000000 steps with 324 atoms

Performance: 93.161 ns/day, 0.258 hours/ns, 1078.255 timesteps/s
88.7% CPU use with 28 MPI tasks x no OpenMP threads

MPI task timing breakdown:
Section |  min time  |  avg time  |  max time  |%varavg| %total
---------------------------------------------------------------
Pair    | 721.92     | 795.6      | 853.84     | 131.5 | 85.79
Neigh   | 0          | 0          | 0          |   0.0 |  0.00
Comm    | 59.391     | 118.45     | 191.46     | 340.0 | 12.77
Output  | 0.1003     | 0.10266    | 0.1308     |   1.7 |  0.01
Modify  | 4.5771     | 8.2158     | 16.08      | 118.6 |  0.89
Other   |            | 5.059      |            |       |  0.55

Nlocal:    11.5714 ave 15 max 6 min
Histogram: 1 3 3 1 1 0 5 6 4 4
Nghost:    640.607 ave 695 max 600 min
Histogram: 5 3 4 2 3 2 2 4 1 2
Neighs:    724.357 ave 1028 max 394 min
Histogram: 3 4 2 0 0 6 5 3 4 1
FullNghs:  1448.71 ave 1932 max 761 min
Histogram: 1 3 3 1 1 1 4 6 4 4

Total # of neighbors = 40564
Ave neighs/atom = 125.198
Neighbor list builds = 0
Dangerous builds = 0

write_restart   POSCAR_1x1x1.rest

#unfix    1
#undump   1
Total wall time: 0:15:27
