LAMMPS (7 Dec 2015)
#----------- Initialize Simulation ------------ restart01
#processors	2 2 2
units		metal
boundary	p p p     ## periodic boundary condition  on x y z axis ##
atom_style atomic
#atom_modify map array sort 0 0.0

read_data	POSCAR_1x1x1.lammps
  triclinic box = (0 0 0) to (15.2149 13.1765 28.7324) with tilt (-7.60743 0 0)
  2 by 2 by 7 MPI processor grid
  reading atoms ...
  324 atoms

#----------- Define Potential -----------------
pair_style meam
pair_coeff * * MgAlZn.library.meam Mg Al Zn MgAlZn.parameter.meam Mg Al Zn 	#1=Mg 2=Al 3=Zn	#atoms/mass

#----------- Neighbor List --------------------
neighbor 2.0 bin
neigh_modify delay 10 check yes

#--------------  Run a simulation (minimization) ---------------------------------------
minimize       1.0e-4   1.0e-6   100   1000          #結構優化的條件
WARNING: Resetting reneighboring criteria during minimization (../min.cpp:168)
Neighbor list info ...
  2 neighbor list requests
  update every 1 steps, delay 0 steps, check yes
  max neighbors/atom: 2000, page size: 100000
  master list distance cutoff = 8
  ghost atom cutoff = 8
  binsize = 4 -> bins = 6 4 8
Memory usage per processor = 8.64951 Mbytes
Step Temp E_pair E_mol TotEng Press 
       0            0    -689.6907            0    -689.6907    20357.506 
      14            0   -705.19414            0   -705.19414    19154.791 
Loop time of 0.0275418 on 28 procs for 14 steps with 324 atoms

86.6% CPU use with 28 MPI tasks x no OpenMP threads

Minimization stats:
  Stopping criterion = energy tolerance
  Energy initial, next-to-last, final = 
        -689.690696238       -705.1246442     -705.194135471
  Force two-norm initial, final = 22.3704 1.94523
  Force max component initial, final = 3.12673 0.687121
  Final line search alpha, max atom move = 0.200296 0.137628
  Iterations, force evaluations = 14 27

MPI task timing breakdown:
Section |  min time  |  avg time  |  max time  |%varavg| %total
---------------------------------------------------------------
Pair    | 0.020682   | 0.022818   | 0.025372   |   0.7 | 82.85
Neigh   | 0          | 0          | 0          |   0.0 |  0.00
Comm    | 0.0013451  | 0.003774   | 0.0059546  |   1.8 | 13.70
Output  | 0          | 0          | 0          |   0.0 |  0.00
Modify  | 0          | 0          | 0          |   0.0 |  0.00
Other   |            | 0.0009502  |            |       |  3.45

Nlocal:    11.5714 ave 15 max 6 min
Histogram: 1 1 2 4 1 2 5 5 3 4
Nghost:    648.857 ave 712 max 601 min
Histogram: 5 2 7 0 4 2 0 4 0 4
Neighs:    723.786 ave 993 max 389 min
Histogram: 2 0 5 1 2 1 9 3 3 2
FullNghs:  1447.57 ave 1913 max 760 min
Histogram: 1 1 2 4 1 2 5 5 3 4

Total # of neighbors = 40532
Ave neighs/atom = 125.099
Neighbor list builds = 0
Dangerous builds = 0
velocity all  create 393.0 4928459 #rot yes dist gaussian

#--------------  Run a simulation (Relaxation)  ----------------------------------------
fix  1  all  nvt   temp  393.0  393.0  100				#damping constant
#fix  2  all  npt   temp  393.0  393.0  50 iso 0.0 0.0 1000.0
#fix  2  all deform 1 x final 0 15.6906 y final 0 13.5884 z final 0 25.2339 xy final -7.8452 units lattice
#fix  3  all  npt   temp  393.0  393.0  50 z 0.0 0.0 1000.0

#variable b equal 1
#fix 2 all efield  0.0  0.0  v_b
#compute pot all pe/atom


#----------- Output --------------------------
thermo	 500
timestep  0.001		#1.0 fs
thermo_style	custom step time temp ke pe etotal press pxx pyy pzz lx ly lz vol

dump 1 all custom 10000 dump.eq id type x y z
dump_modify 1 sort  id

run        1000000	#10000	 ps
Neighbor list info ...
  2 neighbor list requests
  update every 1 steps, delay 10 steps, check yes
  max neighbors/atom: 2000, page size: 100000
  master list distance cutoff = 8
  ghost atom cutoff = 8
  binsize = 4 -> bins = 6 4 8
Memory usage per processor = 7.54079 Mbytes
Step Time Temp KinEng PotEng TotEng Press Pxx Pyy Pzz Lx Ly Lz Volume 
      14            0          393    16.408154   -705.19414   -688.78598    22197.341    40223.114    41879.708   -15510.799      15.2149      13.1765      28.7324    5760.2466 
     500        0.486    218.73411    9.1323739   -697.91288   -688.78051    27021.572    46337.224     49654.55   -14927.056      15.2149      13.1765      28.7324    5760.2466 
    1000        0.986    233.22241    9.7372751   -698.51794   -688.78066    28685.097    48504.749    47945.594   -10395.053      15.2149      13.1765      28.7324    5760.2466 
    1500        1.486    224.77718    9.3846781   -698.16482   -688.78014     26189.18    46994.511     44888.58   -13315.552      15.2149      13.1765      28.7324    5760.2466 
    2000        1.986    227.86826    9.5137339   -698.29276   -688.77903    27159.117    46403.464    46467.225   -11393.339      15.2149      13.1765      28.7324    5760.2466 
    2500        2.486    212.80618    8.8848766   -697.66269   -688.77781    23544.938    43530.393    45283.342   -18178.922      15.2149      13.1765      28.7324    5760.2466 
    3000        2.986    219.07928    9.1467848   -697.92376   -688.77698    23470.452    45523.188    44646.557   -19758.389      15.2149      13.1765      28.7324    5760.2466 
    3500        3.486    230.73337    9.6333551   -698.41012   -688.77676    25319.111    47152.413    46908.555   -18103.635      15.2149      13.1765      28.7324    5760.2466 
    4000        3.986    245.77176    10.261223   -699.03718   -688.77596    28337.496    46998.881    50088.319   -12074.712      15.2149      13.1765      28.7324    5760.2466 
    4500        4.486    235.34629    9.8259493   -698.59878   -688.77283    23337.179    44864.286    45689.982    -20542.73      15.2149      13.1765      28.7324    5760.2466 
    5000        4.986    228.73293    9.5498348   -698.32113    -688.7713    27001.437    48127.329    46297.907   -13420.925      15.2149      13.1765      28.7324    5760.2466 
    5500        5.486    239.42149    9.9960932   -698.76448   -688.76839    27840.437    45824.679    50841.865   -13145.232      15.2149      13.1765      28.7324    5760.2466 
    6000        5.986    237.06084    9.8975335   -698.66455   -688.76701    25530.999    45797.303    47994.024   -17198.329      15.2149      13.1765      28.7324    5760.2466 
    6500        6.486     219.5696    9.1672564   -697.93044   -688.76319    25368.511     44652.29    49129.698   -17676.457      15.2149      13.1765      28.7324    5760.2466 
    7000        6.986    237.82281    9.9293465   -698.69125    -688.7619    27726.223    46253.901    47344.331   -10419.564      15.2149      13.1765      28.7324    5760.2466 
    7500        7.486    224.42053    9.3697875   -698.12772   -688.75793    24142.017    44874.768    45849.887   -18298.604      15.2149      13.1765      28.7324    5760.2466 
    8000        7.986    211.74274    8.8404768   -697.59491   -688.75444    22014.613    42090.675    45753.544    -21800.38      15.2149      13.1765      28.7324    5760.2466 
    8500        8.486    221.16415    9.2338305   -697.98494   -688.75111    26180.984    46397.405      48442.9   -16297.353      15.2149      13.1765      28.7324    5760.2466 
    9000        8.986    215.33537    8.9904728    -697.7382   -688.74773     23126.74    45792.146    47501.297   -23913.222      15.2149      13.1765      28.7324    5760.2466 
    9500        9.486     229.9054    9.5987865   -698.34371   -688.74492    26866.898     46282.14    45868.748   -11550.194      15.2149      13.1765      28.7324    5760.2466 
   10000        9.986     215.1283    8.9818276   -697.72169   -688.73986    26946.359    48000.474     46293.67   -13455.068      15.2149      13.1765      28.7324    5760.2466 
   10500       10.486    222.05894    9.2711886   -698.00722   -688.73603    23662.079    43879.756    46394.884   -19288.403      15.2149      13.1765      28.7324    5760.2466 
   11000       10.986    215.47187    8.9961718   -697.72766   -688.73149    23239.974    45645.459    44464.063   -20389.599      15.2149      13.1765      28.7324    5760.2466 
   11500       11.486    220.32851    9.1989415   -697.92622   -688.72728     27953.27    47950.092    48782.251   -12872.532      15.2149      13.1765      28.7324    5760.2466 
   12000       11.986    221.90045    9.2645718   -697.98709   -688.72252    25811.353     44072.28     47898.93    -14537.15      15.2149      13.1765      28.7324    5760.2466 
   12500       12.486    227.42452    9.4952071   -698.21332   -688.71811    22217.738    40787.318    45403.378   -19537.482      15.2149      13.1765      28.7324    5760.2466 
   13000       12.986    224.62491    9.3783205   -698.09128   -688.71296    24157.821    44742.144    49228.408   -21497.088      15.2149      13.1765      28.7324    5760.2466 
   13500       13.486     223.1556    9.3169753    -698.0246   -688.70762    23882.533     42174.64    46268.371   -16795.411      15.2149      13.1765      28.7324    5760.2466 
   14000       13.986    218.35653    9.1166095   -697.81862   -688.70201    21811.956    43829.258     44403.11   -22796.499      15.2149      13.1765      28.7324    5760.2466 
   14500       14.486    210.93393    8.8067082   -697.50158   -688.69487    23896.995    45198.619    47995.683   -21503.317      15.2149      13.1765      28.7324    5760.2466 
   15000       14.986    222.68014    9.2971245   -697.98674   -688.68961    26958.346    46438.477    47971.597   -13535.036      15.2149      13.1765      28.7324    5760.2466 
   15500       15.486    212.57925    8.8754019   -697.55846   -688.68306    25864.333    46741.722     47450.84   -16599.561      15.2149      13.1765      28.7324    5760.2466 
   16000       15.986    229.39316    9.5773999   -698.25492   -688.67752    25282.152    45649.741    44131.035    -13934.32      15.2149      13.1765      28.7324    5760.2466 
   16500       16.486    215.61302    9.0020652   -697.67298   -688.67091    23003.991     44304.48    43497.153   -18789.659      15.2149      13.1765      28.7324    5760.2466 
   17000       16.986    220.61912    9.2110749   -697.87587   -688.66479    23048.988    42960.086    46380.823   -20193.945      15.2149      13.1765      28.7324    5760.2466 
   17500       17.486    218.57405    9.1256908   -697.78291   -688.65722     26485.73     46331.35    49671.006   -16545.167      15.2149      13.1765      28.7324    5760.2466 
   18000       17.986    219.84109    9.1785914   -697.82907   -688.65048    23927.062    46242.353    43437.563   -17898.729      15.2149      13.1765      28.7324    5760.2466 
   18500       18.486    211.04077    8.8111689   -697.45357    -688.6424    23599.246    43638.701    42370.984   -15211.948      15.2149      13.1765      28.7324    5760.2466 
   19000       18.986    221.05827    9.2294098    -697.8646   -688.63519    21992.877    42555.063     46112.84   -22689.271      15.2149      13.1765      28.7324    5760.2466 
   19500       19.486    222.32823    9.2824317   -697.91054   -688.62811    23945.107    44265.675    47383.346   -19813.699      15.2149      13.1765      28.7324    5760.2466 
   20000       19.986     221.1153    9.2317908   -697.85195   -688.62016    25216.905    46877.367    48036.347   -19262.999      15.2149      13.1765      28.7324    5760.2466 
   20500       20.486     220.0035    9.1853721   -697.79677    -688.6114     27610.17    48719.664    48797.185   -14686.337      15.2149      13.1765      28.7324    5760.2466 
   21000       20.986    236.23991    9.8632589   -698.46723   -688.60397    26644.555     47247.55    47026.847   -14340.731      15.2149      13.1765      28.7324    5760.2466 
   21500       21.486    227.75316    9.5089282   -698.10368   -688.59475    25490.891    46139.269    48067.322   -17733.917      15.2149      13.1765      28.7324    5760.2466 
   22000       21.986    220.33973    9.1994101   -697.78495   -688.58554    27381.776    47988.879    48396.605   -14240.157      15.2149      13.1765      28.7324    5760.2466 
   22500       22.486    213.80556    8.9266018   -697.50303   -688.57643    24390.719    43248.638    46932.138   -17008.617      15.2149      13.1765      28.7324    5760.2466 
   23000       22.986    231.95454    9.6843401   -698.25226   -688.56792    25275.612    46656.123    46970.631    -17799.92      15.2149      13.1765      28.7324    5760.2466 
   23500       23.486    227.46795    9.4970207   -698.05608   -688.55906    28959.977    48454.233     49978.16   -11552.461      15.2149      13.1765      28.7324    5760.2466 
   24000       23.986    229.34999    9.5755977   -698.12448   -688.54888    26314.109    43912.309    47364.001   -12333.983      15.2149      13.1765      28.7324    5760.2466 
   24500       24.486    221.76669    9.2589869   -697.79806   -688.53907    24600.176    45653.387    46218.172   -18071.032      15.2149      13.1765      28.7324    5760.2466 
   25000       24.986    209.96076    8.7660772   -697.29522   -688.52914    24255.703    44538.208     45889.11   -17660.208      15.2149      13.1765      28.7324    5760.2466 
   25500       25.486    232.86175    9.7222173   -698.24225   -688.52003    26118.261    45813.348    46189.655    -13648.22      15.2149      13.1765      28.7324    5760.2466 
   26000       25.986    227.37094    9.4929701   -698.00218   -688.50921    24750.756    44423.437    46075.816   -16246.984      15.2149      13.1765      28.7324    5760.2466 
   26500       26.486    229.23585    9.5708323   -698.06995   -688.49912    22771.214    44928.998    46634.759   -23250.114      15.2149      13.1765      28.7324    5760.2466 
   27000       26.986    230.93017    9.6415719    -698.1307   -688.48913    22884.746    43837.106    44533.581   -19716.449      15.2149      13.1765      28.7324    5760.2466 
   27500       27.486    226.99699    9.4773572   -697.95618   -688.47882    23800.081      42789.2    46045.708   -17434.667      15.2149      13.1765      28.7324    5760.2466 
   28000       27.986    220.54729    9.2080758   -697.67571   -688.46763    22805.009    42314.772    46770.656     -20670.4      15.2149      13.1765      28.7324    5760.2466 
   28500       28.486    229.12542    9.5662215    -698.0235   -688.45728    24569.531    45376.713    44162.201    -15830.32      15.2149      13.1765      28.7324    5760.2466 
   29000       28.986    230.47512    9.6225728   -698.06766   -688.44509    26023.403    44709.883    49310.656   -15950.332      15.2149      13.1765      28.7324    5760.2466 
   29500       29.486    230.47271    9.6224722   -698.05728   -688.43481    24684.178     46312.64    45579.464    -17839.57      15.2149      13.1765      28.7324    5760.2466 
   30000       29.986    207.66404    8.6701867   -697.09259    -688.4224    22764.923    44869.935     44024.36   -20599.525      15.2149      13.1765      28.7324    5760.2466 
   30500       30.486    221.97282     9.267593   -697.67868   -688.41108    21049.143    42775.246    43160.136   -22787.951      15.2149      13.1765      28.7324    5760.2466 
   31000       30.986    220.21817    9.1943347   -697.59433       -688.4     24601.47    46226.058    47633.469   -20055.116      15.2149      13.1765      28.7324    5760.2466 
   31500       31.486    224.90781    9.3901318   -697.77821   -688.38808    24808.468    41574.286    46594.227   -13743.108      15.2149      13.1765      28.7324    5760.2466 
   32000       31.986    222.15251    9.2750955   -697.65172   -688.37663    25188.833    48317.008    43813.172   -16563.681      15.2149      13.1765      28.7324    5760.2466 
   32500       32.486    224.71182    9.3819494    -697.7461   -688.36415    24599.157    44644.032    46457.703   -17304.263      15.2149      13.1765      28.7324    5760.2466 
   33000       32.986    238.65584    9.9641263   -698.31658   -688.35246    24036.016    44043.999    45828.506   -17764.457      15.2149      13.1765      28.7324    5760.2466 
   33500       33.486    224.97959    9.3931289   -697.73291   -688.33978    23910.034    43933.103     46268.31   -18471.312      15.2149      13.1765      28.7324    5760.2466 
   34000       33.986    226.58973    9.4603539   -697.78817   -688.32781    23684.428    43327.284      44841.5   -17115.499      15.2149      13.1765      28.7324    5760.2466 
   34500       34.486    232.68077     9.714661   -698.02945   -688.31478     25288.09    45234.079    47356.691   -16726.501      15.2149      13.1765      28.7324    5760.2466 
   35000       34.986    228.60187    9.5443628   -697.84638   -688.30202    24534.689     44333.68    48596.267    -19325.88      15.2149      13.1765      28.7324    5760.2466 
   35500       35.486    231.96826    9.6849129     -697.974   -688.28908    24492.976    45468.105    46072.877   -18062.053      15.2149      13.1765      28.7324    5760.2466 
   36000       35.986     219.5004    9.1643673   -697.44097   -688.27661    23121.511    43989.894    45303.366   -19928.729      15.2149      13.1765      28.7324    5760.2466 
   36500       36.486    231.83098    9.6791815     -697.944   -688.26482    24015.426    42053.931    47427.348   -17435.002      15.2149      13.1765      28.7324    5760.2466 
   37000       36.986    230.87632    9.6393235   -697.89136   -688.25204    23785.858    45768.734    43897.783   -18308.945      15.2149      13.1765      28.7324    5760.2466 
   37500       37.486    237.35643    9.9098747   -698.14874   -688.23887     24901.07    44525.987    45878.549   -15701.325      15.2149      13.1765      28.7324    5760.2466 
   38000       37.986    225.10076    9.3981879   -697.62428   -688.22609    23254.887    44545.312    44403.424   -19184.074      15.2149      13.1765      28.7324    5760.2466 
   38500       38.486    226.55211    9.4587833   -697.67186   -688.21308    25118.596    47331.067    48710.857   -20686.136      15.2149      13.1765      28.7324    5760.2466 
   39000       38.986    231.99856    9.6861782    -697.8861   -688.19992    22290.064    42017.175     43645.99   -18792.973      15.2149      13.1765      28.7324    5760.2466 
   39500       39.486    235.02139    9.8123845   -697.99858   -688.18619    24127.638    45008.914    43929.419    -16555.42      15.2149      13.1765      28.7324    5760.2466 
   40000       39.986    222.30269    9.2813654   -697.45422   -688.17286    23373.386    44979.233    45837.443   -20696.519      15.2149      13.1765      28.7324    5760.2466 
   40500       40.486    226.29562    9.4480744    -697.6084   -688.16032    25270.376    43752.667    48665.083   -16606.623      15.2149      13.1765      28.7324    5760.2466 
   41000       40.986     227.3556    9.4923297   -697.63946   -688.14713    24574.231    44005.934    47498.308   -17781.548      15.2149      13.1765      28.7324    5760.2466 
   41500       41.486    215.61502    9.0021485   -697.13538   -688.13323    22514.093     41251.63    45579.541   -19288.893      15.2149      13.1765      28.7324    5760.2466 
   42000       41.986    232.34334     9.700573   -697.82246   -688.12189    25287.137    45521.932    47312.195   -16972.716      15.2149      13.1765      28.7324    5760.2466 
   42500       42.486    228.44911     9.537985   -697.64546   -688.10748     23530.49     46660.46     47391.71   -23460.701      15.2149      13.1765      28.7324    5760.2466 
   43000       42.986    238.02807    9.9379165   -698.03354   -688.09562    23706.698    42102.862    47540.601   -18523.369      15.2149      13.1765      28.7324    5760.2466 
   43500       43.486    223.45422    9.3294429   -697.41109   -688.08165    24305.924    46476.074    44713.112   -18271.413      15.2149      13.1765      28.7324    5760.2466 
   44000       43.986    220.52757    9.2072525   -697.27563   -688.06838    22803.829    40256.995     46242.14   -18087.647      15.2149      13.1765      28.7324    5760.2466 
   44500       44.486    241.95432    10.101841   -698.15811   -688.05627    22950.811     43447.72    46839.212     -21434.5      15.2149      13.1765      28.7324    5760.2466 
   45000       44.986    241.22817    10.071524   -698.11415   -688.04263    25414.872    44773.603    46156.765   -14685.751      15.2149      13.1765      28.7324    5760.2466 
   45500       45.486    229.34284    9.5752991   -697.60464   -688.02934    23501.434    42514.145    45941.985   -17951.828      15.2149      13.1765      28.7324    5760.2466 
   46000       45.986    228.55203    9.5422818   -697.55899   -688.01671    23200.382    46925.877     45362.77   -22687.501      15.2149      13.1765      28.7324    5760.2466 
   46500       46.486    244.76134    10.219037   -698.22318   -688.00414    25251.813    45835.479    47263.135   -17343.177      15.2149      13.1765      28.7324    5760.2466 
   47000       46.986    234.71925    9.7997697   -697.79073   -687.99096    23432.008    43579.856    45885.079    -19168.91      15.2149      13.1765      28.7324    5760.2466 
   47500       47.486    229.29811    9.5734316   -697.55079   -687.97736    22586.793    45852.581    45710.257   -23802.458      15.2149      13.1765      28.7324    5760.2466 
   48000       47.986    245.18674    10.236798   -698.20279   -687.96599    24597.455    41729.192    46744.732   -14681.561      15.2149      13.1765      28.7324    5760.2466 
   48500       48.486    228.52222    9.5410373   -697.49412   -687.95308    24414.071    43549.091    47217.715   -17524.592      15.2149      13.1765      28.7324    5760.2466 
   49000       48.986    246.68035    10.299158    -698.2397   -687.94054    24683.245    44941.269    47296.267     -18187.8      15.2149      13.1765      28.7324    5760.2466 
   49500       49.486    219.88329    9.1803533   -697.10667   -687.92631    24123.972    42200.481    45250.761   -15079.326      15.2149      13.1765      28.7324    5760.2466 
   50000       49.986    224.87418     9.388728   -697.30328   -687.91455    24302.001    46550.017    45784.594   -19428.608      15.2149      13.1765      28.7324    5760.2466 
   50500       50.486    236.16168    9.8599925   -697.76166   -687.90167    23586.411    42071.061    46870.549   -18182.378      15.2149      13.1765      28.7324    5760.2466 
   51000       50.986    225.64345    9.4208457   -697.30961   -687.88877    22980.852    43701.291    44307.492   -19066.227      15.2149      13.1765      28.7324    5760.2466 
   51500       51.486    242.03622    10.105261   -697.98283   -687.87757    24140.469    45368.899    48501.454   -21448.948      15.2149      13.1765      28.7324    5760.2466 
   52000       51.986    234.17381    9.7769971   -697.64191   -687.86491      24875.5    45410.744     47460.53   -18244.773      15.2149      13.1765      28.7324    5760.2466 
   52500       52.486    228.72264    9.5494051   -697.40179   -687.85239    24158.434    47313.776    46539.094    -21377.57      15.2149      13.1765      28.7324    5760.2466 
   53000       52.986    228.99528    9.5607881   -697.40036   -687.83957    23243.359     45533.88    46490.634   -22294.436      15.2149      13.1765      28.7324    5760.2466 
   53500       53.486    235.52465    9.8333959   -697.66183   -687.82844     23326.07    43408.323    46777.634   -20207.747      15.2149      13.1765      28.7324    5760.2466 
   54000       53.986    242.01466    10.104361   -697.92031   -687.81595    24332.626    42572.709    47770.135   -17344.967      15.2149      13.1765      28.7324    5760.2466 
   54500       54.486    238.28705     9.948729   -697.75235   -687.80362    23314.477    43090.957    46932.994   -20080.519      15.2149      13.1765      28.7324    5760.2466 
   55000       54.986     236.6421    9.8800507   -697.67225    -687.7922    21712.489    42702.647    46991.743   -24556.922      15.2149      13.1765      28.7324    5760.2466 
   55500       55.486    223.33758    9.3245732   -697.10434   -687.77977    25619.559    42281.027    49156.086   -14578.437      15.2149      13.1765      28.7324    5760.2466 
   56000       55.986    232.95584    9.7261455   -697.49426   -687.76811    24360.408    44178.556    44539.325   -15636.658      15.2149      13.1765      28.7324    5760.2466 
   56500       56.486    252.98307    10.562303   -698.31921   -687.75691    24408.362    44398.062    47231.316   -18404.292      15.2149      13.1765      28.7324    5760.2466 
   57000       56.986    239.02852    9.9796862   -697.72517   -687.74549    23676.049    42971.341      45558.7   -17501.892      15.2149      13.1765      28.7324    5760.2466 
   57500       57.486    231.51879    9.6661471   -697.40003   -687.73388    24308.409    46193.533    46502.236   -19770.543      15.2149      13.1765      28.7324    5760.2466 
   58000       57.986    246.61994    10.296636   -698.01856   -687.72193    23538.104    43163.646    44510.013   -17059.348      15.2149      13.1765      28.7324    5760.2466 
   58500       58.486    240.79654    10.053503   -697.76439   -687.71088    23783.605    45326.739    47435.153   -21411.078      15.2149      13.1765      28.7324    5760.2466 
   59000       58.986     242.9214    10.142218   -697.84162    -687.6994    23423.364    43976.237    45325.964   -19032.108      15.2149      13.1765      28.7324    5760.2466 
   59500       59.486    245.04243    10.230773   -697.91835   -687.68758    24798.338    45688.837    47533.883   -18827.705      15.2149      13.1765      28.7324    5760.2466 
   60000       59.986    226.57327    9.4596665   -697.13516    -687.6755    24332.501    44518.644    45924.393   -17445.533      15.2149      13.1765      28.7324    5760.2466 
   60500       60.486    240.32476    10.033805   -697.69929   -687.66549      24424.8    45830.633    48713.322   -21269.556      15.2149      13.1765      28.7324    5760.2466 
   61000       60.986    242.64664    10.130746   -697.78458   -687.65384    23791.571    44579.519    48042.499   -21247.304      15.2149      13.1765      28.7324    5760.2466 
   61500       61.486    229.70458    9.5904023   -697.23254   -687.64214    22835.374    42947.587    48242.373   -22683.838      15.2149      13.1765      28.7324    5760.2466 
   62000       61.986    241.48496    10.082245   -697.71342   -687.63118    24031.144    40687.222    50572.415   -19166.206      15.2149      13.1765      28.7324    5760.2466 
   62500       62.486    252.43216    10.539302   -698.15966   -687.62036    22421.937    42975.442    47737.651   -23447.282      15.2149      13.1765      28.7324    5760.2466 
   63000       62.986    245.25664    10.239717   -697.84921    -687.6095    23739.125    44437.993    45143.009   -18363.627      15.2149      13.1765      28.7324    5760.2466 
   63500       63.486     227.9764    9.5182486   -697.11608   -687.59784    23135.616    41497.578    44885.841   -16976.572      15.2149      13.1765      28.7324    5760.2466 
   64000       63.986     246.0716    10.273742   -697.86147   -687.58773    24325.882    46009.477    46348.819   -19380.649      15.2149      13.1765      28.7324    5760.2466 
   64500       64.486    233.18402    9.7356722    -697.3118   -687.57613    24787.649    47776.514    45848.441   -19262.007      15.2149      13.1765      28.7324    5760.2466 
   65000       64.986    222.89598    9.3061359   -696.87155   -687.56542     24374.57    43001.225    48261.142   -18138.657      15.2149      13.1765      28.7324    5760.2466 
   65500       65.486    232.29549    9.6985751   -697.25303   -687.55446    24425.988    44278.023    44664.726   -15664.785      15.2149      13.1765      28.7324    5760.2466 
   66000       65.986    239.82319    10.012865   -697.55668   -687.54381    23805.181    43303.315    45567.497   -17455.267      15.2149      13.1765      28.7324    5760.2466 
   66500       66.486    230.88223    9.6395702   -697.17227    -687.5327    23861.973    44024.933    45873.964    -18312.98      15.2149      13.1765      28.7324    5760.2466 
   67000       66.986    239.22038    9.9876967   -697.50976   -687.52207    24375.874     43864.09    45674.669   -16411.136      15.2149      13.1765      28.7324    5760.2466 
   67500       67.486     227.1947    9.4856121   -696.99662   -687.51101    23583.136    45795.391    47683.399   -22729.383      15.2149      13.1765      28.7324    5760.2466 
   68000       67.986    226.28573    9.4476616   -696.94746    -687.4998    23794.699    45859.034    46828.055    -21302.99      15.2149      13.1765      28.7324    5760.2466 
   68500       68.486    233.96931     9.768459   -697.25817   -687.48971    24843.157    45419.257    48371.755    -19261.54      15.2149      13.1765      28.7324    5760.2466 
   69000       68.986    243.26871    10.156718   -697.63669   -687.47997    24403.394    44881.581     46405.96   -18077.358      15.2149      13.1765      28.7324    5760.2466 
   69500       69.486    230.04182     9.604482   -697.07244   -687.46796     22810.34    44199.653    46329.027   -22097.659      15.2149      13.1765      28.7324    5760.2466 
   70000       69.986    239.03112    9.9797948   -697.43812   -687.45833    23187.302    40719.893     50356.06   -21514.046      15.2149      13.1765      28.7324    5760.2466 
   70500       70.486    239.13643    9.9841917   -697.43148   -687.44729    24892.745    42560.757    46898.134   -14780.656      15.2149      13.1765      28.7324    5760.2466 
   71000       70.986    255.28335    10.658342   -698.09605    -687.4377    21879.803    43937.489    42828.179   -21126.259      15.2149      13.1765      28.7324    5760.2466 
   71500       71.486    243.34617    10.159952   -697.58578   -687.42583     22935.62    42845.503    45356.265   -19394.908      15.2149      13.1765      28.7324    5760.2466 
   72000       71.986    234.47429    9.7895424   -697.20506   -687.41552    22829.178    45128.941      43102.5   -19743.907      15.2149      13.1765      28.7324    5760.2466 
   72500       72.486    232.64652    9.7132309   -697.11749   -687.40426    23085.585    43767.505    46756.331   -21267.082      15.2149      13.1765      28.7324    5760.2466 
   73000       72.986    229.87531    9.5975301   -696.99102   -687.39349    24171.252    42598.242    48532.599   -18617.086      15.2149      13.1765      28.7324    5760.2466 
   73500       73.486    235.45319    9.8304125   -697.21314   -687.38273    23575.614    44223.994    45143.189    -18640.34      15.2149      13.1765      28.7324    5760.2466 
   74000       73.986    232.44111    9.7046552    -697.0769   -687.37224     23958.96    44803.385    46071.685    -18998.19      15.2149      13.1765      28.7324    5760.2466 
   74500       74.486    226.87902    9.4724319   -696.83351   -687.36108    24758.255    46543.631    45190.843   -17459.708      15.2149      13.1765      28.7324    5760.2466 
   75000       74.986    241.58279    10.086329   -697.43739   -687.35106    23761.374    43426.675    46372.782   -18515.334      15.2149      13.1765      28.7324    5760.2466 
   75500       75.486    250.47015    10.457386   -697.79731   -687.33992    24377.267    43184.352     48241.62   -18294.171      15.2149      13.1765      28.7324    5760.2466 
   76000       75.986    233.17915    9.7354688   -697.06407    -687.3286    23683.643    45067.914    46510.322   -20527.307      15.2149      13.1765      28.7324    5760.2466 
   76500       76.486    238.42263    9.9543897   -697.27243   -687.31804    23590.526    45307.703    46204.487   -20740.611      15.2149      13.1765      28.7324    5760.2466 
   77000       76.986    258.63545    10.798296   -698.10691   -687.30862    23936.883    44561.623    44079.408   -16830.382      15.2149      13.1765      28.7324    5760.2466 
   77500       77.486    242.00057    10.103772   -697.40073   -687.29696    24316.659    42528.242    48765.893    -18344.16      15.2149      13.1765      28.7324    5760.2466 
   78000       77.986    244.83114    10.221952   -697.50769   -687.28574    23561.951    42535.527    45035.994   -16885.669      15.2149      13.1765      28.7324    5760.2466 
   78500       78.486    244.81828    10.221415   -697.49625   -687.27484    24181.597    45262.891    45423.053   -18141.154      15.2149      13.1765      28.7324    5760.2466 
   79000       78.986    248.27746    10.365839   -697.63026   -687.26442    22956.733    42352.874    44222.481   -17705.156      15.2149      13.1765      28.7324    5760.2466 
   79500       79.486    248.17945    10.361747    -697.6147   -687.25295    24363.172    45133.487    47718.588    -19762.56      15.2149      13.1765      28.7324    5760.2466 
   80000       79.986    235.56402    9.8350399   -697.07631   -687.24127    24723.995    44327.182    47001.862   -17157.058      15.2149      13.1765      28.7324    5760.2466 
   80500       80.486    226.82094    9.4700073   -696.70038   -687.23037    25094.642    44186.698    47620.785   -16523.557      15.2149      13.1765      28.7324    5760.2466 
   81000       80.986    243.45875    10.164653   -697.38457   -687.21991    24137.342    43219.548    48555.453   -19362.974      15.2149      13.1765      28.7324    5760.2466 
   81500       81.486    247.56274    10.335998   -697.54489   -687.20889    24854.742    47181.932    49099.499   -21717.206      15.2149      13.1765      28.7324    5760.2466 
   82000       81.986     232.9835    9.7273004   -696.92428   -687.19698    22549.412    44003.346    47523.789   -23878.901      15.2149      13.1765      28.7324    5760.2466 
   82500       82.486    249.79354    10.429137   -697.61556   -687.18643    24812.739      45099.5    50964.986    -21626.27      15.2149      13.1765      28.7324    5760.2466 
   83000       82.986     248.6799    10.382641    -697.5578   -687.17515    23195.541    46222.876    44670.293   -21306.547      15.2149      13.1765      28.7324    5760.2466 
   83500       83.486    248.45482    10.373244   -697.53742   -687.16417    26354.593    46394.217     51796.46   -19126.899      15.2149      13.1765      28.7324    5760.2466 
   84000       83.986    230.59251    9.6274743   -696.77907   -687.15159     24794.73    46763.653    48955.445   -21334.908      15.2149      13.1765      28.7324    5760.2466 
   84500       84.486    246.71242    10.300497   -697.44182   -687.14133    25601.661    44813.991    50443.002   -18452.009      15.2149      13.1765      28.7324    5760.2466 
   85000       84.986    224.63657    9.3788077   -696.50754   -687.12873    23695.003    42878.606    45692.238   -17485.836      15.2149      13.1765      28.7324    5760.2466 
   85500       85.486    248.59214    10.378977   -697.49638   -687.11741    25024.857    46149.742    49846.115   -20921.285      15.2149      13.1765      28.7324    5760.2466 
   86000       85.986    255.59011    10.671149   -697.77739   -687.10624    22201.499    42695.822    43653.695   -19745.019      15.2149      13.1765      28.7324    5760.2466 
   86500       86.486    240.78454    10.053002    -697.1474    -687.0944    25311.154    44159.612    47736.371   -15962.521      15.2149      13.1765      28.7324    5760.2466 
   87000       86.986    234.06593    9.7724931   -696.85444   -687.08194    23943.859     44393.89    47234.924   -19797.236      15.2149      13.1765      28.7324    5760.2466 
   87500       87.486    257.87265    10.766448   -697.83775    -687.0713    26287.266    47854.538    50837.777   -19830.515      15.2149      13.1765      28.7324    5760.2466 
   88000       87.986    237.72228    9.9251494    -696.9845   -687.05935    22300.933    42449.812    47138.978   -22685.992      15.2149      13.1765      28.7324    5760.2466 
   88500       88.486    235.71677    9.8414173   -696.88905   -687.04763    24733.792     46570.34     46139.06   -18508.023      15.2149      13.1765      28.7324    5760.2466 
   89000       88.986    242.91955    10.142141   -697.17925   -687.03711    24723.549     42887.81    45554.079   -14271.242      15.2149      13.1765      28.7324    5760.2466 
   89500       89.486     254.4083    10.621808   -697.64582   -687.02401    24836.004    42182.271    47220.412   -14894.671      15.2149      13.1765      28.7324    5760.2466 
   90000       89.986    254.19016      10.6127    -697.6249    -687.0122    23743.787    43005.472    43217.006   -14991.117      15.2149      13.1765      28.7324    5760.2466 
   90500       90.486    248.32263    10.367725    -697.3675   -686.99978    23468.756     44580.33    45886.025   -20060.086      15.2149      13.1765      28.7324    5760.2466 
   91000       90.986    250.08342     10.44124    -697.4303   -686.98906     22760.18        45978    42813.463   -20510.923      15.2149      13.1765      28.7324    5760.2466 
   91500       91.486     240.6158    10.045957   -697.02205   -686.97609    24582.685    49563.461    48855.047   -24670.453      15.2149      13.1765      28.7324    5760.2466 
   92000       91.986    243.82576    10.179976    -697.1439   -686.96392    23485.052    40521.243    46146.666   -16212.753      15.2149      13.1765      28.7324    5760.2466 
   92500       92.486    251.90759    10.517401   -697.46934   -686.95194    25048.996    46279.396    47424.119   -18556.529      15.2149      13.1765      28.7324    5760.2466 
   93000       92.986    254.57842    10.628911   -697.56882   -686.93991    25243.635    46241.064    46625.439     -17135.6      15.2149      13.1765      28.7324    5760.2466 
   93500       93.486    259.86053    10.849444   -697.77627   -686.92682    24110.459    45694.567    46360.453   -19723.642      15.2149      13.1765      28.7324    5760.2466 
   94000       93.986    251.60652    10.504831   -697.42055   -686.91572    24801.671    46150.256    45218.526   -16963.769      15.2149      13.1765      28.7324    5760.2466 
   94500       94.486    227.12187    9.4825711   -696.38398   -686.90141    25033.639    44712.439    47307.036   -16918.557      15.2149      13.1765      28.7324    5760.2466 
   95000       94.986    250.86282     10.47378   -697.36377   -686.88999    23221.683    44302.245    46597.475   -21234.671      15.2149      13.1765      28.7324    5760.2466 
   95500       95.486    254.97746    10.645571   -697.52281   -686.87724    23653.823    42626.778    46199.894   -17865.201      15.2149      13.1765      28.7324    5760.2466 
   96000       95.986    248.93763    10.393402   -697.25724   -686.86384    23196.639    43913.783    45517.345   -19841.211      15.2149      13.1765      28.7324    5760.2466 
   96500       96.486    254.26361    10.615767   -697.46843   -686.85266    23433.583    42470.342    46241.751   -18411.343      15.2149      13.1765      28.7324    5760.2466 
   97000       96.986     257.0214    10.730907   -697.57066   -686.83975    23115.902    42733.915    46466.813   -19853.022      15.2149      13.1765      28.7324    5760.2466 
   97500       97.486    248.69818    10.383404   -697.20979   -686.82639    25461.152    44593.817    45789.359    -13999.72      15.2149      13.1765      28.7324    5760.2466 
   98000       97.986    249.77791    10.428484    -697.2417   -686.81321    25217.631    44806.663    48739.743   -17893.512      15.2149      13.1765      28.7324    5760.2466 
   98500       98.486     229.9099    9.5989742   -696.39875   -686.79977    23802.356    44908.313    46870.453   -20371.698      15.2149      13.1765      28.7324    5760.2466 
   99000       98.986    247.17768    10.319922   -697.10782    -686.7879    26335.048    45588.739    47144.116   -13727.713      15.2149      13.1765      28.7324    5760.2466 
   99500       99.486    238.48018    9.9567926   -696.73134   -686.77454    23684.055    42397.108    48040.546    -19385.49      15.2149      13.1765      28.7324    5760.2466 
  100000       99.986    244.65886    10.214759    -696.9758   -686.76104    24144.482    46057.654    45443.908   -19068.115      15.2149      13.1765      28.7324    5760.2466 
  100500      100.486    246.90561    10.308563   -697.05713   -686.74857     22656.17     44986.32    43172.926   -20190.737      15.2149      13.1765      28.7324    5760.2466 
  101000      100.986    247.82178    10.346814   -697.08215   -686.73533    25927.788    45761.657    47310.874   -15289.168      15.2149      13.1765      28.7324    5760.2466 
  101500      101.486    240.39533    10.036752   -696.75808   -686.72133    23865.729    42804.557    46205.766   -17413.137      15.2149      13.1765      28.7324    5760.2466 
  102000      101.986    253.00056    10.563033   -697.27253    -686.7095    24486.573    46616.748    44739.703   -17896.732      15.2149      13.1765      28.7324    5760.2466 
  102500      102.486    242.02403    10.104752   -696.79948   -686.69473    23969.894    47366.963    43392.636   -18849.916      15.2149      13.1765      28.7324    5760.2466 
  103000      102.986    247.86402    10.348577   -697.02995   -686.68137    23278.125    46743.194      46011.3   -22920.118      15.2149      13.1765      28.7324    5760.2466 
  103500      103.486    247.44838    10.331224   -696.99968   -686.66846    23185.999    42387.478    45388.589   -18218.069      15.2149      13.1765      28.7324    5760.2466 
  104000      103.986    258.38466    10.787825   -697.44312   -686.65529    24570.994    45673.061    47756.408   -19716.487      15.2149      13.1765      28.7324    5760.2466 
  104500      104.486    260.07073     10.85822   -697.49934   -686.64112    23270.993    42954.483    47207.804   -20349.309      15.2149      13.1765      28.7324    5760.2466 
  105000      104.986    262.90683     10.97663   -697.60383    -686.6272    23784.592     43893.29    48079.257   -20618.771      15.2149      13.1765      28.7324    5760.2466 
  105500      105.486     238.9988    9.9784452    -696.5927   -686.61425     24794.83    43044.295     47126.42   -15786.225      15.2149      13.1765      28.7324    5760.2466 
  106000      105.986    256.51377    10.709713   -697.30966   -686.59995     25153.93    46447.086    45638.415   -16623.711      15.2149      13.1765      28.7324    5760.2466 
  106500      106.486    262.02421     10.93978   -697.52749   -686.58771     23117.33    45127.564    45096.635   -20872.208      15.2149      13.1765      28.7324    5760.2466 
  107000      106.986    250.11376    10.442506   -697.01504   -686.57253    24673.569    46888.199    46876.785   -19744.279      15.2149      13.1765      28.7324    5760.2466 
  107500      107.486    236.23459    9.8630368   -696.42112   -686.55808    25842.061    46146.806     48284.86   -16905.484      15.2149      13.1765      28.7324    5760.2466 
  108000      107.986    261.07858    10.900299   -697.44558   -686.54528    23816.151    44084.281    46952.202   -19588.031      15.2149      13.1765      28.7324    5760.2466 
  108500      108.486    245.06998    10.231923   -696.76215   -686.53023     25205.42    44753.186    49704.462   -18841.389      15.2149      13.1765      28.7324    5760.2466 
  109000      108.986    242.08677    10.107371   -696.62341   -686.51604    25085.779    47246.107      45569.7   -17558.471      15.2149      13.1765      28.7324    5760.2466 
  109500      109.486    251.16542    10.486414   -696.98933   -686.50291     23625.69    42806.123    46870.497   -18799.549      15.2149      13.1765      28.7324    5760.2466 
  110000      109.986    244.90983    10.225237   -696.71389   -686.48865    24789.845     45688.31     47416.74   -18735.515      15.2149      13.1765      28.7324    5760.2466 
  110500      110.486    250.15696     10.44431   -696.91833   -686.47402     22457.77    45404.054     44478.61   -22509.354      15.2149      13.1765      28.7324    5760.2466 
  111000      110.986    252.93167    10.560157   -697.02019   -686.46004    23535.696    43435.012    46451.793   -19279.717      15.2149      13.1765      28.7324    5760.2466 
  111500      111.486    262.74667    10.969943   -697.41567   -686.44572    23768.834    44469.161    45699.056   -18861.714      15.2149      13.1765      28.7324    5760.2466 
  112000      111.986    260.64941    10.882381   -697.31453   -686.43214    24235.426    46793.873    46298.773   -20386.367      15.2149      13.1765      28.7324    5760.2466 
  112500      112.486    258.83686    10.806705   -697.22378   -686.41707    24160.619    47907.764    44372.967   -19798.872      15.2149      13.1765      28.7324    5760.2466 
  113000      112.986    256.39927    10.704933   -697.10803    -686.4031    24420.618    40741.381      46870.3   -14349.826      15.2149      13.1765      28.7324    5760.2466 
  113500      113.486    231.40062    9.6612137   -696.04842   -686.38721    25118.468    45960.202    45929.411   -16534.208      15.2149      13.1765      28.7324    5760.2466 
  114000      113.986    258.79217    10.804839   -697.17899   -686.37416    24808.335    44116.396    48924.604   -18615.995      15.2149      13.1765      28.7324    5760.2466 
  114500      114.486    234.99015    9.8110802   -696.16981   -686.35873    23110.967    44028.211     47130.94    -21826.25      15.2149      13.1765      28.7324    5760.2466 
  115000      114.986    249.03339      10.3974   -696.74187   -686.34447    24691.077     43168.65    49474.143   -18569.562      15.2149      13.1765      28.7324    5760.2466 
  115500      115.486    253.27801    10.574617   -696.90446   -686.32985    24654.145    44179.966    47102.043   -17319.574      15.2149      13.1765      28.7324    5760.2466 
  116000      115.986    255.17776    10.653934   -696.96943    -686.3155    25338.321    44167.861    48309.683   -16462.582      15.2149      13.1765      28.7324    5760.2466 
  116500      116.486    249.48792    10.416377   -696.71756   -686.30118    24087.336    46772.843    46559.794   -21070.629      15.2149      13.1765      28.7324    5760.2466 
  117000      116.986    241.50911    10.083253   -696.36893   -686.28567    25294.686    50452.267    44273.691     -18841.9      15.2149      13.1765      28.7324    5760.2466 
  117500      117.486    252.72769    10.551641   -696.82358   -686.27194     23950.68    47292.858    43377.199   -18818.017      15.2149      13.1765      28.7324    5760.2466 
  118000      117.986    259.75419    10.845004   -697.10211   -686.25711    24113.303    43343.412    46625.131   -17628.634      15.2149      13.1765      28.7324    5760.2466 
  118500      118.486    245.50422    10.250053   -696.49262   -686.24256    25455.136    45142.079    53412.365   -22189.037      15.2149      13.1765      28.7324    5760.2466 
  119000      118.986    258.57199    10.795646   -697.02371   -686.22806    24744.599    44941.069    51132.122   -21839.393      15.2149      13.1765      28.7324    5760.2466 
  119500      119.486    264.25549    11.032938   -697.24576   -686.21283    24065.538    42174.188    49003.186   -18980.761      15.2149      13.1765      28.7324    5760.2466 
  120000      119.986    249.67948    10.424375   -696.62147   -686.19709    24422.447     43752.38    46391.909   -16876.948      15.2149      13.1765      28.7324    5760.2466 
  120500      120.486    255.99804    10.688181    -696.8713   -686.18312    23488.388    45857.819     45570.41   -20963.064      15.2149      13.1765      28.7324    5760.2466 
  121000      120.986     249.4726    10.415737   -696.58318   -686.16744    25729.934     46365.71    47330.772   -16506.681      15.2149      13.1765      28.7324    5760.2466 
  121500      121.486    265.04362    11.065843    -697.2192   -686.15336    23826.601    44040.191    45149.999   -17710.387      15.2149      13.1765      28.7324    5760.2466 
  122000      121.986     254.5571     10.62802    -696.7662   -686.13818    23740.455    47262.914    46385.922    -22427.47      15.2149      13.1765      28.7324    5760.2466 
  122500      122.486    262.72732    10.969135   -697.09198   -686.12285    25213.651    45766.808    48375.924    -18501.78      15.2149      13.1765      28.7324    5760.2466 
  123000      122.986    251.91482    10.517702   -696.62544   -686.10774    24338.954    46450.491    44856.758   -18290.388      15.2149      13.1765      28.7324    5760.2466 
  123500      123.486    252.06845    10.524116   -696.61651   -686.09239    23855.511    46087.024    43406.732   -17927.222      15.2149      13.1765      28.7324    5760.2466 
  124000      123.986    252.70723    10.550786    -696.6276   -686.07682    23819.566     44354.48    47592.681   -20488.463      15.2149      13.1765      28.7324    5760.2466 
  124500      124.486    245.25303    10.239566   -696.30088   -686.06132    23270.209    42662.927    46394.379   -19246.678      15.2149      13.1765      28.7324    5760.2466 
  125000      124.986    259.77819    10.846006   -696.89277   -686.04676     23673.58    43687.793    46424.371   -19091.425      15.2149      13.1765      28.7324    5760.2466 
  125500      125.486    262.89777    10.976252   -697.00886   -686.03261    24376.417    44035.477    45741.067   -16647.292      15.2149      13.1765      28.7324    5760.2466 
  126000      125.986    263.64164    11.007309   -697.02462   -686.01732     25859.65    43648.053     47204.01   -13273.114      15.2149      13.1765      28.7324    5760.2466 
  126500      126.486    264.45802    11.041394   -697.04362   -686.00223    25282.297    45452.411    47326.188   -16931.707      15.2149      13.1765      28.7324    5760.2466 
  127000      126.986    254.67173    10.632806   -696.61877   -685.98597    25485.859    43596.704    46143.015   -13282.141      15.2149      13.1765      28.7324    5760.2466 
  127500      127.486    251.23208    10.489197   -696.45969   -685.97049    24441.627    46171.008    44676.638   -17522.763      15.2149      13.1765      28.7324    5760.2466 
  128000      127.986    257.01316    10.730563   -696.68622   -685.95565    26942.884    45644.025    48719.464   -13534.836      15.2149      13.1765      28.7324    5760.2466 
  128500      128.486    262.49976    10.959634   -696.89963      -685.94    24861.751    44412.107    48413.559   -18240.412      15.2149      13.1765      28.7324    5760.2466 
  129000      128.986    254.59364    10.629546   -696.55446   -685.92491    24562.601    44814.743    44772.967   -15899.906      15.2149      13.1765      28.7324    5760.2466 
  129500      129.486    257.05846    10.732455   -696.64208   -685.90962    24387.875    45438.104    45263.998   -17538.477      15.2149      13.1765      28.7324    5760.2466 
  130000      129.986    262.87465    10.975287   -696.86953   -685.89425    24625.409    47984.543    47166.348   -21274.664      15.2149      13.1765      28.7324    5760.2466 
  130500      130.486    254.84404        10.64   -696.51871   -685.87871    24407.172    44932.037    46138.638   -17849.158      15.2149      13.1765      28.7324    5760.2466 
  131000      130.986    262.91689     10.97705   -696.84006   -685.86301    24197.024    47392.236    44854.811   -19655.975      15.2149      13.1765      28.7324    5760.2466 
  131500      131.486     255.8676    10.682735   -696.53021   -685.84747    23297.781    42988.719    48294.725   -21390.101      15.2149      13.1765      28.7324    5760.2466 
  132000      131.986    255.22807    10.656034   -696.48756   -685.83152    25218.581     44702.74    48584.133   -17631.131      15.2149      13.1765      28.7324    5760.2466 
  132500      132.486    259.67845    10.841842    -696.6583   -685.81646    23685.751    43888.347    47929.378   -20760.472      15.2149      13.1765      28.7324    5760.2466 
  133000      132.986    256.29333     10.70051   -696.50159   -685.80108    26049.418    43796.896    51356.738    -17005.38      15.2149      13.1765      28.7324    5760.2466 
  133500      133.486    262.90049    10.976366   -696.76224   -685.78588    25822.583    47357.671    47837.028    -17726.95      15.2149      13.1765      28.7324    5760.2466 
  134000      133.986    249.87457     10.43252   -696.20243   -685.76991    25609.933    48013.334    48676.942   -19860.477      15.2149      13.1765      28.7324    5760.2466 
  134500      134.486    261.77037    10.929182   -696.68316   -685.75397     24251.41    45360.222    47589.063   -20195.055      15.2149      13.1765      28.7324    5760.2466 
  135000      134.986    268.00659     11.18955    -696.9284   -685.73885     24353.62    44210.263    46580.984   -17730.388      15.2149      13.1765      28.7324    5760.2466 
  135500      135.486    256.76196    10.720076   -696.44307     -685.723    23933.806    45612.128    47757.851   -21568.559      15.2149      13.1765      28.7324    5760.2466 
  136000      135.986    257.27559     10.74152   -696.44826   -685.70674    23425.893    46370.114    45721.518   -21813.954      15.2149      13.1765      28.7324    5760.2466 
  136500      136.486    265.68218    11.092504   -696.78434   -685.69184    24057.562    45505.523    45989.874   -19322.709      15.2149      13.1765      28.7324    5760.2466 
  137000      136.986    263.54109    11.003111   -696.67916   -685.67605     23716.92    44126.543    45007.248   -17983.031      15.2149      13.1765      28.7324    5760.2466 
  137500      137.486    260.76773    10.887321   -696.54718   -685.65986    23270.253    45170.261    44888.137    -20247.64      15.2149      13.1765      28.7324    5760.2466 
  138000      137.986    256.18919    10.696162   -696.34005   -685.64389     24083.29    45737.675    48191.878   -21679.683      15.2149      13.1765      28.7324    5760.2466 
  138500      138.486    266.57587    11.129816   -696.75853   -685.62872    24291.446    44840.806    46753.364   -18719.833      15.2149      13.1765      28.7324    5760.2466 
  139000      138.986    249.68725    10.424699   -696.03623   -685.61153    24456.779    42462.613     47408.68   -16500.957      15.2149      13.1765      28.7324    5760.2466 
  139500      139.486    272.87461    11.392795   -696.98991   -685.59712    23390.767    43928.605    47628.661   -21384.966      15.2149      13.1765      28.7324    5760.2466 
  140000      139.986    273.81072    11.431879   -697.01371   -685.58183    24303.585    47327.114    43502.593   -17918.951      15.2149      13.1765      28.7324    5760.2466 
  140500      140.486    258.65114    10.798951   -696.36424   -685.56529    24279.752    45648.148    48305.616   -21114.509      15.2149      13.1765      28.7324    5760.2466 
  141000      140.986    263.86456    11.016616   -696.56727   -685.55065     24053.01    44897.708    48444.454    -21183.13      15.2149      13.1765      28.7324    5760.2466 
  141500      141.486    267.19359    11.155607   -696.68922   -685.53361    23193.929    45682.099    43356.657    -19456.97      15.2149      13.1765      28.7324    5760.2466 
  142000      141.986    257.31377    10.743114    -696.2602   -685.51709    23806.128    43879.408    45740.371   -18201.393      15.2149      13.1765      28.7324    5760.2466 
  142500      142.486    268.46942    11.208874   -696.71094   -685.50206    23828.925    44136.298     44279.99   -16929.512      15.2149      13.1765      28.7324    5760.2466 
  143000      142.986    266.59504    11.130617   -696.61628   -685.48566    22529.695    45595.272    44972.751   -22978.939      15.2149      13.1765      28.7324    5760.2466 
  143500      143.486    265.12698    11.069324   -696.54011   -685.47079    25065.975    44591.891    49013.094   -18407.059      15.2149      13.1765      28.7324    5760.2466 
  144000      143.986    248.09007    10.358015   -695.81162    -685.4536    24259.116    45272.438    47554.254   -20049.344      15.2149      13.1765      28.7324    5760.2466 
  144500      144.486    260.12654     10.86055   -696.29881   -685.43826    24045.853    45493.664     47486.56   -20842.663      15.2149      13.1765      28.7324    5760.2466 
  145000      144.986    259.12132    10.818581   -696.24087   -685.42229     23699.65    43366.158    46801.277   -19068.485      15.2149      13.1765      28.7324    5760.2466 
  145500      145.486    257.22378    10.739357   -696.14569   -685.40634     23867.52    45544.478    43791.756   -17733.673      15.2149      13.1765      28.7324    5760.2466 
  146000      145.986    251.21522    10.488493   -695.87881   -685.39032    24632.974    45970.142    47341.252   -19412.473      15.2149      13.1765      28.7324    5760.2466 
  146500      146.486    268.13371    11.194858   -696.57004   -685.37518    24418.807    42333.088    47325.567   -16402.234      15.2149      13.1765      28.7324    5760.2466 
  147000      146.986    262.81266    10.972698   -696.33163   -685.35894    25454.712    45089.609    47558.249   -16283.721      15.2149      13.1765      28.7324    5760.2466 
  147500      147.486    261.77591    10.929413   -696.27189   -685.34248    24066.636    47431.418    47071.446   -22302.958      15.2149      13.1765      28.7324    5760.2466 
  148000      147.986    265.66563    11.091813   -696.41773   -685.32592    23190.454    42815.791    45733.776   -18978.206      15.2149      13.1765      28.7324    5760.2466 
  148500      148.486     255.9363    10.685603   -695.99573   -685.31013    25435.279    47685.358    48466.947   -19846.468      15.2149      13.1765      28.7324    5760.2466 
  149000      148.986    254.12687    10.610058   -695.90453   -685.29448     24283.77    41948.125    48222.306   -17319.121      15.2149      13.1765      28.7324    5760.2466 
  149500      149.486    265.48925    11.084449   -696.36305   -685.27861    24259.007    45307.017    44289.054   -16819.051      15.2149      13.1765      28.7324    5760.2466 
  150000      149.986    262.71175    10.968485   -696.23114   -685.26265    25542.189    45687.168    47966.662   -17027.264      15.2149      13.1765      28.7324    5760.2466 
  150500      150.486    271.60645    11.339848   -696.58696   -685.24712    21791.164    41689.341    45503.888   -21819.737      15.2149      13.1765      28.7324    5760.2466 
  151000      150.986    259.67138    10.841547   -696.07231   -685.23076    21778.974    43412.782    46196.105   -24271.965      15.2149      13.1765      28.7324    5760.2466 
  151500      151.486    267.73441    11.178187   -696.39301   -685.21482    25033.301    43530.046    47116.376   -15546.519      15.2149      13.1765      28.7324    5760.2466 
  152000      151.986    266.86315     11.14181   -696.34111    -685.1993    22720.981    42083.456    47033.713   -20954.228      15.2149      13.1765      28.7324    5760.2466 
  152500      152.486    276.20865    11.531995   -696.71523   -685.18323    26355.721    47244.846    47094.264   -15271.946      15.2149      13.1765      28.7324    5760.2466 
  153000      152.986    265.00058    11.064046   -696.23045    -685.1664    22126.588    46803.267    42782.928   -23206.433      15.2149      13.1765      28.7324    5760.2466 
  153500      153.486    261.92461    10.935621   -696.08564   -685.15001    25217.081    45983.369    47514.318   -17846.443      15.2149      13.1765      28.7324    5760.2466 
  154000      153.986    267.24492     11.15775   -696.29179   -685.13404    23757.317    43860.904    45651.466   -18240.418      15.2149      13.1765      28.7324    5760.2466 
  154500      154.486    266.06398    11.108444   -696.22638   -685.11793    26056.446    46648.314    50672.373   -19151.348      15.2149      13.1765      28.7324    5760.2466 
  155000      154.986    274.98945    11.481092   -696.58342   -685.10232    23657.652    44199.548    44430.732   -17657.323      15.2149      13.1765      28.7324    5760.2466 
  155500      155.486     275.7711    11.513727   -696.59932   -685.08559    25161.529    45389.166    48211.103   -18115.683      15.2149      13.1765      28.7324    5760.2466 
  156000      155.986     271.1567    11.321071    -696.3897   -685.06862    22472.372    44365.741    44457.044   -21405.669      15.2149      13.1765      28.7324    5760.2466 
  156500      156.486     271.6228    11.340531   -696.39321   -685.05268    26519.123    44855.347    51951.701   -17249.679      15.2149      13.1765      28.7324    5760.2466 
  157000      156.986    268.24019    11.199303   -696.23595   -685.03664    24373.225    45890.661    48147.019   -20918.005      15.2149      13.1765      28.7324    5760.2466 
  157500      157.486    276.98356    11.564348   -696.58499   -685.02064    24461.987    43098.248     46810.02   -16522.307      15.2149      13.1765      28.7324    5760.2466 
  158000      157.986    274.56139     11.46322   -696.46733   -685.00411    24602.868    45733.153    48671.893   -20596.441      15.2149      13.1765      28.7324    5760.2466 
  158500      158.486    263.89856    11.018036   -696.00558   -684.98754    24741.949    45033.185    44076.697   -14884.036      15.2149      13.1765      28.7324    5760.2466 
  159000      158.986    277.96136    11.605172   -696.57662   -684.97145    24360.056     45678.88    45155.731   -17754.445      15.2149      13.1765      28.7324    5760.2466 
  159500      159.486    274.64048    11.466522   -696.42067   -684.95415    23555.209    47117.217    45023.327   -21474.919      15.2149      13.1765      28.7324    5760.2466 
  160000      159.986    275.79008    11.514519   -696.45327   -684.93875      24712.2    44677.124    47793.082   -18333.604      15.2149      13.1765      28.7324    5760.2466 
  160500      160.486    273.93457     11.43705   -696.35852   -684.92147    23177.236    44028.727    46064.844   -20561.863      15.2149      13.1765      28.7324    5760.2466 
  161000      160.986    275.99966    11.523269   -696.42968   -684.90641    24830.921    45966.474    46143.083   -17616.795      15.2149      13.1765      28.7324    5760.2466 
  161500      161.486    259.29746    10.825935   -695.71465   -684.88871     25292.67    44515.075    50317.657   -18954.722      15.2149      13.1765      28.7324    5760.2466 
  162000      161.986    270.50988    11.294065   -696.16733   -684.87326    23635.792    43097.591    46882.998   -19073.214      15.2149      13.1765      28.7324    5760.2466 
  162500      162.486    270.69883    11.301954   -696.15799   -684.85603    23626.714     43071.32    46779.853   -18971.031      15.2149      13.1765      28.7324    5760.2466 
  163000      162.986    273.29394    11.410302   -696.25056   -684.84026    23837.034    44905.979    47807.032    -21201.91      15.2149      13.1765      28.7324    5760.2466 
  163500      163.486     280.9346    11.729308   -696.55341    -684.8241    23757.852    46674.852    44896.076   -20297.374      15.2149      13.1765      28.7324    5760.2466 
  164000      163.986    280.94726    11.729837   -696.53679   -684.80696    23668.519    44771.356    45609.493   -19375.294      15.2149      13.1765      28.7324    5760.2466 
  164500      164.486    274.87989    11.476518   -696.26699   -684.79047    25093.695    43315.957    45864.318   -13899.189      15.2149      13.1765      28.7324    5760.2466 
  165000      164.986    275.58213    11.505837   -696.27926   -684.77342    23948.693    43158.981    44347.389    -15660.29      15.2149      13.1765      28.7324    5760.2466 
  165500      165.486    276.37532    11.538953   -696.29658   -684.75763    24659.592    44171.739    45674.281   -15867.242      15.2149      13.1765      28.7324    5760.2466 
  166000      165.986    261.69448    10.926013   -695.66662    -684.7406    23278.758    46079.467    47832.897   -24076.089      15.2149      13.1765      28.7324    5760.2466 
  166500      166.486    259.56585    10.837141   -695.56151   -684.72437    22756.437    42656.963    48583.571   -22971.224      15.2149      13.1765      28.7324    5760.2466 
  167000      166.986    261.77792    10.929497   -695.63732   -684.70783    22171.185    42789.475    48726.264   -25002.184      15.2149      13.1765      28.7324    5760.2466 
  167500      167.486    284.52481    11.879203   -696.57094   -684.69174    23400.555     42221.59    47319.166   -19339.091      15.2149      13.1765      28.7324    5760.2466 
  168000      167.986    272.86906    11.392564   -696.06705   -684.67448    22430.679    40923.297    44802.728   -18433.988      15.2149      13.1765      28.7324    5760.2466 
  168500      168.486    265.44981    11.082802   -695.74031    -684.6575    24515.181    44761.722    45965.803   -17181.983      15.2149      13.1765      28.7324    5760.2466 
  169000      168.986    269.94397    11.270438   -695.91244     -684.642    23829.828    43054.068    46847.692   -18412.276      15.2149      13.1765      28.7324    5760.2466 
  169500      169.486    263.95622    11.020443   -695.64506   -684.62462    24344.828    46094.811    48644.879   -21705.205      15.2149      13.1765      28.7324    5760.2466 
  170000      169.986    287.48982    12.002995   -696.61182   -684.60883    24802.704    44049.849    48113.146   -17754.883      15.2149      13.1765      28.7324    5760.2466 
  170500      170.486    282.92585    11.812445   -696.40406   -684.59161    23567.958    42202.461    46733.137   -18231.723      15.2149      13.1765      28.7324    5760.2466 
  171000      170.986    278.88682    11.643811   -696.21795   -684.57414    25065.755    45428.934    44760.332   -14992.001      15.2149      13.1765      28.7324    5760.2466 
  171500      171.486    285.07583    11.902208   -696.46009   -684.55789    24033.013    42877.576    47569.298   -18347.836      15.2149      13.1765      28.7324    5760.2466 
  172000      171.986     278.7582    11.638441   -696.18002   -684.54158    25887.589    45579.793      48210.9   -16127.925      15.2149      13.1765      28.7324    5760.2466 
  172500      172.486    258.04466     10.77363   -695.29743    -684.5238    22872.388    40980.052    47538.234   -19901.121      15.2149      13.1765      28.7324    5760.2466 
  173000      172.986    265.93601    11.103102   -695.61052   -684.50742    23940.388    44992.523    47209.378   -20380.737      15.2149      13.1765      28.7324    5760.2466 
  173500      173.486    272.90161    11.393923   -695.88463   -684.49071      24819.5    42451.395    47449.011   -15441.906      15.2149      13.1765      28.7324    5760.2466 
  174000      173.986    274.84337    11.474993    -695.9489   -684.47391    24719.493    46258.917    45351.255   -17451.692      15.2149      13.1765      28.7324    5760.2466 
  174500      174.486    289.06084    12.068587    -696.5261   -684.45751    24958.277    49636.395    44154.661   -18916.225      15.2149      13.1765      28.7324    5760.2466 
  175000      174.986    273.30173    11.410628   -695.85147   -684.44084    24220.695    46112.877    46540.891   -19991.682      15.2149      13.1765      28.7324    5760.2466 
  175500      175.486    290.86945    12.144098   -696.56848   -684.42438    25796.837    45321.905    47383.935   -15315.328      15.2149      13.1765      28.7324    5760.2466 
  176000      175.986    273.41564    11.415384   -695.82312   -684.40774    24203.224    44834.847    46783.944   -19009.117      15.2149      13.1765      28.7324    5760.2466 
  176500      176.486    289.23883    12.076018     -696.466   -684.38999    24513.307    43462.257     50609.99   -20532.327      15.2149      13.1765      28.7324    5760.2466 
  177000      176.986    260.00915    10.855649   -695.22768   -684.37204    21580.352    44546.199    46471.317   -26276.459      15.2149      13.1765      28.7324    5760.2466 
  177500      177.486    263.33036    10.994313   -695.35082    -684.3565     22421.75    43899.275    45496.058   -22130.084      15.2149      13.1765      28.7324    5760.2466 
  178000      177.986     278.7103    11.636441   -695.97577   -684.33933    23848.624    42842.163    47151.177   -18447.468      15.2149      13.1765      28.7324    5760.2466 
  178500      178.486    279.98422    11.689628    -696.0128   -684.32317    23694.746    45155.652    48011.122   -22082.537      15.2149      13.1765      28.7324    5760.2466 
  179000      178.986    277.81951     11.59925   -695.90617   -684.30692    23634.108    41918.949    44310.275     -15326.9      15.2149      13.1765      28.7324    5760.2466 
  179500      179.486      272.861    11.392227    -695.6811   -684.28888    23571.319    47331.781     45492.59   -22110.414      15.2149      13.1765      28.7324    5760.2466 
  180000      179.986    267.12985    11.152946   -695.42554    -684.2726    23350.364    47896.998    44225.801   -22071.708      15.2149      13.1765      28.7324    5760.2466 
  180500      180.486    270.16452    11.279646   -695.53551   -684.25587     24763.42     46991.99    43924.674   -16626.404      15.2149      13.1765      28.7324    5760.2466 
  181000      180.986    272.30506    11.369016   -695.60816   -684.23914    25845.775    44941.349    49420.177   -16824.202      15.2149      13.1765      28.7324    5760.2466 
  181500      181.486    264.54077    11.044849   -695.26663   -684.22179    23371.043    46093.545    46010.227   -21990.642      15.2149      13.1765      28.7324    5760.2466 
  182000      181.986    273.53726    11.420462   -695.62545   -684.20499    22597.464    43557.913    48673.107   -24438.628      15.2149      13.1765      28.7324    5760.2466 
  182500      182.486    270.74336    11.303813   -695.49269   -684.18887    25895.058    44553.004    48008.085   -14875.915      15.2149      13.1765      28.7324    5760.2466 
  183000      182.986    275.08654    11.485145    -695.6562   -684.17106     22910.55    42080.434    47726.757   -21075.541      15.2149      13.1765      28.7324    5760.2466 
  183500      183.486    286.49708    11.961547   -696.11592   -684.15437    25124.014    44506.119    47435.407   -16569.484      15.2149      13.1765      28.7324    5760.2466 
  184000      183.986    276.61735    11.549058   -695.68582   -684.13676    23872.381    48936.542    46393.801     -23713.2      15.2149      13.1765      28.7324    5760.2466 
  184500      184.486    278.45166    11.625643    -695.7454   -684.11975    25343.646    46631.322    47479.737   -18080.122      15.2149      13.1765      28.7324    5760.2466 
  185000      184.986    278.07183    11.609785   -695.71314   -684.10335    25081.038     43413.55     45849.45   -14019.885      15.2149      13.1765      28.7324    5760.2466 
  185500      185.486    289.92938    12.104849   -696.19158   -684.08674    22687.703    41459.633    44844.367   -18240.892      15.2149      13.1765      28.7324    5760.2466 
  186000      185.986    277.86732    11.601246   -695.66963   -684.06839     23813.91    43106.174    46236.439   -17900.882      15.2149      13.1765      28.7324    5760.2466 
  186500      186.486    289.46434    12.085433   -696.13776   -684.05232     25030.85    45791.715     47423.45   -18122.614      15.2149      13.1765      28.7324    5760.2466 
  187000      186.986    287.25254    11.993088   -696.02758    -684.0345    24731.068    44640.775    46964.773   -17412.343      15.2149      13.1765      28.7324    5760.2466 
  187500      187.486    278.39739    11.623377   -695.64135   -684.01797    23912.988    45617.068    45868.322   -19746.425      15.2149      13.1765      28.7324    5760.2466 
  188000      187.986    281.82215    11.766364   -695.76637         -684    23420.656    47146.677    46984.172   -23868.882      15.2149      13.1765      28.7324    5760.2466 
  188500      188.486    281.55625    11.755262   -695.73843   -683.98316    24414.649    43346.017    46401.287   -16503.356      15.2149      13.1765      28.7324    5760.2466 
  189000      188.986    290.43948    12.126146   -696.09289   -683.96674    24095.317    47901.608    46179.244   -21794.902      15.2149      13.1765      28.7324    5760.2466 
  189500      189.486    289.92127    12.104511   -696.05453   -683.95002    23223.308    44939.851    44903.116   -20173.043      15.2149      13.1765      28.7324    5760.2466 
  190000      189.986    280.53382    11.712575   -695.64482   -683.93224    18748.855    42323.934    43836.731     -29914.1      15.2149      13.1765      28.7324    5760.2466 
  190500      190.486    267.14752    11.153683   -695.06963   -683.91595    20656.171    42802.455    44363.069    -25197.01      15.2149      13.1765      28.7324    5760.2466 
  191000      190.986     278.8926    11.644053   -695.54366   -683.89961    22167.166    43993.625    43224.505   -20716.633      15.2149      13.1765      28.7324    5760.2466 
  191500      191.486    255.77387    10.678822   -694.56075   -683.88193    23003.253    43701.045    47654.239   -22345.526      15.2149      13.1765      28.7324    5760.2466 
  192000      191.986     286.9582    11.980799   -695.84627   -683.86548    23382.286    42613.694    45653.127   -18119.962      15.2149      13.1765      28.7324    5760.2466 
  192500      192.486    293.72602    12.263363     -696.113   -683.84964    23211.702    41818.187    45944.502   -18127.584      15.2149      13.1765      28.7324    5760.2466 
  193000      192.986    287.19892     11.99085   -695.82237   -683.83152    24944.923    45830.925    47943.876   -18940.032      15.2149      13.1765      28.7324    5760.2466 
  193500      193.486    268.44337    11.207787   -695.02163   -683.81385    23421.696    45993.567    45692.348   -21420.828      15.2149      13.1765      28.7324    5760.2466 
  194000      193.986     280.5125    11.711685   -695.50984   -683.79816    22960.828    44294.958    46149.164   -21561.638      15.2149      13.1765      28.7324    5760.2466 
  194500      194.486    282.33061    11.787593   -695.56834   -683.78075    23846.023    43889.504      44060.5   -16411.936      15.2149      13.1765      28.7324    5760.2466 
  195000      194.986    268.09739    11.193341   -694.95663   -683.76328     24279.85    47288.114     44199.17   -18647.734      15.2149      13.1765      28.7324    5760.2466 
  195500      195.486     291.7793    12.182085   -695.92921   -683.74713    21316.295    42777.794    44216.707   -23045.616      15.2149      13.1765      28.7324    5760.2466 
  196000      195.986    271.22182     11.32379   -695.05191   -683.72812    24053.757    44851.821    46629.155   -19319.705      15.2149      13.1765      28.7324    5760.2466 
  196500      196.486    275.06806    11.484374   -695.19622   -683.71184    22134.241    42433.496     45153.11   -21183.882      15.2149      13.1765      28.7324    5760.2466 
  197000      196.986    305.30856    12.746946   -696.44256   -683.69561     23120.58    44830.723    46661.619   -22130.601      15.2149      13.1765      28.7324    5760.2466 
  197500      197.486    299.56155    12.507002   -696.18538   -683.67838    23210.026    44070.936    47059.116   -21499.973      15.2149      13.1765      28.7324    5760.2466 
  198000      197.986    273.43662     11.41626    -695.0761   -683.65984    23612.954     46565.04     44569.02   -20295.198      15.2149      13.1765      28.7324    5760.2466 
  198500      198.486    289.42309    12.083711   -695.72678   -683.64306    23980.505    43328.375    47709.808   -19096.667      15.2149      13.1765      28.7324    5760.2466 
  199000      198.986    288.16603    12.031228   -695.65668   -683.62545    22352.447     43991.83    46770.593   -23705.082      15.2149      13.1765      28.7324    5760.2466 
  199500      199.486    273.49222    11.418581   -695.02701   -683.60843    24679.165    47867.356    45620.299   -19450.158      15.2149      13.1765      28.7324    5760.2466 
  200000      199.986    314.34064    13.124044   -696.71675   -683.59271    24799.887    44376.798    47003.969   -16981.106      15.2149      13.1765      28.7324    5760.2466 
  200500      200.486    267.22125    11.156761   -694.73027   -683.57351    22297.339    43106.587    46612.502   -22827.071      15.2149      13.1765      28.7324    5760.2466 
  201000      200.986    273.58355    11.422394   -694.97886   -683.55647    24518.044    48704.038    44868.836   -20018.742      15.2149      13.1765      28.7324    5760.2466 
  201500      201.486    271.99594     11.35611   -694.89554   -683.53943    23009.984    44254.639    45570.348   -20795.033      15.2149      13.1765      28.7324    5760.2466 
  202000      201.986    285.93361    11.938022   -695.45994   -683.52192    25024.675    47603.072    45294.564   -17823.609      15.2149      13.1765      28.7324    5760.2466 
  202500      202.486    292.53589    12.213674   -695.71831   -683.50463    23512.704    46382.604    49274.296   -25118.789      15.2149      13.1765      28.7324    5760.2466 
  203000      202.986    280.19064    11.698247   -695.18466   -683.48642    23791.687    42455.287    49418.097   -20498.323      15.2149      13.1765      28.7324    5760.2466 
  203500      203.486    296.90739    12.396188   -695.86572   -683.46953    24177.581    42332.278    49587.668   -19387.204      15.2149      13.1765      28.7324    5760.2466 
  204000      203.986    300.06719    12.528113    -695.9812   -683.45309     24133.42    42327.192    48867.988   -18794.919      15.2149      13.1765      28.7324    5760.2466 
  204500      204.486    289.57612      12.0901   -695.52409   -683.43399    25594.173    44726.476    45541.804   -13485.762      15.2149      13.1765      28.7324    5760.2466 
  205000      204.986     277.2745    11.576495   -694.99185   -683.41535    23650.487    43333.368     47515.18   -19897.089      15.2149      13.1765      28.7324    5760.2466 
  205500      205.486    288.57948    12.048489   -695.44671   -683.39822    23033.453    40981.055    45493.103   -17373.798      15.2149      13.1765      28.7324    5760.2466 
  206000      205.986    293.75951    12.264761   -695.64642   -683.38166    23689.965    43463.587     48725.21   -21118.901      15.2149      13.1765      28.7324    5760.2466 
  206500      206.486    275.85407    11.517191   -694.87947   -683.36228    26258.124    46723.756    47652.612   -15601.996      15.2149      13.1765      28.7324    5760.2466 
  207000      206.986    275.97123    11.522082   -694.86719    -683.3451    24509.953    44690.977    45620.295   -16781.411      15.2149      13.1765      28.7324    5760.2466 
  207500      207.486    284.59306    11.882053   -695.20962   -683.32757    23709.079    45378.172    48943.736   -23194.673      15.2149      13.1765      28.7324    5760.2466 
  208000      207.986    295.80518     12.35017   -695.66053   -683.31036    24863.824    44007.952    44284.898   -13701.377      15.2149      13.1765      28.7324    5760.2466 
  208500      208.486    278.77111     11.63898   -694.93239   -683.29341    24740.681    49756.153    48230.389   -23764.499      15.2149      13.1765      28.7324    5760.2466 
  209000      208.986    289.42336    12.083722   -695.36015   -683.27643    26148.989     45752.47    50217.045    -17522.55      15.2149      13.1765      28.7324    5760.2466 
  209500      209.486    301.62636     12.59321   -695.85045   -683.25724    23754.822    44127.475    47543.094   -20406.104      15.2149      13.1765      28.7324    5760.2466 
  210000      209.986    291.62938    12.175826   -695.41532   -683.23949    22790.942    41586.165    45172.796   -18386.134      15.2149      13.1765      28.7324    5760.2466 
  210500      210.486    307.36606    12.832848   -696.05532   -683.22248     24939.49    46292.476    48537.385   -20011.391      15.2149      13.1765      28.7324    5760.2466 
  211000      210.986    281.88691    11.769068   -694.97255   -683.20348    23769.693    42553.638    48976.633   -20221.191      15.2149      13.1765      28.7324    5760.2466 
  211500      211.486    274.61324    11.465385   -694.65094   -683.18556     23449.49    42446.518    48847.753   -20945.802      15.2149      13.1765      28.7324    5760.2466 
  212000      211.986    294.97364    12.315452   -695.48447   -683.16902    24005.735    45780.062    48683.511   -22446.367      15.2149      13.1765      28.7324    5760.2466 
[...]
  948500      948.486    382.08436    15.952414   -691.95053   -675.99811    24613.618    44045.495    47955.821   -18160.463      15.2149      13.1765      28.7324    5760.2466 
  949000      948.986    360.62124    15.056307   -691.05091    -675.9946    21070.668    43103.129    44835.086   -24726.211      15.2149      13.1765      28.7324    5760.2466 
  949500      949.486    375.35972    15.671654   -691.66301   -675.99135    22272.675    45661.993    44552.236   -23396.205      15.2149      13.1765      28.7324    5760.2466 
  950000      949.986    374.51065    15.636204   -691.62442   -675.98822    23614.647    47780.496    48125.115   -25061.671      15.2149      13.1765      28.7324    5760.2466 
  950500      950.486    363.62975    15.181915   -691.16551    -675.9836    24399.318    46517.464     47901.09   -21220.601      15.2149      13.1765      28.7324    5760.2466 
  951000      950.986    379.69183    15.852524   -691.83276   -675.98023    23384.925     44940.46    47418.304   -22203.989      15.2149      13.1765      28.7324    5760.2466 
  951500      951.486    375.43309    15.674717   -691.65109   -675.97637    22516.346    43130.927    48512.348   -24094.236      15.2149      13.1765      28.7324    5760.2466 
  952000      951.986    362.27121    15.125195   -691.09808   -675.97288    22492.377    46062.594    46403.383   -24988.847      15.2149      13.1765      28.7324    5760.2466 
  952500      952.486    367.98495     15.36375   -691.33221   -675.96846    24619.211    44035.506    50312.741   -20490.614      15.2149      13.1765      28.7324    5760.2466 
  953000      952.986    367.10455    15.326992    -691.2924   -675.96541    25547.936    48164.475    47679.507   -19200.174      15.2149      13.1765      28.7324    5760.2466 
  953500      953.486    380.03873    15.867007   -691.82889   -675.96188    21129.525    41964.475    46793.152   -25369.051      15.2149      13.1765      28.7324    5760.2466 
  954000      953.986    379.08278    15.827095    -691.7841   -675.95701    22381.199    43838.272    49040.596   -25735.272      15.2149      13.1765      28.7324    5760.2466 
  954500      954.486    377.20363    15.748639   -691.70264     -675.954    23491.781    49972.893    45089.701    -24587.25      15.2149      13.1765      28.7324    5760.2466 
  955000      954.986    384.60141    16.057504   -692.00683   -675.94933     23430.13    44858.077    48391.778   -22959.465      15.2149      13.1765      28.7324    5760.2466 
  955500      955.486     367.7856    15.355426   -691.30087   -675.94545     21236.43    42809.298    44262.005   -23362.013      15.2149      13.1765      28.7324    5760.2466 
  956000      955.986    356.43045    14.881337   -690.82135   -675.94002    21367.084    44614.177    46680.119   -27193.044      15.2149      13.1765      28.7324    5760.2466 
  956500      956.486    369.95934    15.446183   -691.38305   -675.93686    23794.519     50647.86    45963.347   -25227.651      15.2149      13.1765      28.7324    5760.2466 
  957000      956.986    376.47524    15.718228   -691.65147   -675.93324    24852.633    46470.095     48276.25   -20188.445      15.2149      13.1765      28.7324    5760.2466 
  957500      957.486    382.40108    15.965638   -691.89545   -675.92981    23271.948    45079.039    42840.112   -18103.308      15.2149      13.1765      28.7324    5760.2466 
  958000      957.986    394.14096     16.45579   -692.38105   -675.92526    25102.774    44878.913    47374.075   -16944.667      15.2149      13.1765      28.7324    5760.2466 
  958500      958.486    359.68641    15.017277   -690.93626   -675.91898    21980.975    42357.483    47004.681    -23419.24      15.2149      13.1765      28.7324    5760.2466 
  959000      958.986    355.09264    14.825482    -690.7407   -675.91522    24456.817    41956.259    49372.271    -17958.08      15.2149      13.1765      28.7324    5760.2466 
  959500      959.486     360.8633    15.066413   -690.97825   -675.91183    24182.181    46521.164     49270.42   -23245.041      15.2149      13.1765      28.7324    5760.2466 
  960000      959.986    390.26172    16.293827   -692.20107   -675.90724    22445.375    44352.315    46186.419   -23202.609      15.2149      13.1765      28.7324    5760.2466 
  960500      960.486    368.56832    15.388106   -691.29074   -675.90263    22823.133    47934.928    45809.055   -25274.585      15.2149      13.1765      28.7324    5760.2466 
  961000      960.986    384.39957    16.049077   -691.94848   -675.89941      23036.4    45223.994    45952.786    -22067.58      15.2149      13.1765      28.7324    5760.2466 
  961500      961.486    366.39431    15.297339   -691.19193   -675.89459    22427.213    44068.785    49293.043   -26080.189      15.2149      13.1765      28.7324    5760.2466 
  962000      961.986    399.68929    16.687438   -692.57854    -675.8911    24219.359    45111.182    48522.212   -20975.316      15.2149      13.1765      28.7324    5760.2466 
  962500      962.486     388.8116    16.233283   -692.11928     -675.886    22841.937     38676.91    47646.456   -17797.556      15.2149      13.1765      28.7324    5760.2466 
  963000      962.986     384.7883    16.065307   -691.94721    -675.8819    21752.553    41535.302    46275.967    -22553.61      15.2149      13.1765      28.7324    5760.2466 
  963500      963.486    386.63213    16.142288   -692.01944   -675.87715    23997.993    43612.927    46472.661   -18091.608      15.2149      13.1765      28.7324    5760.2466 
  964000      963.986    371.44695    15.508292   -691.37982   -675.87153    22416.728    43909.096    45340.696   -21999.607      15.2149      13.1765      28.7324    5760.2466 
  964500      964.486     377.6109    15.765643   -691.63251   -675.86686    22895.009    47729.757    45219.657   -24264.386      15.2149      13.1765      28.7324    5760.2466 
  965000      964.986    338.89478    14.149205   -690.01038   -675.86118    23014.582     47991.95    44437.692   -23385.896      15.2149      13.1765      28.7324    5760.2466 
  965500      965.486    367.69694    15.351725   -691.20876   -675.85703    23130.153    47116.127    44357.399   -22083.067      15.2149      13.1765      28.7324    5760.2466 
  966000      965.986      380.347    15.879878   -691.73239   -675.85251    23590.548    48401.755      45262.1   -22892.213      15.2149      13.1765      28.7324    5760.2466 
  966500      966.486    388.51003    16.220693   -692.06815   -675.84746    22009.739    43712.987    44990.782   -22674.553      15.2149      13.1765      28.7324    5760.2466 
  967000      966.986    382.82474    15.983326   -691.82634   -675.84301    26078.728    46066.686    52980.342   -20810.842      15.2149      13.1765      28.7324    5760.2466 
  967500      967.486     378.8216    15.816191   -691.65441   -675.83822    23540.082    43830.006    49876.784   -23086.544      15.2149      13.1765      28.7324    5760.2466 
  968000      967.986    379.52152    15.845413   -691.67882    -675.8334    21782.621    43201.923    47947.056   -25801.116      15.2149      13.1765      28.7324    5760.2466 
  968500      968.486    359.49739    15.009385   -690.83616   -675.82677    22769.169    42566.285    45268.397   -19527.174      15.2149      13.1765      28.7324    5760.2466 
  969000      968.986    373.52554    15.595075   -691.41799   -675.82292    21426.372    47080.127    44620.742   -27421.754      15.2149      13.1765      28.7324    5760.2466 
  969500      969.486    390.05464    16.285182   -692.10404   -675.81886    23581.086    42108.828    46523.569    -17889.14      15.2149      13.1765      28.7324    5760.2466 
  970000      969.986    370.49757    15.468654   -691.28149   -675.81284    24324.831    43308.732    50657.923   -20992.161      15.2149      13.1765      28.7324    5760.2466 
  970500      970.486    378.85665    15.817654   -691.62555    -675.8079    21588.102    42122.451    42496.942   -19855.086      15.2149      13.1765      28.7324    5760.2466 
  971000      970.986    386.70607    16.145376   -691.94804   -675.80267    24951.729    45040.896    48908.179   -19093.887      15.2149      13.1765      28.7324    5760.2466 
  971500      971.486    379.04994    15.825724   -691.62297   -675.79725    26662.105    47263.822    48481.465    -15758.97      15.2149      13.1765      28.7324    5760.2466 
  972000      971.986    373.21482    15.582102   -691.37455   -675.79245      23366.3    47088.493    46413.573   -23403.165      15.2149      13.1765      28.7324    5760.2466 
  972500      972.486    385.74849    16.105396   -691.89215   -675.78675     21129.98    47162.009    45080.791   -28852.859      15.2149      13.1765      28.7324    5760.2466 
  973000      972.986    353.89748    14.775583   -690.55665   -675.78107    24185.535        45871    49724.714   -23039.108      15.2149      13.1765      28.7324    5760.2466 
  973500      973.486    355.50094    14.842529   -690.61838   -675.77585    23002.127    43175.811    47706.688   -21876.118      15.2149      13.1765      28.7324    5760.2466 
  974000      973.986    381.11965    15.912137   -691.68318   -675.77104    21677.506    45598.659    45032.656   -25598.797      15.2149      13.1765      28.7324    5760.2466 
  974500      974.486    375.16577    15.663556   -691.42993   -675.76638    22643.822    44518.663     46598.77   -23185.967      15.2149      13.1765      28.7324    5760.2466 
  975000      974.986    369.87549    15.442682   -691.20306   -675.76038    24176.593    46080.965    51438.878   -24990.065      15.2149      13.1765      28.7324    5760.2466 
  975500      975.486    378.28699     15.79387   -691.55013   -675.75626    23608.035    45093.129    47457.592   -21726.616      15.2149      13.1765      28.7324    5760.2466 
  976000      975.986    370.79743    15.481174   -691.23119   -675.75001    22535.507    42373.102    47662.678   -22429.259      15.2149      13.1765      28.7324    5760.2466 
  976500      976.486    376.72796    15.728779   -691.47255   -675.74377    23398.319    45802.072    44205.142   -19812.255      15.2149      13.1765      28.7324    5760.2466 
  977000      976.986    384.18277    16.040025   -691.77949   -675.73946    23430.596    47746.445    42671.727   -20126.382      15.2149      13.1765      28.7324    5760.2466 
  977500      977.486    370.66289    15.475556   -691.20803   -675.73248     22358.53    47909.202    45276.966   -26110.579      15.2149      13.1765      28.7324    5760.2466 
  978000      977.986    408.88416    17.071334   -692.80015   -675.72881    21604.066    42180.316    51402.968   -28771.086      15.2149      13.1765      28.7324    5760.2466 
  978500      978.486    365.08523    15.242683    -690.9643   -675.72162      21305.4    46409.057    39577.158   -22070.014      15.2149      13.1765      28.7324    5760.2466 
  979000      978.986    384.09657    16.036426    -691.7533   -675.71687    22906.006    43810.432    45572.863   -20665.279      15.2149      13.1765      28.7324    5760.2466 
  979500      979.486    377.64901    15.767234   -691.47762   -675.71039    23125.435    39312.366    51363.972   -21300.032      15.2149      13.1765      28.7324    5760.2466 
  980000      979.986      382.338    15.963004   -691.66884   -675.70584    22064.066    43616.586    43991.802   -21416.189      15.2149      13.1765      28.7324    5760.2466 
  980500      980.486    392.11916    16.371378    -692.0721   -675.70072     23222.74     41353.44    48138.818   -19824.036      15.2149      13.1765      28.7324    5760.2466 
  981000      980.986    365.32286    15.252604   -690.94624   -675.69364    23158.859    45768.887    46253.166   -22545.476      15.2149      13.1765      28.7324    5760.2466 
  981500      981.486    365.66322    15.266815   -690.95501   -675.68819    25841.407    46816.183    48945.048   -18237.008      15.2149      13.1765      28.7324    5760.2466 
  982000      981.986    388.22855    16.208941   -691.89139   -675.68245    21457.942    44260.712    47705.379   -27592.266      15.2149      13.1765      28.7324    5760.2466 
  982500      982.486     370.7586    15.479552   -691.15526    -675.6757    20436.036      44979.5     42022.71   -25694.101      15.2149      13.1765      28.7324    5760.2466 
  983000      982.986    376.89094    15.735584   -691.40582   -675.67024    23154.273    49233.071    46822.797   -26593.049      15.2149      13.1765      28.7324    5760.2466 
  983500      983.486    376.79624     15.73163   -691.39595   -675.66432    23603.934    43403.252    51424.682   -24016.131      15.2149      13.1765      28.7324    5760.2466 
  984000      983.986    382.67889    15.977237   -691.63604   -675.65881    23334.503    44822.677     46017.88   -20837.049      15.2149      13.1765      28.7324    5760.2466 
  984500      984.486    397.55358     16.59827   -692.25084   -675.65257    22490.074    43823.273    45578.428   -21931.479      15.2149      13.1765      28.7324    5760.2466 
  985000      984.986    369.04062    15.407825    -691.0538   -675.64597    24594.438    46566.436    48858.582   -21641.704      15.2149      13.1765      28.7324    5760.2466 
  985500      985.486    378.11785    15.786808   -691.42656   -675.63975    24721.705    48825.599     41663.05   -16323.534      15.2149      13.1765      28.7324    5760.2466 
  986000      985.986    360.90307    15.068074   -690.70153   -675.63345    22911.799    45402.774    42894.077   -19561.453      15.2149      13.1765      28.7324    5760.2466 
  986500      986.486    350.80982     14.64667   -690.27337    -675.6267    25059.287    50484.915    45661.016   -20968.069      15.2149      13.1765      28.7324    5760.2466 
  987000      986.986    353.33353    14.752038   -690.37279   -675.62075    23698.037    43396.621    46834.248   -19136.757      15.2149      13.1765      28.7324    5760.2466 
  987500      987.486    384.61439    16.058046   -691.67201   -675.61397    23713.161    44849.469    46006.673   -19716.657      15.2149      13.1765      28.7324    5760.2466 
  988000      987.986    354.34102    14.794101   -690.40251   -675.60841    23223.109    44524.694    46276.057   -21131.424      15.2149      13.1765      28.7324    5760.2466 
  988500      988.486    383.04013    15.992319   -691.59456   -675.60224    23543.477    43410.922    48308.838   -21089.328      15.2149      13.1765      28.7324    5760.2466 
  989000      988.986    376.13217    15.703904   -691.30073   -675.59682    24076.653    46444.461    43132.249   -17346.752      15.2149      13.1765      28.7324    5760.2466 
  989500      989.486    386.65922    16.143419   -691.73348   -675.59006    24760.644    51052.979    44143.891   -20914.937      15.2149      13.1765      28.7324    5760.2466 
  990000      989.986    379.11007    15.828235   -691.41288   -675.58465    24753.457    49267.587    47864.185   -22871.401      15.2149      13.1765      28.7324    5760.2466 
  990500      990.486    373.08588    15.576719   -691.15374   -675.57702    21885.282    44231.633    45598.868   -24174.654      15.2149      13.1765      28.7324    5760.2466 
  991000      990.986    379.21754    15.832722   -691.40373   -675.57101    22384.891    44875.644    42609.441   -20330.412      15.2149      13.1765      28.7324    5760.2466 
  991500      991.486    376.24576    15.708647   -691.27221   -675.56356    21195.573    46401.285    45255.946   -28070.513      15.2149      13.1765      28.7324    5760.2466 
  992000      991.986    368.85972    15.400272   -690.95719   -675.55692    23422.955    44991.211    44925.721   -19648.068      15.2149      13.1765      28.7324    5760.2466 
  992500      992.486    378.46886    15.801464   -691.35172   -675.55025    23227.252    46301.899    46417.555   -23037.699      15.2149      13.1765      28.7324    5760.2466 
  993000      992.986    399.40372    16.675515   -692.21965   -675.54413     22702.07    43946.415    49495.524   -25335.728      15.2149      13.1765      28.7324    5760.2466 
  993500      993.486    380.78384    15.898116   -691.43404   -675.53592    21966.093    44247.557    45035.504    -23384.78      15.2149      13.1765      28.7324    5760.2466 
  994000      993.986    389.09709    16.245203   -691.77656   -675.53136    22231.386    45041.454     45446.93   -23794.227      15.2149      13.1765      28.7324    5760.2466 
  994500      994.486    374.94093    15.654169   -691.17703   -675.52286    23142.463    48247.143    49877.265   -28697.019      15.2149      13.1765      28.7324    5760.2466 
  995000      994.986    365.05943    15.241606   -690.75818   -675.51657    24014.715    45197.093    47882.087   -21035.036      15.2149      13.1765      28.7324    5760.2466 
  995500      995.486    364.89762     15.23485   -690.74502   -675.51017    24727.884    41969.345    49619.963   -17405.657      15.2149      13.1765      28.7324    5760.2466 
  996000      995.986    381.89123    15.944351   -691.44816   -675.50381    25682.697    47793.614    51910.429   -22655.952      15.2149      13.1765      28.7324    5760.2466 
  996500      996.486    382.55533    15.972078   -691.46791   -675.49583    23112.541    44856.889    48145.126   -23664.392      15.2149      13.1765      28.7324    5760.2466 
  997000      996.986    391.60302    16.349828   -691.83998   -675.49015    22443.197    45499.673    43463.844   -21633.925      15.2149      13.1765      28.7324    5760.2466 
  997500      997.486    388.47372    16.219177   -691.70074   -675.48157     21430.63    42922.693    47886.598   -26517.402      15.2149      13.1765      28.7324    5760.2466 
  998000      997.986    384.68266    16.060896   -691.53674   -675.47585    21848.104    44542.572    42295.004   -21293.265      15.2149      13.1765      28.7324    5760.2466 
  998500      998.486    353.79186    14.771173   -690.23907   -675.46789    23218.571    46853.951    49190.617   -26388.856      15.2149      13.1765      28.7324    5760.2466 
  999000      998.986     387.4362    16.175859   -691.63887   -675.46301    23747.211    43052.812    48966.949   -20778.127      15.2149      13.1765      28.7324    5760.2466 
  999500      999.486    382.04211     15.95065   -691.40623   -675.45558    23004.208    41829.234    47948.725   -20765.335      15.2149      13.1765      28.7324    5760.2466 
 1000000      999.986     386.8608    16.151836   -691.60069   -675.44886    22685.635    46106.683    42493.536   -20543.313      15.2149      13.1765      28.7324    5760.2466 
 1000014         1000    367.88625    15.359629   -690.80703    -675.4474    22201.125     46717.83    43986.953   -24101.408      15.2149      13.1765      28.7324    5760.2466 
Loop time of 996.562 on 28 procs for 1000000 steps with 324 atoms

Performance: 86.698 ns/day, 0.277 hours/ns, 1003.450 timesteps/s
90.1% CPU use with 28 MPI tasks x no OpenMP threads

MPI task timing breakdown:
Section |  min time  |  avg time  |  max time  |%varavg| %total
---------------------------------------------------------------
Pair    | 761.11     | 838.99     | 936.89     | 140.7 | 84.19
Neigh   | 0          | 0          | 0          |   0.0 |  0.00
Comm    | 49.186     | 142.09     | 222.83     | 343.8 | 14.26
Output  | 0.097591   | 0.099787   | 0.11633    |   1.1 |  0.01
Modify  | 4.0675     | 10.342     | 36.794     | 335.7 |  1.04
Other   |            | 5.039      |            |       |  0.51

Nlocal:    11.5714 ave 16 max 6 min
Histogram: 3 1 3 1 0 1 6 5 3 5
Nghost:    645.357 ave 705 max 600 min
Histogram: 5 1 6 2 4 0 3 2 1 4
Neighs:    727.714 ave 1090 max 387 min
Histogram: 4 2 2 0 3 9 3 1 3 1
FullNghs:  1455.43 ave 2058 max 766 min
Histogram: 4 3 0 1 1 5 5 4 4 1

Total # of neighbors = 40752
Ave neighs/atom = 125.778
Neighbor list builds = 0
Dangerous builds = 0

write_restart   POSCAR_1x1x1.rest

#unfix    1
#undump   1
Total wall time: 0:16:36
