LAMMPS (7 Dec 2015)
#----------- Initialize Simulation ------------ restart01
#processors	2 2 2
units		metal
boundary	p p p     ## periodic boundary condition  on x y z axis ##
atom_style atomic
#atom_modify map array sort 0 0.0

read_data	POSCAR_1x1x1.lammps
  triclinic box = (0 0 0) to (15.2149 13.1765 28.7324) with tilt (-7.60743 0 0)
  2 by 2 by 7 MPI processor grid
  reading atoms ...
  324 atoms

#----------- Define Potential -----------------
pair_style meam
pair_coeff * * MgAlZn.library.meam Mg Al Zn MgAlZn.parameter.meam Mg Al Zn 	#1=Mg 2=Al 3=Zn	#atoms/mass

#----------- Neighbor List --------------------
neighbor 2.0 bin
neigh_modify delay 10 check yes

#--------------  Run a simulation (minimization) ---------------------------------------
minimize       1.0e-4   1.0e-6   100   1000          #結構優化的條件
WARNING: Resetting reneighboring criteria during minimization (../min.cpp:168)
Neighbor list info ...
  2 neighbor list requests
  update every 1 steps, delay 0 steps, check yes
  max neighbors/atom: 2000, page size: 100000
  master list distance cutoff = 8
  ghost atom cutoff = 8
  binsize = 4 -> bins = 6 4 8
Memory usage per processor = 8.64391 Mbytes
Step Temp E_pair E_mol TotEng Press 
       0            0   -720.14961            0   -720.14961    2186.0892 
       4            0   -724.41419            0   -724.41419    6534.9563 
Loop time of 0.00926685 on 28 procs for 4 steps with 324 atoms

75.1% CPU use with 28 MPI tasks x no OpenMP threads

Minimization stats:
  Stopping criterion = energy tolerance
  Energy initial, next-to-last, final = 
         -720.14960575     -724.385889826     -724.414193038
  Force two-norm initial, final = 11.1934 0.564343
  Force max component initial, final = 0.937422 0.0452896
  Final line search alpha, max atom move = 1 0.0452896
  Iterations, force evaluations = 4 8

MPI task timing breakdown:
Section |  min time  |  avg time  |  max time  |%varavg| %total
---------------------------------------------------------------
Pair    | 0.0070524  | 0.0075004  | 0.0083493  |   0.4 | 80.94
Neigh   | 0          | 0          | 0          |   0.0 |  0.00
Comm    | 0.00043889 | 0.0012255  | 0.0017251  |   1.0 | 13.22
Output  | 0          | 0          | 0          |   0.0 |  0.00
Modify  | 0          | 0          | 0          |   0.0 |  0.00
Other   |            | 0.000541   |            |       |  5.84

Nlocal:    11.5714 ave 16 max 7 min
Histogram: 1 2 3 3 3 7 3 4 0 2
Nghost:    617 ave 643 max 584 min
Histogram: 12 0 0 0 0 0 0 0 0 16
Neighs:    699.429 ave 954 max 402 min
Histogram: 1 2 1 5 3 4 4 3 3 2
FullNghs:  1398.86 ave 1965 max 874 min
Histogram: 1 2 4 4 4 4 3 4 0 2

Total # of neighbors = 39168
Ave neighs/atom = 120.889
Neighbor list builds = 0
Dangerous builds = 0
velocity all  create 393.0 4928459 #rot yes dist gaussian

#--------------  Run a simulation (Relaxation)  ----------------------------------------
fix  1  all  nvt   temp  393.0  393.0  100				#damping constant
#fix  2  all  npt   temp  393.0  393.0  50 iso 0.0 0.0 1000.0
#fix  2  all deform 1 x final 0 15.6906 y final 0 13.5884 z final 0 25.2339 xy final -7.8452 units lattice
#fix  3  all  npt   temp  393.0  393.0  50 z 0.0 0.0 1000.0

#variable b equal 1
#fix 2 all efield  0.0  0.0  v_b
#compute pot all pe/atom


#----------- Output --------------------------
thermo	 500
timestep  0.001		#1.0 fs
thermo_style	custom step time temp ke pe etotal press pxx pyy pzz lx ly lz vol

dump 1 all custom 10000 dump.eq id type x y z
dump_modify 1 sort  id

run        1000000	#10000	 ps
Neighbor list info ...
  2 neighbor list requests
  update every 1 steps, delay 10 steps, check yes
  max neighbors/atom: 2000, page size: 100000
  master list distance cutoff = 8
  ghost atom cutoff = 8
  binsize = 4 -> bins = 6 4 8
Memory usage per processor = 7.53438 Mbytes
Step Time Temp KinEng PotEng TotEng Press Pxx Pyy Pzz Lx Ly Lz Volume 
       4            0          393    16.408154   -724.41419   -708.00604     9577.524    8426.1484    8690.4659    11615.958    15.214868    13.176462    28.732378    5760.2132 
     500        0.496    659.10176    27.518175   -735.51965   -708.00148    21991.981    44038.516    43976.614   -22039.187    15.214868    13.176462    28.732378    5760.2132 
    1000        0.996    402.32883    16.797642   -724.79945    -708.0018    17790.465    28635.649    27792.871   -3057.1243    15.214868    13.176462    28.732378    5760.2132 
    1500        1.496    434.86563    18.156086   -726.16006   -708.00398    19685.132    29182.916    34576.051   -4703.5702    15.214868    13.176462    28.732378    5760.2132 
    2000        1.996    443.31419    18.508822   -726.51287   -708.00405    21233.645    36508.598    38176.953   -10984.616    15.214868    13.176462    28.732378    5760.2132 
    2500        2.496    459.35562    19.178569   -727.18209   -708.00352    22165.627    40982.541    39138.188   -13623.847    15.214868    13.176462    28.732378    5760.2132 
    3000        2.996    460.89941    19.243024   -727.24783    -708.0048    23238.501     43163.18    35582.009   -9029.6861    15.214868    13.176462    28.732378    5760.2132 
    3500        3.496    434.03664    18.121476   -726.12792   -708.00644    25213.794    30136.818    49515.603   -4011.0393    15.214868    13.176462    28.732378    5760.2132 
    4000        3.996    495.47973    20.686788   -728.69663   -708.00984    23993.107    44790.192     39856.18   -12667.051    15.214868    13.176462    28.732378    5760.2132 
    4500        4.496    508.72802    21.239917   -729.25083   -708.01092    23676.678    36822.892    44403.975   -10196.831    15.214868    13.176462    28.732378    5760.2132 
    5000        4.996     514.2524    21.470566   -729.48309   -708.01253    24970.525    41610.355    45734.343   -12433.125    15.214868    13.176462    28.732378    5760.2132 
    5500        5.496    514.99043    21.501379   -729.51626   -708.01488    23318.053    45039.733    39859.363   -14944.937    15.214868    13.176462    28.732378    5760.2132 
    6000        5.996    509.52625    21.273244   -729.29208   -708.01884    25199.183    48160.338    38746.715   -11309.505    15.214868    13.176462    28.732378    5760.2132 
    6500        6.496    526.43324    21.979128   -730.00136   -708.02223    23560.129    45229.738    38356.135   -12905.486    15.214868    13.176462    28.732378    5760.2132 
    7000        6.996    502.67639    20.987256   -729.01336   -708.02611    24407.711    36857.248    45541.254   -9175.3685    15.214868    13.176462    28.732378    5760.2132 
    7500        7.496    480.11151    20.045149   -728.07245    -708.0273    25273.233     42331.12    42562.071   -9073.4918    15.214868    13.176462    28.732378    5760.2132 
    8000        7.996    488.69179    20.403384   -728.43394   -708.03056    24809.538    42217.205    46795.337   -14583.927    15.214868    13.176462    28.732378    5760.2132 
    8500        8.496     476.6412    19.900259   -727.93408   -708.03383    25701.169    43755.632    46735.432   -13387.557    15.214868    13.176462    28.732378    5760.2132 
    9000        8.996     495.4828    20.686915   -728.72578   -708.03886    23765.546    43526.546    36663.955   -8893.8627    15.214868    13.176462    28.732378    5760.2132 
    9500        9.496    513.23976    21.428287   -729.47149   -708.04321    24624.395    43916.927    41466.221   -11509.964    15.214868    13.176462    28.732378    5760.2132 
   10000        9.996    484.31548    20.220669   -728.26768   -708.04702    25894.888    48345.211    43771.112    -14431.66    15.214868    13.176462    28.732378    5760.2132 
   10500       10.496    510.83606     21.32793   -729.38188   -708.05395    24961.847    44235.565    40818.438   -10168.463    15.214868    13.176462    28.732378    5760.2132 
   11000       10.996     508.4631    21.228856   -729.28761   -708.05876     23554.98    43959.283    41693.591   -14987.933    15.214868    13.176462    28.732378    5760.2132 
   11500       11.496    530.23207    22.137734   -730.20229   -708.06455     25066.06    42512.359    40855.761   -8169.9402    15.214868    13.176462    28.732378    5760.2132 
   12000       11.996    519.21385    21.677711   -729.74926   -708.07155    24553.693    42082.276    44858.325   -13279.523    15.214868    13.176462    28.732378    5760.2132 
   12500       12.496    516.26401    21.554552   -729.63183   -708.07728    23923.292    45386.213    44641.264   -18257.602    15.214868    13.176462    28.732378    5760.2132 
   13000       12.996    505.30756    21.097109   -729.18152   -708.08441    23333.329     43098.02    41870.348   -14968.381    15.214868    13.176462    28.732378    5760.2132 
   13500       13.496    514.78267    21.492705   -729.58475   -708.09204    26816.225     47437.99    43346.594   -10335.907    15.214868    13.176462    28.732378    5760.2132 
   14000       13.996    514.69393       21.489   -729.58979   -708.10079     24819.28    44166.327    45806.609   -15515.096    15.214868    13.176462    28.732378    5760.2132 
   14500       14.496    491.86236    20.535758   -728.64293   -708.10718    25780.773    45894.519    44759.115   -13311.314    15.214868    13.176462    28.732378    5760.2132 
   15000       14.996     505.2716    21.095608   -729.21043   -708.11482    26600.267    43908.792    48679.089   -12787.079    15.214868    13.176462    28.732378    5760.2132 
   15500       15.496    504.37041    21.057983   -729.18083   -708.12285     26180.41    48511.425    42019.139   -11989.335    15.214868    13.176462    28.732378    5760.2132 
   16000       15.996    483.24971    20.176171   -728.30504   -708.12887    26087.167    45641.248    47071.109   -14450.855    15.214868    13.176462    28.732378    5760.2132 
   16500       16.496    500.10192    20.879769   -729.01845   -708.13869    23995.212    43781.448    42014.442   -13810.253    15.214868    13.176462    28.732378    5760.2132 
   17000       16.996    490.18588    20.465764   -728.61233   -708.14657    24965.817    42795.675    44839.019   -12737.244    15.214868    13.176462    28.732378    5760.2132 
   17500       17.496    504.97899    21.083392   -729.24099   -708.15759     25079.71    44669.333    41886.639   -11316.841    15.214868    13.176462    28.732378    5760.2132 
   18000       17.996     523.4932    21.856379   -730.02429   -708.16791    25534.121    46897.366     46129.06   -16424.065    15.214868    13.176462    28.732378    5760.2132 
   18500       18.496     509.9164    21.289533   -729.46723    -708.1777    24855.416    43003.289    44634.852   -13071.892    15.214868    13.176462    28.732378    5760.2132 
   19000       18.996    509.75832    21.282933   -729.46981   -708.18688    25411.554    44641.473    43928.903   -12335.715    15.214868    13.176462    28.732378    5760.2132 
   19500       19.496     485.0619    20.251832   -728.44831   -708.19647    25251.269    44301.173    42533.865   -11081.232    15.214868    13.176462    28.732378    5760.2132 
   20000       19.996    531.56535    22.193399   -730.40203   -708.20863    23978.018    46243.332    42454.269   -16763.548    15.214868    13.176462    28.732378    5760.2132 
   20500       20.496    509.51777     21.27289   -729.49298   -708.22009    24966.392    45370.023    42084.268   -12555.116    15.214868    13.176462    28.732378    5760.2132 
   21000       20.996    512.70269    21.405864   -729.63761   -708.23175    25363.401    43500.392    42848.488   -10258.675    15.214868    13.176462    28.732378    5760.2132 
   21500       21.496    504.96492    21.082804   -729.32553   -708.24273     23960.71    44469.474    41728.146   -14315.489    15.214868    13.176462    28.732378    5760.2132 
   22000       21.996    499.63768    20.860386    -729.1162   -708.25581    24269.381    43457.361    39859.804   -10509.021    15.214868    13.176462    28.732378    5760.2132 
   22500       22.496    511.03899    21.336402   -729.60597   -708.26957     23988.55    41267.739    42408.435   -11710.525    15.214868    13.176462    28.732378    5760.2132 
   23000       22.996    511.79368    21.367912   -729.64975   -708.28184    24063.774      47031.1     41619.41   -16459.187    15.214868    13.176462    28.732378    5760.2132 
   23500       23.496    501.24984    20.927696   -729.22086   -708.29317    23905.457    43659.861    42841.258   -14784.747    15.214868    13.176462    28.732378    5760.2132 
   24000       23.996    492.43249    20.559562   -728.86476    -708.3052    26247.883    44788.042    46348.534   -12392.927    15.214868    13.176462    28.732378    5760.2132 
   24500       24.496    456.50514    19.059558    -727.3775   -708.31794    25635.403    46262.831    42518.418   -11875.039    15.214868    13.176462    28.732378    5760.2132 
   25000       24.996    497.24344    20.760424   -729.09509   -708.33466    25465.245    46898.543    47679.029   -18181.837    15.214868    13.176462    28.732378    5760.2132 
   25500       25.496    508.93289    21.248471   -729.59679   -708.34832    25328.588    42987.178     45475.43   -12476.844    15.214868    13.176462    28.732378    5760.2132 
   26000       25.996    500.38343    20.891522   -729.25316   -708.36164     25267.51    46947.648     42631.23    -13776.35    15.214868    13.176462    28.732378    5760.2132 
   26500       26.496    464.75743      19.4041   -727.77862   -708.37452    24883.361    40568.967    43417.979    -9336.861    15.214868    13.176462    28.732378    5760.2132 
   27000       26.996    487.20983     20.34151   -728.73211    -708.3906    21698.444    39844.048    41365.584     -16114.3    15.214868    13.176462    28.732378    5760.2132 
   27500       27.496    497.19492    20.758398   -729.16403   -708.40564    24650.066    44215.882    45380.685   -15646.369    15.214868    13.176462    28.732378    5760.2132 
   28000       27.996    508.13039    21.214965   -729.63727    -708.4223     23356.02    39920.407    42649.836   -12502.183    15.214868    13.176462    28.732378    5760.2132 
   28500       28.496    494.01727    20.625728   -729.06312    -708.4374    26912.491    44378.894    44721.388    -8362.809    15.214868    13.176462    28.732378    5760.2132 
   29000       28.996    502.66776    20.986895   -729.43781   -708.45092    24430.908    47065.687    41931.387   -15704.349    15.214868    13.176462    28.732378    5760.2132 
   29500       29.496    500.54286    20.898178   -729.36602   -708.46784    26564.229    45501.091    45604.323   -11412.727    15.214868    13.176462    28.732378    5760.2132 
   30000       29.996    489.64641     20.44324   -728.92643   -708.48319    24196.825    41748.913    44024.438   -13182.876    15.214868    13.176462    28.732378    5760.2132 
   30500       30.496    501.98869    20.958543   -729.45985    -708.5013    26318.997    46536.528    42857.426   -10436.963    15.214868    13.176462    28.732378    5760.2132 
   31000       30.996    502.14527     20.96508   -729.48278    -708.5177    23945.702    42332.561    41749.466   -12244.921    15.214868    13.176462    28.732378    5760.2132 
   31500       31.496    499.04941    20.835826   -729.36991   -708.53408    24469.283    43815.639    40164.683   -10572.474    15.214868    13.176462    28.732378    5760.2132 
   32000       31.996    509.54452    21.274007   -729.82591    -708.5519    24218.454    43791.914    43716.529   -14853.081    15.214868    13.176462    28.732378    5760.2132 
   32500       32.496    513.58752    21.442806   -730.01271   -708.56991    26054.961    45744.888    41003.275   -8583.2792    15.214868    13.176462    28.732378    5760.2132 
   33000       32.996    487.56553    20.356362   -728.94324   -708.58688    25274.549    44377.282    41821.856    -10375.49    15.214868    13.176462    28.732378    5760.2132 
   33500       33.496    488.07083    20.377458   -728.98277   -708.60531    25008.342    42557.832    43452.066   -10984.873    15.214868    13.176462    28.732378    5760.2132 
   34000       33.996    497.01332    20.750816   -729.37325   -708.62244    25126.222    42187.799    46904.602   -13713.734    15.214868    13.176462    28.732378    5760.2132 
   34500       34.496    491.45601    20.518793   -729.15961   -708.64082    24557.469    42618.717     42707.97    -11654.28    15.214868    13.176462    28.732378    5760.2132 
   35000       34.996    482.52815    20.146046   -728.80534   -708.65929    25635.474    43595.731    42122.296   -8811.6044    15.214868    13.176462    28.732378    5760.2132 
   35500       35.496    483.53076    20.187906   -728.86612   -708.67822    25943.246    43203.832    46395.072   -11769.166    15.214868    13.176462    28.732378    5760.2132 
   36000       35.996    508.19292    21.217576   -729.91552   -708.69795    24726.225    46588.235    40382.397   -12791.956    15.214868    13.176462    28.732378    5760.2132 
   36500       36.496    487.46659    20.352231   -729.06849   -708.71626     23553.42    40996.796    42541.435   -12877.971    15.214868    13.176462    28.732378    5760.2132 
   37000       36.996    522.18882    21.801919   -730.53971   -708.73779     23631.47    42353.727    42365.498   -13824.816    15.214868    13.176462    28.732378    5760.2132 
   37500       37.496    486.32949    20.304756   -729.06064   -708.75588    26497.273    49652.141    43686.874   -13847.196    15.214868    13.176462    28.732378    5760.2132 
   38000       37.996    491.07548    20.502906   -729.27967   -708.77676    27596.622    48554.809    44670.996   -10435.937    15.214868    13.176462    28.732378    5760.2132 
   38500       38.496    515.08795    21.505451   -730.30155    -708.7961     23696.86    39613.305    45315.736    -13838.46    15.214868    13.176462    28.732378    5760.2132 
   39000       38.996     509.6287    21.277521   -730.09448   -708.81696    24165.039    44734.754    43532.241    -15771.88    15.214868    13.176462    28.732378    5760.2132 
   39500       39.496    512.60004    21.401578   -730.23736   -708.83578    25580.953    47476.455    43924.806   -14658.402    15.214868    13.176462    28.732378    5760.2132 
   40000       39.996    514.44355    21.478546   -730.33517   -708.85663     25869.34    46607.228    42106.876   -11106.084    15.214868    13.176462    28.732378    5760.2132 
   40500       40.496     500.5481    20.898397   -729.77598   -708.87758    24781.857    44312.241    44549.994   -14516.664    15.214868    13.176462    28.732378    5760.2132 
   41000       40.996    491.04201    20.501508   -729.39895   -708.89744     25020.42    42078.778    45012.385   -12029.904    15.214868    13.176462    28.732378    5760.2132 
   41500       41.496    490.29857    20.470469   -729.38908   -708.91861    24686.195      43881.9    42445.556    -12268.87    15.214868    13.176462    28.732378    5760.2132 
   42000       41.996    493.29712    20.595661   -729.53547   -708.93981    24770.818    44869.581    43677.114   -14234.242    15.214868    13.176462    28.732378    5760.2132 
   42500       42.496    474.25308    19.800553   -728.75954   -708.95899    24080.933    45286.376    42066.846   -15110.423    15.214868    13.176462    28.732378    5760.2132 
   43000       42.996    500.37916    20.891344   -729.87398   -708.98263    23789.954     47202.58    43025.147   -18857.864    15.214868    13.176462    28.732378    5760.2132 
   43500       43.496    497.03838    20.751863   -729.75614   -709.00428    25170.091    43825.077    41260.771   -9575.5739    15.214868    13.176462    28.732378    5760.2132 
   44000       43.996    486.79356    20.324131   -729.34967   -709.02554    25030.249    44592.167    42814.723   -12316.143    15.214868    13.176462    28.732378    5760.2132 
   44500       44.496    476.53509    19.895829   -728.94191   -709.04608    24423.394    48112.266    41544.957   -16387.042    15.214868    13.176462    28.732378    5760.2132 
   45000       44.996    466.32877    19.469705    -728.5359   -709.06619    23366.681    42814.924    40837.195   -13552.075    15.214868    13.176462    28.732378    5760.2132 
   45500       45.496    510.51913    21.314698   -730.40417   -709.08948    24364.651    44907.654    40857.568   -12671.267    15.214868    13.176462    28.732378    5760.2132 
   46000       45.996     500.9709    20.916049   -730.02741   -709.11136    23348.077    41311.586    43489.275   -14756.631    15.214868    13.176462    28.732378    5760.2132 
   46500       46.496    489.76423    20.448159   -729.58108   -709.13292    24597.399    42202.826    43424.253   -11834.884    15.214868    13.176462    28.732378    5760.2132 
   47000       46.996    497.47503    20.770093   -729.92582   -709.15572    25459.667    46578.597     43832.35   -14031.946    15.214868    13.176462    28.732378    5760.2132 
   47500       47.496    460.39031    19.221768   -728.39731   -709.17554    25744.673      44372.2    46910.345   -14048.527    15.214868    13.176462    28.732378    5760.2132 
   48000       47.996    509.19373    21.259361   -730.45901   -709.19964    25071.167    43916.174    44616.131   -13318.804    15.214868    13.176462    28.732378    5760.2132 
   48500       48.496    495.72262    20.696928   -729.91814   -709.22122    26301.066    45684.175    44337.012   -11117.989    15.214868    13.176462    28.732378    5760.2132 
   49000       48.996    465.28115    19.425966   -728.66767    -709.2417    26651.647    47669.526    47264.332   -14978.916    15.214868    13.176462    28.732378    5760.2132 
   49500       49.496    484.61411    20.233137   -729.49765   -709.26452    24686.383    45204.837    44390.502    -15536.19    15.214868    13.176462    28.732378    5760.2132 
   50000       49.996    482.75804    20.155644   -729.44311   -709.28747    26418.474    44157.011    47581.752   -12483.341    15.214868    13.176462    28.732378    5760.2132 
   50500       50.496    490.68468    20.486589   -729.79763   -709.31104    24056.054    43953.926    41105.394   -12891.159    15.214868    13.176462    28.732378    5760.2132 
   51000       50.996    483.61237    20.191313   -729.52341    -709.3321    27943.144     47100.66    46108.488   -9379.7155    15.214868    13.176462    28.732378    5760.2132 
   51500       51.496    480.07554    20.043647   -729.39777   -709.35413    25820.994    46635.597    44024.446   -13197.061    15.214868    13.176462    28.732378    5760.2132 
   52000       51.996    491.24882    20.510143   -729.88795   -709.37781    25354.085    45686.567    41451.615   -11075.926    15.214868    13.176462    28.732378    5760.2132 
   52500       52.496    474.36077    19.805049   -729.20243   -709.39738    25077.085    48440.914    42838.324   -16047.982    15.214868    13.176462    28.732378    5760.2132 
   53000       52.996    478.01885    19.957778   -729.37906   -709.42128    25283.482    42949.173    40171.133   -7269.8594    15.214868    13.176462    28.732378    5760.2132 
   53500       53.496    495.83389    20.701574   -730.14446   -709.44289    23950.805    43786.892    41256.211   -13190.688    15.214868    13.176462    28.732378    5760.2132 
   54000       53.996    459.15515    19.170199   -728.63344   -709.46324    25519.041    40968.119    45052.392   -9463.3892    15.214868    13.176462    28.732378    5760.2132 
   54500       54.496    459.33322    19.177634   -728.66286   -709.48523    24677.032    41459.299     45416.25   -12844.454    15.214868    13.176462    28.732378    5760.2132 
   55000       54.996     456.6595    19.066003   -728.57382   -709.50781    25932.438    43230.467    45388.021   -10821.175    15.214868    13.176462    28.732378    5760.2132 
   55500       55.496    494.78765    20.657892    -730.1885   -709.53061    24165.524    45191.239    45330.295   -18024.963    15.214868    13.176462    28.732378    5760.2132 
   56000       55.996    472.15672    19.713028   -729.26322   -709.55019    25029.153      42731.5    44645.366   -12289.408    15.214868    13.176462    28.732378    5760.2132 
   56500       56.496     454.9917    18.996371   -728.56748   -709.57111    25724.947    44197.739    42324.299   -9347.1954    15.214868    13.176462    28.732378    5760.2132 
   57000       56.996    481.16935    20.089314   -729.68278   -709.59347     26101.25    46772.641    39946.157   -8415.0472    15.214868    13.176462    28.732378    5760.2132 
   57500       57.496    470.38612    19.639104   -729.25455   -709.61545    22389.187    39849.877     47234.57   -19916.887    15.214868    13.176462    28.732378    5760.2132 
   58000       57.996    464.53043    19.394622   -729.03071   -709.63609    24389.102    43876.911    43920.696     -14630.3    15.214868    13.176462    28.732378    5760.2132 
   58500       58.496    482.83955    20.159047   -729.81721   -709.65816    23252.231    41669.899    40295.671   -12208.875    15.214868    13.176462    28.732378    5760.2132 
   59000       58.996    470.23545    19.632813   -729.31035   -709.67754    22952.746    42467.057    40441.732   -14050.551    15.214868    13.176462    28.732378    5760.2132 
   59500       59.496     487.8665    20.368927   -730.06994   -709.70101    23861.766     43791.98    41978.965   -14185.646    15.214868    13.176462    28.732378    5760.2132 
   60000       59.996    478.82766    19.991547   -729.71181   -709.72027     24227.59    42266.462    44321.804   -13905.497    15.214868    13.176462    28.732378    5760.2132 
   60500       60.496    461.28664    19.259191   -728.99979    -709.7406    23861.861    42918.476     43734.22   -15067.115    15.214868    13.176462    28.732378    5760.2132 
   61000       60.996    488.34799     20.38903   -730.15245   -709.76342    24149.289    42377.245    44362.187   -14291.566    15.214868    13.176462    28.732378    5760.2132 
   61500       61.496    485.16263    20.256038   -730.04088   -709.78484    25205.928    40109.638    46660.228   -11152.083    15.214868    13.176462    28.732378    5760.2132 
   62000       61.996    472.92399    19.745062   -729.54974   -709.80468    23399.216     44797.66    39889.351   -14489.363    15.214868    13.176462    28.732378    5760.2132 
   62500       62.496    453.86856    18.949478   -728.77288    -709.8234    23976.849    42030.021    42966.275   -13065.748    15.214868    13.176462    28.732378    5760.2132 
   63000       62.996    495.39777    20.683365   -730.52927    -709.8459    23126.539    44333.721    41290.181   -16244.284    15.214868    13.176462    28.732378    5760.2132 
   63500       63.496     470.3644    19.638197   -729.50393   -709.86573    25201.579    45981.797    42766.205   -13143.263    15.214868    13.176462    28.732378    5760.2132 
   64000       63.996    479.31145    20.011745   -729.89741   -709.88567    24411.061    44533.505    42974.214   -14274.534    15.214868    13.176462    28.732378    5760.2132 
   64500       64.496    456.65308    19.065735   -728.97158   -709.90585    25688.689    44380.474    45179.927   -12494.333    15.214868    13.176462    28.732378    5760.2132 
   65000       64.996    481.52414    20.104127   -730.03121   -709.92709    25650.682    45152.806    44848.761   -13049.521    15.214868    13.176462    28.732378    5760.2132 
   65500       65.496    475.34885    19.846303   -729.79318   -709.94688    23114.136    42131.401    42326.857   -15115.848    15.214868    13.176462    28.732378    5760.2132 
   66000       65.996    491.18447    20.507456   -730.47305   -709.96559    23209.082    42442.303    44802.236   -17617.292    15.214868    13.176462    28.732378    5760.2132 
   66500       66.496    484.52674    20.229489   -730.21614   -709.98665    24109.656    42626.036    45244.054   -15541.121    15.214868    13.176462    28.732378    5760.2132 
   67000       66.996    495.26417    20.677788   -730.68326   -710.00548    25441.605    44746.694    46457.679   -14879.557    15.214868    13.176462    28.732378    5760.2132 
   67500       67.496    480.30559    20.053251   -730.07721   -710.02396    22967.749    41470.091    43521.813   -16088.657    15.214868    13.176462    28.732378    5760.2132 
   68000       67.996    481.79432    20.115407   -730.15837   -710.04296    23741.744    44857.122    46886.196   -20518.086    15.214868    13.176462    28.732378    5760.2132 
   68500       68.496    455.01152    18.997198   -729.05959   -710.06239    26400.317    44217.812    45380.727   -10397.588    15.214868    13.176462    28.732378    5760.2132 
   69000       68.996     452.5281    18.893513   -728.97411    -710.0806     24508.92    43377.491    42744.856   -12595.586    15.214868    13.176462    28.732378    5760.2132 
   69500       69.496    468.73721     19.57026   -729.66951   -710.09925    25858.409    43561.471    47379.095   -13365.338    15.214868    13.176462    28.732378    5760.2132 
   70000       69.996    469.75217    19.612636   -729.73123    -710.1186    26423.726     47573.19     45760.44   -14062.451    15.214868    13.176462    28.732378    5760.2132 
   70500       70.496    470.21548    19.631979   -729.76956   -710.13758    23792.665    40623.061    46484.092   -15729.158    15.214868    13.176462    28.732378    5760.2132 
   71000       70.996    460.56697    19.229144   -729.38444    -710.1553    25984.584    47864.882    45597.913   -15509.044    15.214868    13.176462    28.732378    5760.2132 
   71500       71.496    481.08737    20.085892   -730.26082   -710.17493    26576.826    45153.258    43582.878   -9005.6577    15.214868    13.176462    28.732378    5760.2132 
   72000       71.996    476.40647    19.890459   -730.08292   -710.19246    24847.613    42646.176    45704.667   -13808.003    15.214868    13.176462    28.732378    5760.2132 
   72500       72.496    489.94277    20.455614   -730.66639   -710.21078      26182.4    43707.062     49259.81   -14419.671    15.214868    13.176462    28.732378    5760.2132 
   73000       72.996    480.10878    20.045034   -730.27274   -710.22771    22258.078    38534.786    39186.734   -10947.285    15.214868    13.176462    28.732378    5760.2132 
   73500       73.496    475.64035    19.858473   -730.10313   -710.24466    24456.511    45040.204    41371.826   -13042.498    15.214868    13.176462    28.732378    5760.2132 
   74000       73.996    509.42294    21.268931   -731.53295   -710.26402    23522.407    44484.173     43400.32    -17317.27    15.214868    13.176462    28.732378    5760.2132 
   74500       74.496    494.15649    20.631541   -730.91447   -710.28293    23854.046    42064.957    44380.008   -14882.829    15.214868    13.176462    28.732378    5760.2132 
   75000       74.996     471.9968    19.706351   -730.00506   -710.29871    22995.701    42626.697    43015.126   -16654.721    15.214868    13.176462    28.732378    5760.2132 
   75500       75.496     487.3089    20.345647    -730.6601   -710.31445    23126.502    42740.462    44184.463    -17545.42    15.214868    13.176462    28.732378    5760.2132 
   76000       75.996    448.47794    18.724415   -729.05541     -710.331    23189.917    42470.049    38952.204   -11852.502    15.214868    13.176462    28.732378    5760.2132 
   76500       76.496     494.9701     20.66551   -731.01518   -710.34967    24170.563    45199.408    44075.135   -16762.856    15.214868    13.176462    28.732378    5760.2132 
   77000       76.996    464.99785    19.414138   -729.78216   -710.36803    26182.638    46235.553    45090.632   -12778.272    15.214868    13.176462    28.732378    5760.2132 
   77500       77.496    480.72972     20.07096   -730.45467   -710.38371    24751.094    46272.769     41257.06   -13276.548    15.214868    13.176462    28.732378    5760.2132 
   78000       77.996    465.39668    19.430789   -729.82924   -710.39845    25933.651    46367.127    43245.968   -11812.143    15.214868    13.176462    28.732378    5760.2132 
   78500       78.496    471.46952    19.684336   -730.09931   -710.41497     24348.27    44105.895    43551.022   -14612.108    15.214868    13.176462    28.732378    5760.2132 
   79000       78.996    462.35805    19.303924   -729.73544   -710.43152    24678.663    44759.153    44181.987   -14905.152    15.214868    13.176462    28.732378    5760.2132 
   79500       79.496    481.87414     20.11874    -730.5686   -710.44986     21723.44    38604.475    41525.856   -14960.011    15.214868    13.176462    28.732378    5760.2132 
   80000       79.996    464.25633    19.383178   -729.84802   -710.46484     23857.02    43457.942    42571.613   -14458.496    15.214868    13.176462    28.732378    5760.2132 
   80500       80.496     483.0371    20.167295   -730.64844   -710.48115    24273.141    43861.744    42850.383   -13892.703    15.214868    13.176462    28.732378    5760.2132 
   81000       80.996    472.47425    19.726285   -730.22411   -710.49783    24570.235    43385.745    43044.797   -12719.837    15.214868    13.176462    28.732378    5760.2132 
   81500       81.496    482.04569    20.125903   -730.64055   -710.51465    23111.564    40750.745    45170.799   -16586.852    15.214868    13.176462    28.732378    5760.2132 
   82000       81.996    471.28345    19.676568   -730.20652   -710.52995    23373.446    41637.828    42068.607   -13586.099    15.214868    13.176462    28.732378    5760.2132 
   82500       82.496    476.60056    19.898563   -730.44569   -710.54712    23953.797    43158.743    44948.361   -16245.713    15.214868    13.176462    28.732378    5760.2132 
   83000       82.996     477.8394    19.950286     -730.512   -710.56172     22483.03    42498.754    41672.561   -16722.224    15.214868    13.176462    28.732378    5760.2132 
   83500       83.496    444.37576    18.553144   -729.13031   -710.57717    26229.984    46427.603    44448.297   -12185.949    15.214868    13.176462    28.732378    5760.2132 
   84000       83.996    460.72795    19.235865   -729.82888   -710.59301    25094.284    45771.388    42848.734   -13337.271    15.214868    13.176462    28.732378    5760.2132 
   84500       84.496    475.90313    19.869444   -730.47776   -710.60832    22564.728    39531.752     41693.32   -13530.888    15.214868    13.176462    28.732378    5760.2132 
   85000       84.996    445.45583    18.598239   -729.22198   -710.62374    25338.139    45616.117    45968.251   -15569.952    15.214868    13.176462    28.732378    5760.2132 
   85500       85.496     458.2321    19.131661   -729.77171   -710.64005    23691.675    46107.971    40839.281   -15872.228    15.214868    13.176462    28.732378    5760.2132 
   86000       85.996    477.68461    19.943823   -730.59994   -710.65611    23729.146    44090.211    43430.785   -16333.558    15.214868    13.176462    28.732378    5760.2132 
   86500       86.496    465.43314    19.432311   -730.10406   -710.67175     23200.91     41475.61    44586.377   -16459.257    15.214868    13.176462    28.732378    5760.2132 
   87000       86.996    488.82774     20.40906   -731.09567   -710.68661    24020.551    44762.457    43541.104   -16241.908    15.214868    13.176462    28.732378    5760.2132 
   87500       87.496    452.33846    18.885595   -729.58612   -710.70052    25146.837    41544.759    43195.615   -9299.8634    15.214868    13.176462    28.732378    5760.2132 
   88000       87.996    481.61746    20.108023   -730.82452    -710.7165    21610.018     40667.31    39236.325    -15073.58    15.214868    13.176462    28.732378    5760.2132 
   88500       88.496     498.8957    20.829408   -731.56167   -710.73227    24126.749    44812.084    42264.292   -14696.129    15.214868    13.176462    28.732378    5760.2132 
   89000       88.996    460.89863    19.242991    -729.9894   -710.74641    24048.192    43560.295    43163.454   -14579.173    15.214868    13.176462    28.732378    5760.2132 
   89500       89.496    481.33493    20.096227   -730.85767   -710.76145    24838.406     45696.85    43401.025   -14582.656    15.214868    13.176462    28.732378    5760.2132 
   90000       89.996    484.21167    20.216334   -730.99324   -710.77691    24559.937    44467.089    41841.784   -12629.062    15.214868    13.176462    28.732378    5760.2132 
   90500       90.496    440.64456    18.397363   -729.18764   -710.79028    24525.994    45323.791    42047.287   -13793.095    15.214868    13.176462    28.732378    5760.2132 
   91000       90.996    453.69839    18.942373   -729.74742   -710.80504    24168.369    43829.407    44277.226   -15601.526    15.214868    13.176462    28.732378    5760.2132 
   91500       91.496    489.98753    20.457483   -731.27918    -710.8217    23509.552    41606.162    44064.734   -15142.241    15.214868    13.176462    28.732378    5760.2132 
   92000       91.996    459.23334    19.173464   -730.00836    -710.8349    24110.489    47652.742    39059.086   -14380.363    15.214868    13.176462    28.732378    5760.2132 
   92500       92.496    465.97661    19.455002   -730.30411   -710.84911    24516.734     39277.56    45435.805   -11163.162    15.214868    13.176462    28.732378    5760.2132 
   93000       92.996    456.27988    19.050154   -729.91372   -710.86357    22352.486    42462.783    39661.524    -15066.85    15.214868    13.176462    28.732378    5760.2132 
   93500       93.496    463.35236    19.345437   -730.22482   -710.87938    25202.844    47763.302    43040.971   -15195.741    15.214868    13.176462    28.732378    5760.2132 
   94000       93.996    464.75074    19.403821   -730.29755   -710.89373    23804.791    41845.498    43352.407   -13783.533    15.214868    13.176462    28.732378    5760.2132 
   94500       94.496    476.95988    19.913565   -730.82218   -710.90862    25118.702    48721.398    41793.742   -15159.034    15.214868    13.176462    28.732378    5760.2132 
   95000       94.996    468.82472    19.573914   -730.49687   -710.92295    24257.981    44240.031    43720.348   -15186.436    15.214868    13.176462    28.732378    5760.2132 
   95500       95.496    469.24176    19.591325   -730.52867   -710.93734    24486.662    45234.487    40639.827   -12414.328    15.214868    13.176462    28.732378    5760.2132 
   96000       95.996    452.52407    18.893344   -729.84527   -710.95193    27132.614    47048.486     46073.65   -11724.294    15.214868    13.176462    28.732378    5760.2132 
   96500       96.496    467.26288    19.508705   -730.47487   -710.96616    25408.926    46458.931    45602.376    -15834.53    15.214868    13.176462    28.732378    5760.2132 
   97000       96.996    483.41128    20.182917   -731.16346   -710.98054    22645.344    42092.522     39105.18    -13261.67    15.214868    13.176462    28.732378    5760.2132 
   97500       97.496    458.42707    19.139801   -730.13492   -710.99512    23628.439    45676.273    40900.123   -15691.079    15.214868    13.176462    28.732378    5760.2132 
   98000       97.996    487.26602    20.343857   -731.35302   -711.00916    25150.858    42911.423    45685.754   -13144.604    15.214868    13.176462    28.732378    5760.2132 
   98500       98.496    468.51654    19.561047   -730.58509   -711.02405    24388.663    44637.815    41238.568   -12710.392    15.214868    13.176462    28.732378    5760.2132 
   99000       98.996    448.97771     18.74528   -729.78282   -711.03754    25805.327    47259.191    47260.932   -17104.141    15.214868    13.176462    28.732378    5760.2132 
   99500       99.496    456.50742    19.059653   -730.11225    -711.0526      24303.3    43966.745    43429.468   -14486.314    15.214868    13.176462    28.732378    5760.2132 
  100000       99.996    468.50544    19.560583   -730.62743   -711.06685    23451.123    43958.253    41612.622   -15217.505    15.214868    13.176462    28.732378    5760.2132 
  100500      100.496    465.35748    19.429153   -730.51002   -711.08087    25080.836    44694.978    44412.306   -13864.777    15.214868    13.176462    28.732378    5760.2132 
  101000      100.996    447.57855    18.686864   -729.78182   -711.09495    24766.677     45409.02    42162.135   -13271.125    15.214868    13.176462    28.732378    5760.2132 
  101500      101.496    478.78768    19.989877   -731.10086   -711.11098    24894.269    44900.886    44674.012   -14892.091    15.214868    13.176462    28.732378    5760.2132 
  102000      101.996    463.09475    19.334681   -730.45903   -711.12435    25533.815    45794.315    41909.323   -11102.193    15.214868    13.176462    28.732378    5760.2132 
  102500      102.496    439.84904    18.364149   -729.50195    -711.1378    25810.502    42427.401    46935.612   -11931.506    15.214868    13.176462    28.732378    5760.2132 
  103000      102.996    463.58408    19.355111   -730.50855   -711.15344    25344.454    44741.213    46813.056   -15520.908    15.214868    13.176462    28.732378    5760.2132 
  103500      103.496    449.02371    18.747201   -729.91197   -711.16477    23695.336    41980.949    42713.923   -13608.864    15.214868    13.176462    28.732378    5760.2132 
  104000      103.996    459.54112    19.186314     -730.368   -711.18169     25435.85     43962.29    44906.278   -12561.019    15.214868    13.176462    28.732378    5760.2132 
  104500      104.496    469.36091      19.5963   -730.79229   -711.19599      23362.1    44142.801     41194.36    -15250.86    15.214868    13.176462    28.732378    5760.2132 
  105000      104.996    471.76177    19.696538   -730.90582   -711.20928    23860.707    42745.961    46407.484   -17571.324    15.214868    13.176462    28.732378    5760.2132 
  105500      105.496    436.73423    18.234103   -729.45811   -711.22401    24210.853    44991.494    43493.842   -15852.777    15.214868    13.176462    28.732378    5760.2132 
  106000      105.996    456.63757    19.065087   -730.30374   -711.23865    23942.762    42227.075    41875.505   -12274.295    15.214868    13.176462    28.732378    5760.2132 
  106500      106.496    482.48712    20.144333   -731.39949   -711.25516    23520.627    44319.349    44129.083   -17886.551    15.214868    13.176462    28.732378    5760.2132 
  107000      106.996    460.00729    19.205777   -730.47438   -711.26861    22350.483    41281.585    42651.991   -16882.126    15.214868    13.176462    28.732378    5760.2132 
  107500      107.496    448.01709    18.705174   -729.98763   -711.28246    23783.513    43515.902    44297.832   -16463.196    15.214868    13.176462    28.732378    5760.2132 
  108000      107.996    480.50833    20.061716   -731.36065   -711.29894    25258.817    43509.107    43064.338   -10796.994    15.214868    13.176462    28.732378    5760.2132 
  108500      108.496    458.31012    19.134918   -730.44626   -711.31134     25230.03    47038.556    41221.121   -12569.587    15.214868    13.176462    28.732378    5760.2132 
  109000      108.996    455.04388    18.998549   -730.32532   -711.32677    22648.471    38423.961    43470.543    -13949.09    15.214868    13.176462    28.732378    5760.2132 
  109500      109.496     436.9078    18.241349    -729.5819   -711.34055    26306.509    44085.553    42614.082   -7780.1094    15.214868    13.176462    28.732378    5760.2132 
  110000      109.996    429.81155    17.945073   -729.29957   -711.35449    25504.908    45392.759    47646.438   -16524.473    15.214868    13.176462    28.732378    5760.2132 
  110500      110.496    488.98264    20.415527   -731.78688   -711.37135    24208.462    47880.567    42062.081   -17317.262    15.214868    13.176462    28.732378    5760.2132 
  111000      110.996    442.16101    18.460676   -729.84381   -711.38313    25036.174    43741.801     43874.69   -12507.969    15.214868    13.176462    28.732378    5760.2132 
  111500      111.496    439.28726    18.340694   -729.73861   -711.39792    25109.458     44083.44    44777.697   -13532.762    15.214868    13.176462    28.732378    5760.2132 
  112000      111.996    445.16159    18.585954   -729.99794   -711.41199    24655.291    42365.585    43807.566   -12207.276    15.214868    13.176462    28.732378    5760.2132 
  112500      112.496    444.04599    18.539376   -729.96639   -711.42702     25242.79    46280.066    44490.104   -15041.801    15.214868    13.176462    28.732378    5760.2132 
  113000      112.996    466.30413    19.468676   -730.91274   -711.44407    25461.862    44542.816    45108.065   -13265.294    15.214868    13.176462    28.732378    5760.2132 
  113500      113.496     464.7514    19.403848   -730.86293   -711.45908    24350.504    43638.892    45078.732   -15666.113    15.214868    13.176462    28.732378    5760.2132 
  114000      113.996    447.30876      18.6756    -730.1479    -711.4723    23280.432    46962.885    37280.797   -14402.386    15.214868    13.176462    28.732378    5760.2132 
  114500      114.496    463.94551    19.370201   -730.85806   -711.48786    23373.443    43752.758    42788.474   -16420.903    15.214868    13.176462    28.732378    5760.2132 
  115000      114.996    455.92488    19.035332   -730.53791   -711.50258     24665.16    45988.633    39366.291   -11359.445    15.214868    13.176462    28.732378    5760.2132 
  115500      115.496    453.10483    18.917592   -730.43493   -711.51734    23721.972    40571.699    43379.455   -12785.238    15.214868    13.176462    28.732378    5760.2132 
  116000      115.996    450.28757    18.799968   -730.33216   -711.53219    23779.842    42518.849    43461.656   -14640.979    15.214868    13.176462    28.732378    5760.2132 
  116500      116.496    495.96947    20.707235   -732.25405   -711.54681    22990.282    42604.305    40663.499   -14296.957    15.214868    13.176462    28.732378    5760.2132 
  117000      116.996    451.30201    18.842322   -730.40426   -711.56193    23672.458    39078.501    44807.418   -12868.544    15.214868    13.176462    28.732378    5760.2132 
  117500      117.496    476.20508    19.882051   -731.45954   -711.57749    23160.988    41520.509     42733.97   -14771.515    15.214868    13.176462    28.732378    5760.2132 
  118000      117.996    455.87502     19.03325   -730.62399   -711.59074    25885.827    46263.734    39977.137   -8583.3885    15.214868    13.176462    28.732378    5760.2132 
  118500      118.496    449.13399    18.751805   -730.35765   -711.60584    22994.242    43361.355    41499.547   -15878.175    15.214868    13.176462    28.732378    5760.2132 
  119000      118.996     456.0228     19.03942   -730.65897   -711.61955    23765.317    46251.484    44198.177    -19153.71    15.214868    13.176462    28.732378    5760.2132 
  119500      119.496    432.92877    18.075221   -729.70973   -711.63451    24184.853    42436.379    44827.623   -14709.442    15.214868    13.176462    28.732378    5760.2132 
  120000      119.996    451.16613    18.836649   -730.48623   -711.64958    25293.568    44446.691    43375.736   -11941.724    15.214868    13.176462    28.732378    5760.2132 
  120500      120.496    468.57407    19.563448   -731.23035    -711.6669    23606.409    45176.555    41490.486   -15847.815    15.214868    13.176462    28.732378    5760.2132 
  121000      120.996    465.68415    19.442791   -731.12448   -711.68169    23961.114    44047.179    42773.262   -14937.099    15.214868    13.176462    28.732378    5760.2132 
  121500      121.496    449.08004    18.749553   -730.44561   -711.69606     23354.33    42429.673    40290.878   -12657.561    15.214868    13.176462    28.732378    5760.2132 
  122000      121.996    451.06776    18.832542   -730.54333   -711.71079    24736.001    43016.199    45036.691   -13844.886    15.214868    13.176462    28.732378    5760.2132 
  122500      122.496    455.58598    19.021183   -730.74757   -711.72639    24621.735    44952.705    46582.343   -17669.842    15.214868    13.176462    28.732378    5760.2132 
  123000      122.996    438.76548    18.318909   -730.06145   -711.74254    23060.385    43465.042    39626.558   -13910.445    15.214868    13.176462    28.732378    5760.2132 
  123500      123.496    440.53609    18.392834   -730.14975   -711.75691    23011.224    39919.414    43521.524   -14407.265    15.214868    13.176462    28.732378    5760.2132 
  124000      123.996    437.10369    18.249528     -730.021   -711.77147    24677.026    44010.477    43860.433   -13839.833    15.214868    13.176462    28.732378    5760.2132 
  124500      124.496    463.66067    19.358309    -731.1468   -711.78849     24210.37    43687.078    46214.313    -17270.28    15.214868    13.176462    28.732378    5760.2132 
  125000      124.996    450.15071    18.794254   -730.59728   -711.80303    22657.847    42485.815    40588.617   -15100.891    15.214868    13.176462    28.732378    5760.2132 
  125500      125.496    427.13938    17.833508   -729.65071   -711.81721    24343.075    42857.982     44347.01   -14175.765    15.214868    13.176462    28.732378    5760.2132 
  126000      125.996    492.15157    20.547833   -732.38162   -711.83378    22912.586    42453.849    41561.079   -15277.171    15.214868    13.176462    28.732378    5760.2132 
  126500      126.496    474.34179    19.804257   -731.65325   -711.84899    22870.705    44470.476    42683.416   -18541.776    15.214868    13.176462    28.732378    5760.2132 
  127000      126.996    429.76845    17.943274   -729.80576   -711.86249    23564.444     44238.26    41209.286   -14754.214    15.214868    13.176462    28.732378    5760.2132 
  127500      127.496    452.52111    18.893221   -730.77296   -711.87974    23518.746    44317.884    40961.837   -14723.483    15.214868    13.176462    28.732378    5760.2132 
  128000      127.996    425.75838     17.77585   -729.66959   -711.89374    22917.946    42236.876    42541.322   -16024.359    15.214868    13.176462    28.732378    5760.2132 
  128500      128.496    460.95003    19.245137   -731.15681   -711.91168    25477.346    47211.754    42829.616   -13609.332    15.214868    13.176462    28.732378    5760.2132 
  129000      128.996    442.81775    18.488096   -730.41488   -711.92678    24433.153     42630.29    41609.681   -10940.513    15.214868    13.176462    28.732378    5760.2132 
  129500      129.496    435.24102     18.17176   -730.11285   -711.94109    24499.669    45989.874    44003.497   -16494.365    15.214868    13.176462    28.732378    5760.2132 
  130000      129.996    464.19281    19.380526   -731.33795   -711.95743    24675.082    44245.965    41625.749   -11846.468    15.214868    13.176462    28.732378    5760.2132 
  130500      130.496    457.98605    19.121388    -731.0941   -711.97271    21686.066     42462.47     40396.97   -17801.244    15.214868    13.176462    28.732378    5760.2132 
  131000      130.996    465.89582    19.451629    -731.4396   -711.98797    24452.397    46503.946    41291.291   -14438.046    15.214868    13.176462    28.732378    5760.2132 
  131500      131.496    455.17256    19.003922   -731.00746   -712.00354    24367.442    41236.782     41797.47   -9931.9261    15.214868    13.176462    28.732378    5760.2132 
  132000      131.996    455.81549    19.030765   -731.05008   -712.01931    25140.444    44236.479    43267.671   -12082.818    15.214868    13.176462    28.732378    5760.2132 
  132500      132.496    456.83914    19.073503   -731.10796   -712.03445    24724.042    42966.206    45193.587   -13987.668    15.214868    13.176462    28.732378    5760.2132 
  133000      132.996    461.88054    19.283987   -731.33339   -712.04941    22570.429    42844.107    40944.584   -16077.405    15.214868    13.176462    28.732378    5760.2132 
  133500      133.496    446.89219    18.658208   -730.72344   -712.06523    24829.118    43650.028    44649.086   -13811.761    15.214868    13.176462    28.732378    5760.2132 
  134000      133.996    422.06958    17.621838   -729.70171   -712.07987     24486.12    40839.283    42422.376   -9803.3004    15.214868    13.176462    28.732378    5760.2132 
  134500      134.496    447.75836    18.694371   -730.79066   -712.09629    22518.509    41817.886    42487.128   -16749.487    15.214868    13.176462    28.732378    5760.2132 
  135000      134.996    447.59509    18.687554   -730.79986    -712.1123    24536.997    45326.813    43273.118    -14988.94    15.214868    13.176462    28.732378    5760.2132 
  135500      135.496    455.67802    19.025025   -731.15389   -712.12887      24172.5    44234.832     44256.56   -15973.891    15.214868    13.176462    28.732378    5760.2132 
  136000      135.996    451.95073    18.869407   -731.01309   -712.14368    23814.386    43504.884    43912.675   -15974.401    15.214868    13.176462    28.732378    5760.2132 
  136500      136.496    443.98226    18.536715   -730.69567   -712.15896    22740.068    43604.653    39168.894   -14553.341    15.214868    13.176462    28.732378    5760.2132 
  137000      136.996    456.52488    19.060383   -731.23654   -712.17616    22546.715     42580.01    40442.405   -15382.271    15.214868    13.176462    28.732378    5760.2132 
  137500      137.496    449.32128    18.759625    -730.9511   -712.19147    24916.225    45600.448    44060.663   -14912.434    15.214868    13.176462    28.732378    5760.2132 
  138000      137.996    428.87658    17.906038   -730.11239   -712.20635    23803.103    43883.715    40067.259   -12541.665    15.214868    13.176462    28.732378    5760.2132 
  138500      138.496    467.00077    19.497761   -731.72129   -712.22353    20608.803    42561.792    41082.812   -21818.194    15.214868    13.176462    28.732378    5760.2132 
  139000      138.996    413.13285    17.248721   -729.48627   -712.23755    21896.179    41687.007    39557.379   -15555.849    15.214868    13.176462    28.732378    5760.2132 
  139500      139.496    457.26355    19.091223   -731.34702    -712.2558    22693.785    43822.438    41850.307    -17591.39    15.214868    13.176462    28.732378    5760.2132 
  140000      139.996    461.04648    19.249164   -731.52066   -712.27149    23678.107    46235.321      41557.8   -16758.798    15.214868    13.176462    28.732378    5760.2132 
  140500      140.496    449.97878    18.787076   -731.07477   -712.28769    24459.358    43025.328    43311.247   -12958.502    15.214868    13.176462    28.732378    5760.2132 
  141000      140.996    424.77959    17.734984   -730.03717   -712.30219    23781.231    41684.587    46006.295   -16347.188    15.214868    13.176462    28.732378    5760.2132 
  141500      141.496    456.38243    19.054435    -731.3736   -712.31916    24362.423    43327.921    41129.315   -11369.968    15.214868    13.176462    28.732378    5760.2132 
  142000      141.996    466.70835    19.485553   -731.82087   -712.33532    22011.783    42469.552    41422.124   -17856.327    15.214868    13.176462    28.732378    5760.2132 
  142500      142.496    440.43359    18.388554   -730.73908   -712.35053     26312.68     44694.81     47521.58   -13278.349    15.214868    13.176462    28.732378    5760.2132 
  143000      142.996    446.07639    18.624147   -730.99165    -712.3675    23361.468    43552.511    40982.514    -14450.62    15.214868    13.176462    28.732378    5760.2132 
  143500      143.496     423.2622    17.671631   -730.05216   -712.38053    24831.641    46508.895    41048.431   -13062.403    15.214868    13.176462    28.732378    5760.2132 
  144000      143.996     464.3635    19.387653   -731.78789   -712.40024     25218.43    46225.344    41140.213   -11710.267    15.214868    13.176462    28.732378    5760.2132 
  144500      144.496    469.75166    19.612614   -732.02743   -712.41482    23651.887    42494.236    42514.112   -14052.686    15.214868    13.176462    28.732378    5760.2132 
  145000      144.996    447.46352    18.682061   -731.11325   -712.43118    22928.365    42211.467    38330.694   -11757.065    15.214868    13.176462    28.732378    5760.2132 
  145500      145.496     426.4154    17.803281   -730.24946   -712.44618    22752.998    42949.355    41561.081   -16251.442    15.214868    13.176462    28.732378    5760.2132 
  146000      145.996    439.48542    18.348968   -730.81182   -712.46286    23898.454    42513.109    41063.284   -11881.032    15.214868    13.176462    28.732378    5760.2132 
  146500      146.496    467.51823    19.519366   -732.00053   -712.48117    22765.293      43308.4    38778.243   -13790.764    15.214868    13.176462    28.732378    5760.2132 
  147000      146.996    451.36734     18.84505   -731.34131   -712.49626    24760.781     45778.22    42909.932   -14405.808    15.214868    13.176462    28.732378    5760.2132 
  147500      147.496    443.53407    18.518003   -731.03059   -712.51258    21403.821    41113.746    38401.351   -15303.635    15.214868    13.176462    28.732378    5760.2132 
  148000      147.996    431.37111    18.010187    -730.5385   -712.52832    24520.661    44044.463    44888.371    -15370.85    15.214868    13.176462    28.732378    5760.2132 
  148500      148.496    446.74573    18.652093   -731.19828   -712.54618     22999.44    41005.184    42628.439   -14635.302    15.214868    13.176462    28.732378    5760.2132 
  149000      148.996    471.10677    19.669191    -732.2325   -712.56331     23425.19    41936.419    41644.226   -13305.074    15.214868    13.176462    28.732378    5760.2132 
  149500      149.496    454.88604    18.991959   -731.57026    -712.5783     22684.97    41879.988    43131.083   -16956.161    15.214868    13.176462    28.732378    5760.2132 
  150000      149.996    459.20982    19.172481   -731.76778    -712.5953    21093.597    42379.644     38980.73   -18079.582    15.214868    13.176462    28.732378    5760.2132 
  150500      150.496    436.55929    18.226799   -730.83669   -712.60989    22787.369    44403.543    39907.723   -15949.161    15.214868    13.176462    28.732378    5760.2132 
  151000      150.996    437.30827    18.258069   -730.88542   -712.62735    24064.141    43536.087    41058.494   -12402.157    15.214868    13.176462    28.732378    5760.2132 
  151500      151.496    433.35723     18.09311   -730.73554   -712.64243    21996.773    45204.025    40466.637   -19680.343    15.214868    13.176462    28.732378    5760.2132 
  152000      151.996    442.60345    18.479149   -731.13795    -712.6588    22649.192    41289.309    43240.075    -16581.81    15.214868    13.176462    28.732378    5760.2132 
  152500      152.496    437.90954    18.283173   -730.95794   -712.67476    23114.577    44093.589    42885.712   -17635.569    15.214868    13.176462    28.732378    5760.2132 
  153000      152.996    441.84048    18.447294   -731.13788   -712.69058    23448.175    44422.626    44111.751   -18189.853    15.214868    13.176462    28.732378    5760.2132 
  153500      153.496    440.30843    18.383329   -731.09086   -712.70753    25212.608    43111.055    43459.155   -10932.387    15.214868    13.176462    28.732378    5760.2132 
  154000      153.996    422.89989    17.656505   -730.38016   -712.72365    23966.911    42422.476    44242.882   -14764.624    15.214868    13.176462    28.732378    5760.2132 
  154500      154.496    448.57832    18.728605   -731.46917   -712.74056    24897.011    46157.783    45176.469   -16643.218    15.214868    13.176462    28.732378    5760.2132 
  155000      154.996    445.06093    18.581751   -731.33832   -712.75657     22396.87    43323.279    39268.688   -15401.358    15.214868    13.176462    28.732378    5760.2132 
  155500      155.496    443.93946    18.534928   -731.30724   -712.77232    22877.185    41360.401    44502.876   -17231.724    15.214868    13.176462    28.732378    5760.2132 
  156000      155.996    408.92514    17.073045   -729.86098   -712.78793    25321.056    44197.004    42880.459   -11114.294    15.214868    13.176462    28.732378    5760.2132 
  156500      156.496    436.93484    18.242478   -731.04832   -712.80584    23631.104    44724.227    40849.855   -14680.771    15.214868    13.176462    28.732378    5760.2132 
  157000      156.996    450.96435    18.828225   -731.65008   -712.82186    22063.916    44419.114    41363.687   -19591.055    15.214868    13.176462    28.732378    5760.2132 
  157500      157.496    445.91361    18.617351    -731.4557   -712.83835    22456.561    40738.787    42895.494   -16264.597    15.214868    13.176462    28.732378    5760.2132 
  158000      157.996    443.53307    18.517961   -731.37141   -712.85345    21876.982    41392.156    40764.608   -16525.818    15.214868    13.176462    28.732378    5760.2132 
  158500      158.496    416.99121    17.409811   -730.27834   -712.86852    24396.286    42187.323    45313.907   -14312.373    15.214868    13.176462    28.732378    5760.2132 
  159000      158.996    454.35661    18.969855   -731.85603   -712.88617     24359.32    44238.238    44257.607   -15417.885    15.214868    13.176462    28.732378    5760.2132 
  159500      159.496    449.89437    18.783552   -731.68514   -712.90159    22499.697    43832.153    42002.691   -18335.754    15.214868    13.176462    28.732378    5760.2132 
  160000      159.996     448.9952     18.74601   -731.66433   -712.91832    23746.015    41122.593    43212.081    -13096.63    15.214868    13.176462    28.732378    5760.2132 
  160500      160.496    399.25571    16.669336   -729.60246   -712.93313    24599.232    43589.624    44063.456   -13855.383    15.214868    13.176462    28.732378    5760.2132 
  161000      160.996    419.83628    17.528596    -730.4792    -712.9506    24864.498    44149.853    44025.769   -13582.128    15.214868    13.176462    28.732378    5760.2132 
  161500      161.496    447.61309    18.688306   -731.65521    -712.9669    22919.611     42215.08    42643.394   -16099.641    15.214868    13.176462    28.732378    5760.2132 
  162000      161.996    458.27169    19.133314   -732.11807   -712.98475    23845.204    46181.183    39627.055   -14272.627    15.214868    13.176462    28.732378    5760.2132 
  162500      162.496    434.15218    18.126299    -731.1243     -712.998    23172.855    40849.226    40965.387   -12296.049    15.214868    13.176462    28.732378    5760.2132 
  163000      162.996    463.65458    19.358055    -732.3736   -713.01555    23793.796    45767.533    43019.453   -17405.597    15.214868    13.176462    28.732378    5760.2132 
  163500      163.496    429.46896     17.93077   -730.96159   -713.03082    23026.758    44166.381    41013.966   -16100.073    15.214868    13.176462    28.732378    5760.2132 
  164000      163.996     450.3278    18.801648   -731.84912   -713.04747    22414.471    41698.548    39936.678   -14391.812    15.214868    13.176462    28.732378    5760.2132 
  164500      164.496     437.8363    18.280115   -731.34431   -713.06419     25047.76    45426.227    43208.746   -13491.692    15.214868    13.176462    28.732378    5760.2132 
  165000      164.996    432.75765    18.068076    -731.1479   -713.07983    21609.866    43115.266     41740.28   -20025.948    15.214868    13.176462    28.732378    5760.2132 
  165500      165.496    426.83469    17.820786   -730.91631   -713.09552    25869.525     46045.46    42819.762   -11256.645    15.214868    13.176462    28.732378    5760.2132 
  166000      165.996    450.62915     18.81423   -731.92724   -713.11301     23071.83    41610.568    44039.042   -16434.119    15.214868    13.176462    28.732378    5760.2132 
  166500      166.496    423.57514    17.684697   -730.81234   -713.12765    22592.012    43022.429    41968.671   -17215.065    15.214868    13.176462    28.732378    5760.2132 
  167000      166.996    435.50904     18.18295   -731.32597   -713.14302    24148.617    44464.554    41436.592   -13455.296    15.214868    13.176462    28.732378    5760.2132 
  167500      167.496    430.02451    17.953965   -731.11521   -713.16124    21897.279     46406.95    38512.483   -19227.596    15.214868    13.176462    28.732378    5760.2132 
  168000      167.996    440.06693    18.373246   -731.54915   -713.17591    23076.107    42799.729    42323.633   -15895.041    15.214868    13.176462    28.732378    5760.2132 
  168500      168.496    441.96699    18.452576   -731.64587    -713.1933    23622.244     44093.57    40429.963   -13656.801    15.214868    13.176462    28.732378    5760.2132 
  169000      168.996    427.96054    17.867792   -731.07675   -713.20895    24801.226     43555.02    42853.504   -12004.846    15.214868    13.176462    28.732378    5760.2132 
  169500      169.496    430.04981    17.955021    -731.1788   -713.22378    23049.028    42147.192    44608.261   -17608.368    15.214868    13.176462    28.732378    5760.2132 
  170000      169.996    438.11719    18.291843   -731.53237   -713.24052     23265.48    42874.538    45019.321    -18097.42    15.214868    13.176462    28.732378    5760.2132 
  170500      170.496    429.68477     17.93978   -731.19411   -713.25433    24167.421    42836.268     43540.36   -13874.365    15.214868    13.176462    28.732378    5760.2132 
  171000      170.996     431.1013    17.998922   -731.27088   -713.27196    21943.654    41676.139    41235.185   -17080.363    15.214868    13.176462    28.732378    5760.2132 
  171500      171.496    447.10185    18.666961   -731.95536    -713.2884    21845.484    41162.383    40586.108   -16212.039    15.214868    13.176462    28.732378    5760.2132 
  172000      171.996    439.71283    18.358462    -731.6625   -713.30404    24822.602    43193.429    44669.746    -13395.37    15.214868    13.176462    28.732378    5760.2132 
  172500      172.496    427.09271    17.831559   -731.15186    -713.3203    22012.086    43331.984    40390.948   -17686.675    15.214868    13.176462    28.732378    5760.2132 
  173000      172.996    419.86243    17.529688   -730.86611   -713.33642    23517.349    43242.607    43321.081   -16011.641    15.214868    13.176462    28.732378    5760.2132 
  173500      173.496    433.08301     18.08166    -731.4318   -713.35014        24192    42299.128    45143.499   -14866.629    15.214868    13.176462    28.732378    5760.2132 
  174000      173.996    436.63293    18.229873    -731.5972   -713.36733    21706.914     42533.41    41352.272   -18764.939    15.214868    13.176462    28.732378    5760.2132 
  174500      174.496    431.27826     18.00631   -731.38919   -713.38288    23092.424    39367.795    42447.929    -12538.45    15.214868    13.176462    28.732378    5760.2132 
  175000      174.996    439.85352    18.364336   -731.76386   -713.39952    23659.721    43422.996    43262.646   -15706.481    15.214868    13.176462    28.732378    5760.2132 
  175500      175.496    442.22079    18.463172   -731.87873   -713.41555    23896.397    44615.773    42871.821   -15798.405    15.214868    13.176462    28.732378    5760.2132 
  176000      175.996    411.28158    17.171428   -730.60145   -713.43002    22996.126    43314.614    40610.019   -14936.253    15.214868    13.176462    28.732378    5760.2132 
  176500      176.496    446.57095    18.644796   -732.09136   -713.44657    24967.234    45177.627    48062.813   -18338.738    15.214868    13.176462    28.732378    5760.2132 
  177000      176.996    442.12716    18.459263   -731.92196    -713.4627    23142.267    40546.256     43381.97   -14501.425    15.214868    13.176462    28.732378    5760.2132 
  177500      177.496    418.05211    17.454105   -730.93203   -713.47793    23571.165    44122.245    40621.636   -14030.386    15.214868    13.176462    28.732378    5760.2132 
  178000      177.996    441.08958    18.415943   -731.91028   -713.49434    22604.516    41672.717    42024.799   -15883.969    15.214868    13.176462    28.732378    5760.2132 
  178500      178.496    441.53293    18.434453   -731.94448   -713.51003    23221.536     43051.03    41066.581   -14453.005    15.214868    13.176462    28.732378    5760.2132 
  179000      178.996    448.89653    18.741891   -732.26835   -713.52646    23027.906    43028.853    42306.151   -16251.286    15.214868    13.176462    28.732378    5760.2132 
  179500      179.496    419.14359    17.499675   -731.03965   -713.53998    24803.876    42992.363     42859.75   -11440.485    15.214868    13.176462    28.732378    5760.2132 
  180000      179.996     435.3422    18.175984   -731.73301   -713.55703    23814.109    42885.881    41139.754   -12583.307    15.214868    13.176462    28.732378    5760.2132 
  180500      180.496    436.77042    18.235614   -731.80797   -713.57236    22879.928    43891.773    43672.995   -18924.985    15.214868    13.176462    28.732378    5760.2132 
  181000      180.996    417.13154     17.41567   -731.00259   -713.58692    24587.333    42669.674    45160.984   -14068.659    15.214868    13.176462    28.732378    5760.2132 
  181500      181.496    445.44655    18.597851   -732.20204   -713.60419    23632.941    44280.055    45203.634   -18584.867    15.214868    13.176462    28.732378    5760.2132 
  182000      181.996    434.61567    18.145651   -731.76422   -713.61857    22862.164    43532.578    42659.724   -17605.808    15.214868    13.176462    28.732378    5760.2132 
  182500      182.496    448.02063    18.705321     -732.342   -713.63668     23963.55    43756.918    39945.252   -11811.521    15.214868    13.176462    28.732378    5760.2132 
  183000      182.996    433.08659     18.08181   -731.73125   -713.64944     23902.86    42085.331    46344.734   -16721.487    15.214868    13.176462    28.732378    5760.2132 
  183500      183.496    416.16236    17.375206   -731.04107   -713.66586    24967.502    44809.924    42566.604   -12474.023    15.214868    13.176462    28.732378    5760.2132 
  184000      183.996    430.57165    17.976809    -731.6574   -713.68059    22707.411    44167.393     43083.02   -19128.181    15.214868    13.176462    28.732378    5760.2132 
  184500      184.496    435.24174     18.17179   -731.86834   -713.69655    22679.471     44660.77    39214.624   -15836.981    15.214868    13.176462    28.732378    5760.2132 
  185000      184.996    439.71984    18.358755   -732.07015    -713.7114     21406.16    42223.105    41153.323    -19157.95    15.214868    13.176462    28.732378    5760.2132 
  185500      185.496    421.68835    17.605922    -731.3321   -713.72618    22954.337    47994.485     37151.15   -16282.624    15.214868    13.176462    28.732378    5760.2132 
  186000      185.996    426.09519    17.789912   -731.53198   -713.74207    23034.773    44298.139    42137.165   -17330.986    15.214868    13.176462    28.732378    5760.2132 
  186500      186.496    421.17392    17.584444   -731.34143   -713.75699    23980.982     45620.15    41247.665   -14924.869    15.214868    13.176462    28.732378    5760.2132 
  187000      186.996     454.6518     18.98218   -732.75558   -713.77341    24265.015    45646.878    41610.742   -14462.575    15.214868    13.176462    28.732378    5760.2132 
  187500      187.496    438.93601    18.326029    -732.1145   -713.78847    21515.437    40885.295    42945.349   -19284.334    15.214868    13.176462    28.732378    5760.2132 
  188000      187.996     442.7859    18.486766   -732.29049   -713.80373     20322.76    43808.896    38438.987   -21279.603    15.214868    13.176462    28.732378    5760.2132 
  188500      188.496    411.62567    17.185794   -731.00381   -713.81802    24914.964    45040.522    42982.122   -13277.753    15.214868    13.176462    28.732378    5760.2132 
  189000      188.996    409.77683    17.108603   -730.94133   -713.83272    22230.564    41843.919    42110.266   -17262.493    15.214868    13.176462    28.732378    5760.2132 
  189500      189.496    426.91542    17.824157   -731.67168   -713.84753    23367.998    44009.868    41666.837   -15572.711    15.214868    13.176462    28.732378    5760.2132 
  190000      189.996    409.06698    17.078966   -730.94299   -713.86402    23696.048    41746.141    42272.746   -12930.744    15.214868    13.176462    28.732378    5760.2132 
  190500      190.496    435.36188    18.176806   -732.05518   -713.87837    23420.585    41547.327    40682.191   -11967.764    15.214868    13.176462    28.732378    5760.2132 
  191000      190.996    423.71272    17.690441    -731.5836   -713.89316    25848.982    44007.795    44470.233   -10931.082    15.214868    13.176462    28.732378    5760.2132 
  191500      191.496     418.7659    17.483906   -731.39182   -713.90792    22464.503    40230.751    42627.097   -15464.338    15.214868    13.176462    28.732378    5760.2132 
  192000      191.996    412.64009    17.228148   -731.15131   -713.92316    23703.489    45322.678    38927.172   -13139.384    15.214868    13.176462    28.732378    5760.2132 
  192500      192.496     416.8111    17.402291   -731.34074   -713.93845    24507.746    41651.298    44190.186   -12318.245    15.214868    13.176462    28.732378    5760.2132 
  193000      192.996    416.76785    17.400486   -731.35395   -713.95347    22343.238    42369.774      38657.6    -13997.66    15.214868    13.176462    28.732378    5760.2132 
  193500      193.496    435.49639    18.182421   -732.15143   -713.96901    21000.606    40844.876    42801.431    -20644.49    15.214868    13.176462    28.732378    5760.2132 
  194000      193.996    419.53442    17.515993    -731.4983   -713.98231    22912.645    39745.488    43555.102   -14562.655    15.214868    13.176462    28.732378    5760.2132 
  194500      194.496    422.92042    17.657362    -731.6566   -713.99924    25129.979    44171.175    42424.195   -11205.434    15.214868    13.176462    28.732378    5760.2132 
  195000      194.996    418.07879    17.455219   -731.46802    -714.0128    23603.723    44728.781    40875.585   -14793.196    15.214868    13.176462    28.732378    5760.2132 
  195500      195.496    428.78967    17.902409   -731.93173   -714.02932    23298.734    43944.585    40402.828   -14451.209    15.214868    13.176462    28.732378    5760.2132 
  196000      195.996     413.7967    17.276437   -731.32071   -714.04427    21796.197    44194.631    37513.606   -16319.644    15.214868    13.176462    28.732378    5760.2132 
  196500      196.496    411.11068    17.164293   -731.22182   -714.05753    23358.225    45842.546    40069.313   -15837.183    15.214868    13.176462    28.732378    5760.2132 
  197000      196.996    414.29031    17.297046   -731.37061   -714.07356    21883.141    43390.743    41529.012   -19270.331    15.214868    13.176462    28.732378    5760.2132 
  197500      197.496     445.8432    18.614411   -732.70307   -714.08866    22061.888     42451.43    41314.224   -17579.991    15.214868    13.176462    28.732378    5760.2132 
  198000      197.996    429.34675    17.925668   -732.02863   -714.10296    22945.435    42930.187    42254.133   -16348.014    15.214868    13.176462    28.732378    5760.2132 
  198500      198.496    417.42616    17.427971   -731.54509   -714.11712    22846.696    42694.388    42246.621   -16400.922    15.214868    13.176462    28.732378    5760.2132 
  199000      198.996    418.90983    17.489916   -731.62257   -714.13266    24522.589    46747.375    40909.724   -14089.332    15.214868    13.176462    28.732378    5760.2132 
  199500      199.496    413.68889    17.271936   -731.41826   -714.14632    24036.204    43461.026    40771.688   -12124.101    15.214868    13.176462    28.732378    5760.2132 
  200000      199.996     424.3344    17.716397   -731.87747   -714.16108    25840.536    47089.081    42736.749   -12304.224    15.214868    13.176462    28.732378    5760.2132 
  200500      200.496    428.05482    17.871728    -732.0479   -714.17617    20867.471    42870.336    38737.744   -19005.668    15.214868    13.176462    28.732378    5760.2132 
  201000      200.996    424.07554    17.705589   -731.89584   -714.19025    21986.406     39361.55    40188.543   -13590.876    15.214868    13.176462    28.732378    5760.2132 
  201500      201.496    406.39432     16.96738   -731.17053   -714.20315    22894.764    42221.507    44367.406   -17904.622    15.214868    13.176462    28.732378    5760.2132 
  202000      201.996    427.17206    17.834872    -732.0549   -714.22003    22639.677    42424.538    42589.767   -17095.274    15.214868    13.176462    28.732378    5760.2132 
  202500      202.496    416.47245    17.388152   -731.62196   -714.23381    21675.655    37111.159    42545.647   -14629.842    15.214868    13.176462    28.732378    5760.2132 
  203000      202.996    420.97816    17.576271   -731.82474   -714.24847    21663.165    38286.755    42936.687   -16233.947    15.214868    13.176462    28.732378    5760.2132 
  203500      203.496    411.85397    17.195326   -731.45544   -714.26011    22010.596    39129.954    43208.582   -16306.748    15.214868    13.176462    28.732378    5760.2132 
  204000      203.996    401.51632    16.763719   -731.03836   -714.27464    23477.951    40127.205    43973.078   -13666.429    15.214868    13.176462    28.732378    5760.2132 
  204500      204.496     412.2422    17.211535     -731.501   -714.28946    21948.221    41160.746    43017.058    -18333.14    15.214868    13.176462    28.732378    5760.2132 
  205000      204.996    434.94638    18.159458   -732.46443   -714.30498    22450.924    40886.998    41962.053    -15496.28    15.214868    13.176462    28.732378    5760.2132 
  205500      205.496    432.29145    18.048612   -732.36847   -714.31985    21970.963    44167.404    39909.787   -18164.302    15.214868    13.176462    28.732378    5760.2132 
  206000      205.996    399.49606    16.679371   -731.01175   -714.33238    25158.003    46800.695     44652.96   -15979.647    15.214868    13.176462    28.732378    5760.2132 
  206500      206.496    394.55522    16.473086   -730.81966   -714.34657    22423.813    41465.462    42862.768   -17056.793    15.214868    13.176462    28.732378    5760.2132 
  207000      206.996    424.85761    17.738242   -732.10102   -714.36278    22563.454    42079.787    40462.032   -14851.457    15.214868    13.176462    28.732378    5760.2132 
  207500      207.496    425.54653    17.767005   -732.14349   -714.37648    21349.101    42808.494    41925.561   -20686.752    15.214868    13.176462    28.732378    5760.2132 
  208000      207.996    406.01894    16.951708    -731.3412   -714.38949    22567.641    41384.537    41244.286   -14925.899    15.214868    13.176462    28.732378    5760.2132 
  208500      208.496     421.4047    17.594079   -731.99844   -714.40436    22009.683    43667.083    40363.658   -18001.693    15.214868    13.176462    28.732378    5760.2132 
  209000      208.996    419.50726    17.514859   -731.93288   -714.41803    25542.866    45456.275    42661.675   -11489.353    15.214868    13.176462    28.732378    5760.2132 
  209500      209.496    439.49651    18.349431   -732.78204   -714.43261    22638.138    43288.374    40976.963   -16350.923    15.214868    13.176462    28.732378    5760.2132 
  210000      209.996    420.34768    17.549947   -731.99558   -714.44564    24641.301    41099.258    45098.668   -12274.023    15.214868    13.176462    28.732378    5760.2132 
  210500      210.496    426.54695    17.808773   -732.26912   -714.46034    22558.457     41797.12    42041.812    -16163.56    15.214868    13.176462    28.732378    5760.2132 
  211000      210.996     412.2848    17.213314     -731.687   -714.47368    23785.946    44009.707    42876.471   -15528.339    15.214868    13.176462    28.732378    5760.2132 
  211500      211.496    403.91818    16.863999   -731.35119   -714.48719    20620.365    38166.242      41976.1   -18281.247    15.214868    13.176462    28.732378    5760.2132 
  212000      211.996    407.78852     17.02559   -731.52737   -714.50178    21448.193    41657.564    39377.986   -16690.971    15.214868    13.176462    28.732378    5760.2132 
[...]
  948500      948.496     367.9535    15.362437   -732.80455   -717.44211    21656.002    42314.497    40150.803   -17497.296    15.214868    13.176462    28.732378    5760.2132 
  949000      948.996      376.541    15.720973   -733.16643   -717.44546    23240.381    42679.214    41238.373   -14196.444    15.214868    13.176462    28.732378    5760.2132 
  949500      949.496    368.35387    15.379152   -732.82618   -717.44702    22248.918    41633.917    42036.397   -16923.561    15.214868    13.176462    28.732378    5760.2132 
  950000      949.996    365.95059    15.278813   -732.72828   -717.44947    21603.524    41987.477    41727.507    -18904.41    15.214868    13.176462    28.732378    5760.2132 
  950500      950.496    358.74668    14.978042   -732.42909   -717.45105    23418.295    42961.268    42109.675   -14816.058    15.214868    13.176462    28.732378    5760.2132 
  951000      950.996    378.02961    15.783124   -733.23636   -717.45323    20115.597    41781.571    39906.774   -21341.554    15.214868    13.176462    28.732378    5760.2132 
  951500      951.496    353.56142    14.761552   -732.21704   -717.45549    21881.717    45328.766    37613.415   -17297.032    15.214868    13.176462    28.732378    5760.2132 
  952000      951.996    380.93234    15.904316   -733.36317   -717.45886    21825.016    39337.274     40907.08   -14769.305    15.214868    13.176462    28.732378    5760.2132 
  952500      952.496    368.26758     15.37555     -732.835   -717.45945    21663.061    40228.493    40056.745   -15296.055    15.214868    13.176462    28.732378    5760.2132 
  953000      952.996    369.51366    15.427575   -732.88975   -717.46217    22978.323    43866.248    40223.488   -15154.766    15.214868    13.176462    28.732378    5760.2132 
  953500      953.496    378.11898    15.786856   -733.25128   -717.46442    22161.898    43101.809    42989.039   -19605.153    15.214868    13.176462    28.732378    5760.2132 
  954000      953.996    371.79281    15.522731    -732.9878   -717.46507    23510.988    41171.672    42230.391   -12869.099    15.214868    13.176462    28.732378    5760.2132 
  954500      954.496    385.63362      16.1006   -733.56917   -717.46857    22615.189    41812.128    38912.365   -12878.926    15.214868    13.176462    28.732378    5760.2132 
  955000      954.996    385.19966    16.082481   -733.55296   -717.47048    23027.651    42004.293    42897.933   -15819.273    15.214868    13.176462    28.732378    5760.2132 
  955500      955.496    369.47042    15.425769   -732.89785   -717.47208    22431.794    45656.269    38459.037   -16819.923    15.214868    13.176462    28.732378    5760.2132 
  956000      955.996     387.4968    16.178389   -733.65196   -717.47357    23004.939    42321.615    41877.112    -15183.91    15.214868    13.176462    28.732378    5760.2132 
  956500      956.496    359.39637    15.005168   -732.47993   -717.47476    24681.838    44860.048    42487.027   -13301.561    15.214868    13.176462    28.732378    5760.2132 
  957000      956.996    362.27175    15.125218   -732.60156   -717.47634    21868.983    41269.036    37155.947   -12818.034    15.214868    13.176462    28.732378    5760.2132 
  957500      957.496    368.46835    15.383932   -732.86216   -717.47823    21138.647     43091.97    42057.273     -21733.3    15.214868    13.176462    28.732378    5760.2132 
  958000      957.996    390.01411     16.28349   -733.76422   -717.48073    21312.888    38317.368    41277.233   -15655.938    15.214868    13.176462    28.732378    5760.2132 
  958500      958.496    372.21478    15.540349   -733.02198   -717.48163     22621.58      41423.8    42249.974   -15809.033    15.214868    13.176462    28.732378    5760.2132 
  959000      958.996    395.39031    16.507952   -733.99293   -717.48498    21059.312    41223.454    42567.771   -20613.289    15.214868    13.176462    28.732378    5760.2132 
  959500      959.496    371.89472    15.526986   -733.01221   -717.48523    20408.177    39103.277     41395.68   -19274.426    15.214868    13.176462    28.732378    5760.2132 
  960000      959.996    365.19811    15.247396   -732.73363   -717.48623    23646.191    43718.312    43757.588   -16537.329    15.214868    13.176462    28.732378    5760.2132 
  960500      960.496    368.31253    15.377426   -732.86549   -717.48806    21942.755    41101.875    41088.464   -16362.075    15.214868    13.176462    28.732378    5760.2132 
  961000      960.996    368.52277    15.386204   -732.87543   -717.48922    23152.778    41415.298    43061.779   -15018.742    15.214868    13.176462    28.732378    5760.2132 
  961500      961.496    371.45567    15.508656   -732.99983   -717.49118    23567.904    41764.687    44222.615   -15283.589    15.214868    13.176462    28.732378    5760.2132 
  962000      961.996    362.98671    15.155068   -732.64678   -717.49172    21267.225    39297.781    40904.578   -16400.682    15.214868    13.176462    28.732378    5760.2132 
  962500      962.496    363.65642    15.183029   -732.67646   -717.49343    22698.994     43220.84    42998.429   -18122.287    15.214868    13.176462    28.732378    5760.2132 
  963000      962.996    360.42609    15.048159   -732.54251   -717.49435     22611.55    41021.887    43739.464     -16926.7    15.214868    13.176462    28.732378    5760.2132 
  963500      963.496    367.60785    15.348005   -732.84434   -717.49634    23756.547    43093.275    44875.674   -16699.307    15.214868    13.176462    28.732378    5760.2132 
  964000      963.996     400.4904    16.720886   -734.22032   -717.49943    24776.603    44410.215    44591.881   -14672.287    15.214868    13.176462    28.732378    5760.2132 
  964500      964.496    379.19737     15.83188   -733.33083   -717.49895     22918.71    42655.198    41593.312   -15492.379    15.214868    13.176462    28.732378    5760.2132 
  965000      964.996    375.50369    15.677665   -733.17821   -717.50055    22007.317    40840.017    42399.573    -17217.64    15.214868    13.176462    28.732378    5760.2132 
  965500      965.496    360.38536    15.046459   -732.54812   -717.50167    22372.316    41100.531    40714.941   -14698.523    15.214868    13.176462    28.732378    5760.2132 
  966000      965.996    381.49135    15.927656    -733.4302   -717.50255    21780.979    42179.222    42553.833   -19390.117    15.214868    13.176462    28.732378    5760.2132 
  966500      966.496     367.8964    15.360052   -732.86387   -717.50381    22909.855    41615.432    44064.009   -16949.875    15.214868    13.176462    28.732378    5760.2132 
  967000      966.996    386.56081    16.139311   -733.64454   -717.50523    21208.401    41353.239    40103.078   -17831.113    15.214868    13.176462    28.732378    5760.2132 
  967500      967.496    383.68063     16.01906   -733.52536    -717.5063    23504.122    43461.145    45071.281   -18020.059    15.214868    13.176462    28.732378    5760.2132 
  968000      967.996    372.84509    15.566665   -733.07353   -717.50686    22331.098     43196.59    42473.332   -18676.628    15.214868    13.176462    28.732378    5760.2132 
  968500      968.496    376.66531    15.726164   -733.23474   -717.50857    21286.097    39931.987    39476.293   -15549.988    15.214868    13.176462    28.732378    5760.2132 
  969000      968.996    373.73917    15.603994   -733.11169   -717.50769    21650.433     40078.59    42005.084   -17132.374    15.214868    13.176462    28.732378    5760.2132 
  969500      969.496    385.38312    16.090141   -733.59998   -717.50984    22451.728    43477.366    40492.065   -16614.247    15.214868    13.176462    28.732378    5760.2132 
  970000      969.996    376.67912     15.72674    -733.2373   -717.51056    21675.126    39082.675    42938.792   -16996.089    15.214868    13.176462    28.732378    5760.2132 
  970500      970.496    383.06243     15.99325   -733.50508   -717.51183    22679.891    43351.716    42142.322   -17454.366    15.214868    13.176462    28.732378    5760.2132 
  971000      970.996    393.26669    16.419288   -733.93217   -717.51288     20684.03    43240.147    38925.102   -20113.159    15.214868    13.176462    28.732378    5760.2132 
  971500      971.496    387.28597    16.169587   -733.68256   -717.51298    21361.161    41294.147    39927.443   -17138.108    15.214868    13.176462    28.732378    5760.2132 
  972000      971.996    381.98039    15.948074   -733.46147    -717.5134    22945.089    44890.621    41152.837   -17208.192    15.214868    13.176462    28.732378    5760.2132 
  972500      972.496    380.50042    15.886283   -733.40004   -717.51376    24341.454    40857.491    43702.929   -11536.058    15.214868    13.176462    28.732378    5760.2132 
  973000      972.996    372.19101    15.539357   -733.05402   -717.51466    21929.315    42042.225    40351.176   -16605.456    15.214868    13.176462    28.732378    5760.2132 
  973500      973.496    377.12067    15.745175   -733.25969   -717.51452    22656.037    45081.065    41369.514   -18482.467    15.214868    13.176462    28.732378    5760.2132 
  974000      973.996     385.2377     16.08407   -733.60024   -717.51617    21810.609    44323.945    40754.204   -19646.321    15.214868    13.176462    28.732378    5760.2132 
  974500      974.496    390.46939    16.302498   -733.81953   -717.51703    23147.583    42808.436    42789.893   -16155.579    15.214868    13.176462    28.732378    5760.2132 
  975000      974.996    392.75438    16.397899   -733.91505   -717.51715    22411.222    41208.826    42021.376   -15996.537    15.214868    13.176462    28.732378    5760.2132 
  975500      975.496     369.8744    15.442636   -732.95984    -717.5172    23025.952    40224.815    43378.777   -14525.736    15.214868    13.176462    28.732378    5760.2132 
  976000      975.996    369.37028    15.421588   -732.93913   -717.51754      24929.5    40461.843    44344.647    -10017.99    15.214868    13.176462    28.732378    5760.2132 
  976500      976.496     366.1348    15.286504   -732.80442   -717.51791     23978.54    39880.091    46479.191   -14423.663    15.214868    13.176462    28.732378    5760.2132 
  977000      976.996    384.67749     16.06068   -733.57904   -717.51836    22805.853    42068.633    42201.363   -15852.436    15.214868    13.176462    28.732378    5760.2132 
  977500      977.496    378.41101    15.799048   -733.31779   -717.51874    23196.498    41813.367    40485.762   -12709.634    15.214868    13.176462    28.732378    5760.2132 
  978000      977.996    385.13046    16.079592   -733.59882   -717.51923    23064.552    39948.485     43369.14    -14123.97    15.214868    13.176462    28.732378    5760.2132 
  978500      978.496    381.23681    15.917028   -733.43652   -717.51949    21261.849    41639.687    42576.133   -20430.273    15.214868    13.176462    28.732378    5760.2132 
  979000      978.996    363.98252    15.196644   -732.71473   -717.51808    22743.263    44333.495     44435.48   -20539.186    15.214868    13.176462    28.732378    5760.2132 
  979500      979.496    369.57115    15.429975    -732.9487   -717.51872    23710.581    43256.086     41274.04   -13398.384    15.214868    13.176462    28.732378    5760.2132 
  980000      979.996    369.81753    15.440261   -732.96013   -717.51987    21396.904    39910.928    38252.729   -13972.944    15.214868    13.176462    28.732378    5760.2132 
  980500      980.496    392.05264      16.3686   -733.88877   -717.52017    22967.112    41613.593    43104.017   -15816.274    15.214868    13.176462    28.732378    5760.2132 
  981000      980.996    384.82092    16.066668   -733.58719   -717.52052    23453.992    41588.027    45485.382   -16711.434    15.214868    13.176462    28.732378    5760.2132 
  981500      981.496    347.99153    14.529004   -732.04791   -717.51891    23238.105    41460.408    43104.244   -14850.338    15.214868    13.176462    28.732378    5760.2132 
  982000      981.996    374.16221    15.621656   -733.14119   -717.51953    22113.422    43278.467    39902.983   -16841.183    15.214868    13.176462    28.732378    5760.2132 
  982500      982.496    375.31215    15.669668   -733.18928   -717.51961    23494.104    41942.097    42721.343   -14181.127    15.214868    13.176462    28.732378    5760.2132 
  983000      982.996    374.74623     15.64604   -733.16649   -717.52045    19056.435    38667.158    36761.028   -18258.882    15.214868    13.176462    28.732378    5760.2132 
  983500      983.496    366.13414    15.286476   -732.80514   -717.51866    21612.888    42691.555    41327.968   -19180.861    15.214868    13.176462    28.732378    5760.2132 
  984000      983.996    368.61599    15.390096   -732.90919   -717.51909    20483.595    40759.373    39826.575   -19135.164    15.214868    13.176462    28.732378    5760.2132 
  984500      984.496    376.53939    15.720906   -733.24104   -717.52013    20112.137    40699.792    41063.762   -21427.143    15.214868    13.176462    28.732378    5760.2132 
  985000      984.996    376.67615    15.726616   -733.24618   -717.51956    20902.026    42744.972     41198.25   -21237.143    15.214868    13.176462    28.732378    5760.2132 
  985500      985.496    368.26065     15.37526   -732.89403   -717.51877    22224.936    43232.106    43142.747   -19700.045    15.214868    13.176462    28.732378    5760.2132 
  986000      985.996    373.60139    15.598242   -733.11648   -717.51824     22832.87    44766.301    41805.452   -18073.142    15.214868    13.176462    28.732378    5760.2132 
  986500      986.496    368.87417    15.400875   -732.91886   -717.51798    20023.288    40848.989    38979.787   -19758.911    15.214868    13.176462    28.732378    5760.2132 
  987000      986.996    381.99499    15.948683   -733.46674   -717.51806    22223.326    43877.033     40720.43   -17927.484    15.214868    13.176462    28.732378    5760.2132 
  987500      987.496    388.05808    16.201823   -733.71995   -717.51813    20586.766    41178.984    39869.501   -19288.186    15.214868    13.176462    28.732378    5760.2132 
  988000      987.996    381.61591    15.932856   -733.44974   -717.51688    21597.003    44633.793    38791.925   -18634.708    15.214868    13.176462    28.732378    5760.2132 
  988500      988.496    389.75515    16.272678   -733.79003   -717.51735    20578.382    41618.952    41205.828   -21089.633    15.214868    13.176462    28.732378    5760.2132 
  989000      988.996    377.89809    15.777633    -733.2946   -717.51697    21296.303    42249.079    39645.534   -18005.703    15.214868    13.176462    28.732378    5760.2132 
  989500      989.496    366.09344    15.284777   -732.80083   -717.51605    20396.555    39338.066    41303.221   -19451.623    15.214868    13.176462    28.732378    5760.2132 
  990000      989.996    369.36845    15.421512   -732.93728   -717.51577    23443.877     42926.27    42100.089   -14694.727    15.214868    13.176462    28.732378    5760.2132 
  990500      990.496    379.32403    15.837168   -733.35206    -717.5149    21488.369    41139.207    38308.003   -14982.102    15.214868    13.176462    28.732378    5760.2132 
  991000      990.996    369.97986    15.447039   -732.96115   -717.51411    21898.606    42756.547    42781.135   -19841.863    15.214868    13.176462    28.732378    5760.2132 
  991500      991.496    378.27722    15.793462    -733.3075   -717.51404    21687.783    41796.355    44128.007   -20861.012    15.214868    13.176462    28.732378    5760.2132 
  992000      991.996    365.92188    15.277614   -732.79051   -717.51289    22956.281    42580.945    42648.354   -16360.457    15.214868    13.176462    28.732378    5760.2132 
  992500      992.496    375.38297    15.672624   -733.18461   -717.51198    23751.243    42876.927    42907.611    -14530.81    15.214868    13.176462    28.732378    5760.2132 
  993000      992.996    373.25922    15.583956   -733.09548   -717.51152    20611.494    41243.754    41809.609    -21218.88    15.214868    13.176462    28.732378    5760.2132 
  993500      993.496    383.51877    16.012302   -733.52285   -717.51055    21960.597    41423.914    39870.968   -15413.091    15.214868    13.176462    28.732378    5760.2132 
  994000      993.996     367.0014    15.322685   -732.83224   -717.50956    21158.863    41447.816    39948.054   -17919.282    15.214868    13.176462    28.732378    5760.2132 
  994500      994.496    359.74024    15.019524   -732.52833   -717.50881    22985.949    43315.823    42998.825   -17356.799    15.214868    13.176462    28.732378    5760.2132 
  995000      994.996     383.1362     15.99633   -733.50496   -717.50863    22455.081     41350.97    40691.148   -14676.874    15.214868    13.176462    28.732378    5760.2132 
  995500      995.496    366.95204    15.320624   -732.82845   -717.50782    23231.858    39618.613    42996.167   -12919.205    15.214868    13.176462    28.732378    5760.2132 
  996000      995.996    364.65994    15.224927   -732.73158   -717.50666    21393.546    39189.204    40882.346    -15890.91    15.214868    13.176462    28.732378    5760.2132 
  996500      996.496    365.45559    15.258146    -732.7634   -717.50525    20881.344    38725.556     40164.99   -16246.513    15.214868    13.176462    28.732378    5760.2132 
  997000      996.996    376.45537    15.717398   -733.22205   -717.50465    21370.842    41209.245    41691.339   -18788.058    15.214868    13.176462    28.732378    5760.2132 
  997500      997.496    374.27928    15.626544   -733.13088   -717.50434    21983.674    41708.888    41556.951   -17314.818    15.214868    13.176462    28.732378    5760.2132 
  998000      997.996    376.98618     15.73956   -733.24282   -717.50326    23741.897    43391.069    41779.972   -13945.352    15.214868    13.176462    28.732378    5760.2132 
  998500      998.496    356.24474    14.873584   -732.37526   -717.50168    24800.006    41817.422    43005.352   -10422.756    15.214868    13.176462    28.732378    5760.2132 
  999000      998.996    369.92551     15.44477   -732.94504   -717.50027    22774.652    43572.111    44151.867   -19400.021    15.214868    13.176462    28.732378    5760.2132 
  999500      999.496    394.56302    16.473411     -733.974   -717.50058    21807.407    42764.307    38992.556   -16334.644    15.214868    13.176462    28.732378    5760.2132 
 1000000      999.996    369.31664    15.419349   -732.91768   -717.49833    23885.587    45801.748    39201.664    -13346.65    15.214868    13.176462    28.732378    5760.2132 
 1000004         1000    370.07857    15.451161   -732.94921   -717.49805    23849.267    45754.042     38986.58   -13192.821    15.214868    13.176462    28.732378    5760.2132 
Loop time of 1046.04 on 28 procs for 1000000 steps with 324 atoms

Performance: 82.597 ns/day, 0.291 hours/ns, 955.987 timesteps/s
89.7% CPU use with 28 MPI tasks x no OpenMP threads

MPI task timing breakdown:
Section |  min time  |  avg time  |  max time  |%varavg| %total
---------------------------------------------------------------
Pair    | 782.53     | 865.91     | 985.53     | 136.0 | 82.78
Neigh   | 0.00094175 | 0.0012753  | 0.0016003  |   0.5 |  0.00
Comm    | 50.293     | 158.2      | 251.65     | 375.3 | 15.12
Output  | 0.096454   | 0.098851   | 0.11815    |   1.2 |  0.01
Modify  | 4.1405     | 16.83      | 83.713     | 664.2 |  1.61
Other   |            | 5.003      |            |       |  0.48

Nlocal:    11.5714 ave 16 max 6 min
Histogram: 2 1 1 2 3 2 7 2 4 4
Nghost:    655.75 ave 696 max 618 min
Histogram: 4 6 1 1 0 4 4 1 2 5
Neighs:    723.893 ave 1016 max 379 min
Histogram: 3 1 2 1 3 7 3 4 3 1
FullNghs:  1447.79 ave 2006 max 762 min
Histogram: 2 1 3 2 3 5 3 5 3 1

Total # of neighbors = 40538
Ave neighs/atom = 125.117
Neighbor list builds = 18
Dangerous builds = 0

write_restart   POSCAR_1x1x1.rest

#unfix    1
#undump   1
Total wall time: 0:17:26
